 Gaussian 16, Revision A.03,

 -----------------------------------------------------------
 # opt freq B3LYP/6-31G(d) empiricaldispersion=gd3bj scf=xqc
 -----------------------------------------------------------

 ------------------------------
 CID_91754326_JID_2936_neutraal
 ------------------------------
 Symbolic Z-matrix:
 Charge =  0 Multiplicity = 1

 SCF Done:  E(RB3LYP) =  -621.512696813     A.U. after   16 cycles
 SCF Done:  E(RB3LYP) =  -621.515867131     A.U. after   13 cycles
 SCF Done:  E(RB3LYP) =  -621.516136211     A.U. after   12 cycles
 SCF Done:  E(RB3LYP) =  -621.515287496     A.U. after   13 cycles
 SCF Done:  E(RB3LYP) =  -621.516160062     A.U. after   10 cycles
 SCF Done:  E(RB3LYP) =  -621.516157647     A.U. after    9 cycles
 SCF Done:  E(RB3LYP) =  -621.516161914     A.U. after    9 cycles
 Optimization completed.
    -- Stationary point found.
 Normal termination of Gaussian 16 at Wed Dec  9 18:12:57 2020.

 --------------------------------------------------------------------
 #N Geom=AllCheck Guess=TCheck SCRF=Check GenChk RB3LYP/6-31G(d) Freq
 --------------------------------------------------------------------

 Structure from the checkpoint file:  "JID_2936.chk"
 ------------------------------
 CID_91754326_JID_2936_neutraal
 ------------------------------
 Charge =  0 Multiplicity = 1

 SCF Done:  E(RB3LYP) =  -621.516161914     A.U. after    1 cycles

  Exact polarizability: 168.157  -0.045  93.123  -0.000   0.000  33.980
 Approx polarizability: 263.753  -2.743 182.803  -0.002   0.004  52.672

                      1                      2                      3
                      A                      A                      A
 Frequencies --     54.6952                70.5646               131.2077
 Red. masses --     11.6248                 8.6238                 9.5200
 Frc consts  --      0.0205                 0.0253                 0.0966
 IR Inten    --      2.5196                 0.0031                 5.6200

                      4                      5                      6
                      A                      A                      A
 Frequencies --    133.5341               167.2288               254.9237
 Red. masses --      3.5038                 3.0279                 7.4281
 Frc consts  --      0.0368                 0.0499                 0.2844
 IR Inten    --      3.0939                 1.8427                 0.2895

                      7                      8                      9
                      A                      A                      A
 Frequencies --    296.4306               317.5375               425.7647
 Red. masses --      6.9221                11.8218                 3.8654
 Frc consts  --      0.3584                 0.7023                 0.4128
 IR Inten    --      3.3307                 0.3762                 4.3211

                     10                     11                     12
                      A                      A                      A
 Frequencies --    472.0629               509.8446               516.9255
 Red. masses --      5.8904                 8.6398                 2.9104
 Frc consts  --      0.7734                 1.3232                 0.4582
 IR Inten    --     19.8250                13.1295                 1.2692

                     13                     14                     15
                      A                      A                      A
 Frequencies --    545.5292               650.0544               664.9264
 Red. masses --      6.1302                 8.3884                 1.2106
 Frc consts  --      1.0749                 2.0885                 0.3154
 IR Inten    --     13.4818                 1.8780               104.2470

                     16                     17                     18
                      A                      A                      A
 Frequencies --    730.1367               732.4079               778.5740
 Red. masses --      8.0094                 4.8744                 6.2367
 Frc consts  --      2.5157                 1.5405                 2.2274
 IR Inten    --      5.6319                21.0052                11.3300

                     19                     20                     21
                      A                      A                      A
 Frequencies --    847.2528               862.5797               930.0209
 Red. masses --      1.6116                10.6976                 4.9856
 Frc consts  --      0.6816                 4.6896                 2.5407
 IR Inten    --     33.6657                38.1271                 1.0325

                     22                     23                     24
                      A                      A                      A
 Frequencies --    980.5236               998.7455              1033.6880
 Red. masses --      1.4201                 1.3258                 3.2639
 Frc consts  --      0.8044                 0.7792                 2.0548
 IR Inten    --      2.6815                 1.4157                 9.8243

                     25                     26                     27
                      A                      A                      A
 Frequencies --   1047.2146              1142.0705              1180.8846
 Red. masses --      1.5648                 1.6053                 3.0901
 Frc consts  --      1.0110                 1.2337                 2.5388
 IR Inten    --      0.2675               160.7139                11.6863

                     28                     29                     30
                      A                      A                      A
 Frequencies --   1201.7506              1271.6370              1343.9143
 Red. masses --      2.4225                 1.7401                 1.9657
 Frc consts  --      2.0613                 1.6578                 2.0918
 IR Inten    --    176.5290               295.9412                19.0862

                     31                     32                     33
                      A                      A                      A
 Frequencies --   1357.1103              1390.9108              1398.0421
 Red. masses --      3.5207                 1.4098                 8.8079
 Frc consts  --      3.8204                 1.6070                10.1430
 IR Inten    --     67.5882                 1.1084               535.9215

                     34                     35                     36
                      A                      A                      A
 Frequencies --   1431.4251              1520.8221              1537.2946
 Red. masses --      2.5110                 2.1988                 3.7292
 Frc consts  --      3.0313                 2.9963                 5.1925
 IR Inten    --      9.0830                19.7204               256.6823

                     37                     38                     39
                      A                      A                      A
 Frequencies --   1617.3784              1651.7109              1666.8829
 Red. masses --      7.3281                 6.8978                 8.2231
 Frc consts  --     11.2945                11.0874                13.4616
 IR Inten    --     60.5728               296.5207               290.4334

                     40                     41                     42
                      A                      A                      A
 Frequencies --   1822.2270              3100.2768              3209.6261
 Red. masses --      7.0367                 1.0916                 1.0915
 Frc consts  --     13.7665                 6.1819                 6.6251
 IR Inten    --    473.6416                15.6609                 5.7630

                     43                     44                     45
                      A                      A                      A
 Frequencies --   3232.8778              3253.6532              3593.5396
 Red. masses --      1.0921                 1.0935                 1.0768
 Frc consts  --      6.7249                 6.8206                 8.1929
 IR Inten    --      0.3619                 2.1745                43.3683

 - Thermochemistry -
 -------------------
 Temperature   298.150 Kelvin.  Pressure   1.00000 Atm.
 Atom     1 has atomic number  6 and mass  12.00000

 Molecular mass:   167.03309 amu.
 Principal axes and moments of inertia in atomic units:
                           1         2         3
     Eigenvalues --   510.317454280.494544790.81197
           X            1.00000   0.00002  -0.00000
           Y           -0.00002   1.00000  -0.00001
           Z            0.00000   0.00001   1.00000
 This molecule is an asymmetric top.
 Rotational symmetry number  1.
 Warning -- assumption of classical behavior for rotation
           may cause significant error
 Rotational temperatures (Kelvin)      0.16973     0.02023     0.01808
 Rotational constants (GHZ):           3.53651     0.42162     0.37671
 Zero-point vibrational energy     311486.1 (Joules/Mol)
                                   74.44696 (Kcal/Mol)
 Warning -- explicit consideration of  13 degrees of freedom as
           vibrations may cause significant error
 Vibrational temperatures:     78.69   101.53   188.78   192.13   240.60
          (Kelvin)            366.78   426.50   456.87   612.58   679.19
                              733.55   743.74   784.89   935.28   956.68
                             1050.50  1053.77  1120.19  1219.01  1241.06
                             1338.09  1410.75  1436.97  1487.25  1506.71
                             1643.18  1699.03  1729.05  1829.60  1933.59
                             1952.58  2001.21  2011.47  2059.50  2188.12
                             2211.82  2327.05  2376.44  2398.27  2621.78
                             4460.61  4617.94  4651.39  4681.28  5170.30

 Zero-point correction=                           0.118639 (Hartree/Particle)
 Thermal correction to Energy=                    0.128497
 Thermal correction to Enthalpy=                  0.129442
 Thermal correction to Gibbs Free Energy=         0.082159
 Sum of electronic and zero-point Energies=           -621.397523
 Sum of electronic and thermal Energies=              -621.387665
 Sum of electronic and thermal Enthalpies=            -621.386720
 Sum of electronic and thermal Free Energies=         -621.434003

                     E (Thermal)             CV                S
                      KCal/Mol        Cal/Mol-Kelvin    Cal/Mol-Kelvin
 Total                   80.633             35.796             99.516
 Electronic               0.000              0.000              0.000
 Translational            0.889              2.981             41.247
 Rotational               0.889              2.981             30.727
 Vibrational             78.856             29.835             27.542
 Vibration     1          0.596              1.976              4.640
 Vibration     2          0.598              1.968              4.138
 Vibration     3          0.612              1.922              2.928
 Vibration     4          0.613              1.920              2.895
 Vibration     5          0.624              1.883              2.466
 Vibration     6          0.665              1.754              1.696
 Vibration     7          0.690              1.680              1.437
 Vibration     8          0.704              1.640              1.323
 Vibration     9          0.788              1.414              0.873
 Vibration    10          0.829              1.312              0.732
 Vibration    11          0.865              1.228              0.634
 Vibration    12          0.872              1.213              0.617
 Vibration    13          0.901              1.149              0.554

 Optimization completed.
    -- Stationary point found.
 Normal termination of Gaussian 16 at Wed Dec  9 18:16:39 2020.

 ----------------------------------------------------------------------
 # B3LYP/6-311++G(d,p) empiricaldispersion=gd3bj scf=xqc pop=npa geom=c
 heck
 ----------------------------------------------------------------------

 --------------------------------------
 CID_91754326_JID_2936_Energie_neutraal
 --------------------------------------
 Structure from the checkpoint file:  "JID_2936.chk"
 Charge =  0 Multiplicity = 1

 SCF Done:  E(RB3LYP) =  -621.697441254     A.U. after   15 cycles
 Normal termination of Gaussian 16 at Wed Dec  9 18:18:01 2020.

 ----------------------------------------------------------------------
 # B3LYP/6-311++G(d,p) empiricaldispersion=gd3bj scf=xqc pop=npa geom=c
 heck
 ----------------------------------------------------------------------

 ------------------------------------
 CID_91754326_JID_2936_Energie_kation
 ------------------------------------
 Structure from the checkpoint file:  "JID_2936.chk"
 Charge =  1 Multiplicity = 2

 SCF Done:  E(UB3LYP) =  -621.348759905     A.U. after   27 cycles
 Normal termination of Gaussian 16 at Wed Dec  9 18:21:59 2020.
 Gaussian 16:  ES64L-G16RevA.03 25-Dec-2016

 ----------------------------------------------------------------------
 # B3LYP/6-311++G(d,p) empiricaldispersion=gd3bj scf=xqc pop=npa geom=c
 heck
 ----------------------------------------------------------------------

 -----------------------------------
 CID_91754326_JID_2936_Energie_anion
 -----------------------------------
 Structure from the checkpoint file:  "JID_2936.chk"
 Charge = -1 Multiplicity = 2

                         Standard orientation:
 ---------------------------------------------------------------------
 Center     Atomic      Atomic             Coordinates (Angstroms)
 Number     Number       Type             X           Y           Z
 ---------------------------------------------------------------------
      1          6           0       -0.994010    1.322070    0.000008
      2          6           0        0.377374    1.489686   -0.000093
      3          6           0        1.192875    0.339212   -0.000101
      4          7           0        0.703661   -0.909752    0.000018
      5          6           0       -0.618790   -1.063154    0.000113
      6          6           0       -1.496302    0.019243    0.000102
      7          7           0       -2.935511   -0.207972    0.000209
      8          8           0       -3.328869   -1.374725   -0.000339
      9          8           0       -3.666955    0.783241    0.000123
     10          7           0        2.571245    0.478595   -0.000183
     11          6           0        3.509689   -0.546443    0.000130
     12          8           0        4.701605   -0.324083    0.000062
     13          1           0       -1.677759    2.162039    0.000034
     14          1           0        0.819381    2.480912   -0.000160
     15          1           0       -1.004691   -2.077037    0.000192
     16          1           0        2.963658    1.413232   -0.000208
     17          1           0        3.052389   -1.544395    0.000109
 ---------------------------------------------------------------------

 SCF Done:  E(UB3LYP) =  -621.750327485     A.U. after   22 cycles

 The electronic state is 2-A.
 Alpha  occ. eigenvalues --  -18.99193 -18.95835 -18.95705 -14.33831 -14.24513
 Alpha  occ. eigenvalues --  -14.18841 -10.16086 -10.11986 -10.08375 -10.07140
 Alpha  occ. eigenvalues --  -10.06599 -10.05963  -1.03863  -0.94243  -0.86745
 Alpha  occ. eigenvalues --   -0.86075  -0.79766  -0.69521  -0.65318  -0.56862
 Alpha  occ. eigenvalues --   -0.54631  -0.49079  -0.47498  -0.43821  -0.39344
 Alpha  occ. eigenvalues --   -0.38203  -0.36247  -0.35684  -0.33442  -0.32985
 Alpha  occ. eigenvalues --   -0.32516  -0.32239  -0.29578  -0.28020  -0.27430
 Alpha  occ. eigenvalues --   -0.20779  -0.17563  -0.17513  -0.14810  -0.14708
 Alpha  occ. eigenvalues --   -0.12957  -0.11919  -0.11587   0.01369
 Alpha virt. eigenvalues --    0.07995   0.08012   0.10009   0.10469   0.10786
 Alpha virt. eigenvalues --    0.12822   0.13593   0.14254   0.14760   0.15367
 Alpha virt. eigenvalues --    0.16533   0.17902   0.18380   0.18704   0.18809

  Beta  occ. eigenvalues --  -18.99034 -18.95414 -18.95225 -14.33275 -14.24564
  Beta  occ. eigenvalues --  -14.18917 -10.15991 -10.11614 -10.08282 -10.07060
  Beta  occ. eigenvalues --  -10.06709 -10.05734  -1.02904  -0.93981  -0.85929
  Beta  occ. eigenvalues --   -0.85826  -0.79704  -0.69181  -0.64908  -0.56056
  Beta  occ. eigenvalues --   -0.54420  -0.48896  -0.47017  -0.43629  -0.39211
  Beta  occ. eigenvalues --   -0.37583  -0.35494  -0.33648  -0.33289  -0.32252
  Beta  occ. eigenvalues --   -0.32176  -0.31774  -0.29369  -0.27303  -0.27172
  Beta  occ. eigenvalues --   -0.20008  -0.17477  -0.16853  -0.14663  -0.12633
  Beta  occ. eigenvalues --   -0.11672  -0.11137  -0.10983
  Beta virt. eigenvalues --    0.07572   0.07975   0.08991   0.10449   0.10785
  Beta virt. eigenvalues --    0.11713   0.12814   0.13572   0.14822   0.15356
  Beta virt. eigenvalues --    0.16035   0.16516   0.17893   0.18604   0.18692

 Mulliken charges and spin densities:
               1          2
     1  C    0.072850   0.245704
     2  C    0.391511  -0.069717
     3  C   -0.597001   0.197442
     4  N   -0.193541  -0.034345
     5  C   -0.060543   0.093516
     6  C   -0.565946  -0.038495
     7  N   -0.242736   0.189294
     8  O   -0.201589   0.180527
     9  O   -0.188603   0.161444
    10  N   -0.169895  -0.026804
    11  C    0.088684   0.067788
    12  O   -0.382735   0.051238
    13  H    0.233693  -0.013535
    14  H    0.140507   0.005226
    15  H    0.245443  -0.005829
    16  H    0.270339   0.000522
    17  H    0.159562  -0.003976
 Sum of Mulliken charges =  -1.00000   1.00000

 Dipole moment (field-independent basis, Debye):
    X=              4.7590    Y=              2.7508    Z=              0.0007  Tot=              5.4968
 Quadrupole moment (field-independent basis, Debye-Ang):
   XX=           -152.8032   YY=            -73.9143   ZZ=            -72.7991
   XY=              2.2411   XZ=             -0.0026   YZ=             -0.0020

 Summary of Natural Population Analysis:

                                       Natural Population
                Natural  -----------------------------------------------
    Atom  No    Charge         Core      Valence    Rydberg      Total
 -----------------------------------------------------------------------
      C    1   -0.02967      0.99954     2.02015    0.00997     3.02967
      C    2   -0.16818      0.99954     2.16081    0.00783     3.16818
      C    3    0.25095      0.99955     1.73610    0.01340     2.74905
      N    4   -0.27749      0.99968     2.76748    0.01033     3.77749
      C    5    0.06082      0.99956     1.92538    0.01424     2.93918
      C    6    0.01600      0.99940     1.97025    0.01435     2.98400
      N    7    0.29818      0.99972     2.17551    0.02659     3.20182
      O    8   -0.18935      0.99990     3.18186    0.00760     4.18935
      O    9   -0.19965      0.99990     3.19204    0.00771     4.19965
      N   10   -0.31427      0.99966     2.80695    0.00765     3.81427
      C   11    0.28400      0.99976     1.69367    0.02257     2.71600
      O   12   -0.30133      0.99988     3.29433    0.00712     4.30133
      H   13    0.11280      0.00000     0.38605    0.00115     0.38720
      H   14    0.09525      0.00000     0.40356    0.00119     0.40475
      H   15    0.10214      0.00000     0.39657    0.00129     0.39786
      H   16    0.19175      0.00000     0.30599    0.00226     0.30825
      H   17    0.06804      0.00000     0.43048    0.00148     0.43196
 =======================================================================
   * Total *    0.00000     11.99610    30.84718    0.15672    43.00000

 Normal termination of Gaussian 16 at Wed Dec  9 18:24:52 2020.
