 Gaussian 16, Revision A.03,

 -----------------------------------------------------------
 # opt freq B3LYP/6-31G(d) empiricaldispersion=gd3bj scf=xqc
 -----------------------------------------------------------

 -------------------------------
 CID_103489139_JID_5526_neutraal
 -------------------------------
 Symbolic Z-matrix:
 Charge =  0 Multiplicity = 1

 SCF Done:  E(RB3LYP) =  -713.502310640     A.U. after   14 cycles
 SCF Done:  E(RB3LYP) =  -713.505909607     A.U. after   12 cycles
 SCF Done:  E(RB3LYP) =  -713.505399678     A.U. after   12 cycles
 SCF Done:  E(RB3LYP) =  -713.507041679     A.U. after   11 cycles
 SCF Done:  E(RB3LYP) =  -713.506927039     A.U. after   12 cycles
 SCF Done:  E(RB3LYP) =  -713.508096814     A.U. after   12 cycles
 SCF Done:  E(RB3LYP) =  -713.508277787     A.U. after   12 cycles
 SCF Done:  E(RB3LYP) =  -713.508390360     A.U. after   11 cycles
 SCF Done:  E(RB3LYP) =  -713.508416210     A.U. after   10 cycles
 SCF Done:  E(RB3LYP) =  -713.508422963     A.U. after    9 cycles
 SCF Done:  E(RB3LYP) =  -713.508424555     A.U. after    9 cycles
 SCF Done:  E(RB3LYP) =  -713.508424589     A.U. after    7 cycles
 SCF Done:  E(RB3LYP) =  -713.508424676     A.U. after    7 cycles
 Optimization completed.
    -- Stationary point found.
 Normal termination of Gaussian 16 at Thu Dec 10 16:32:16 2020.

 --------------------------------------------------------------------
 #N Geom=AllCheck Guess=TCheck SCRF=Check GenChk RB3LYP/6-31G(d) Freq
 --------------------------------------------------------------------

 Structure from the checkpoint file:  "JID_5526.chk"
 -------------------------------
 CID_103489139_JID_5526_neutraal
 -------------------------------
 Charge =  0 Multiplicity = 1

 SCF Done:  E(RB3LYP) =  -713.508424676     A.U. after    1 cycles

  Exact polarizability: 140.363   0.864 133.725  -0.570  -0.358 117.761
 Approx polarizability: 174.789   4.839 179.399  -1.689   2.641 183.927

                      1                      2                      3
                      A                      A                      A
 Frequencies --     16.3920                38.5459                45.5412
 Red. masses --      3.8268                 3.8271                 4.1083
 Frc consts  --      0.0006                 0.0034                 0.0050
 IR Inten    --      0.0319                 1.2281                 0.1289

                      4                      5                      6
                      A                      A                      A
 Frequencies --     52.0180                78.6964                89.9248
 Red. masses --      3.3336                 2.8728                 3.5422
 Frc consts  --      0.0053                 0.0105                 0.0169
 IR Inten    --      0.1534                 0.0481                 1.4397

                      7                      8                      9
                      A                      A                      A
 Frequencies --    121.1966               146.0502               165.4018
 Red. masses --      3.0216                 4.1948                 2.5703
 Frc consts  --      0.0261                 0.0527                 0.0414
 IR Inten    --      0.8533                 2.0155                 0.0630

                     10                     11                     12
                      A                      A                      A
 Frequencies --    172.9073               191.3114               217.2543
 Red. masses --      2.0084                 1.6304                 1.9661
 Frc consts  --      0.0354                 0.0352                 0.0547
 IR Inten    --      0.0825                 2.6756                 0.2138

                     13                     14                     15
                      A                      A                      A
 Frequencies --    230.6465               261.9031               276.5473
 Red. masses --      1.4338                 1.5261                 1.8844
 Frc consts  --      0.0449                 0.0617                 0.0849
 IR Inten    --      0.4896                 1.2126                 0.1227

                     16                     17                     18
                      A                      A                      A
 Frequencies --    284.7995               298.6213               303.9685
 Red. masses --      1.6803                 2.4097                 1.7249
 Frc consts  --      0.0803                 0.1266                 0.0939
 IR Inten    --     21.8332                 5.6648                 4.6817

                     19                     20                     21
                      A                      A                      A
 Frequencies --    318.7960               338.1367               379.4581
 Red. masses --      2.5174                 2.0351                 2.0568
 Frc consts  --      0.1507                 0.1371                 0.1745
 IR Inten    --     15.3766                23.2320                 1.3536

                     22                     23                     24
                      A                      A                      A
 Frequencies --    393.4232               428.1172               468.6299
 Red. masses --      3.6188                 2.7847                 2.7688
 Frc consts  --      0.3300                 0.3007                 0.3583
 IR Inten    --      6.1633                 4.9874                 8.6786

                     25                     26                     27
                      A                      A                      A
 Frequencies --    501.6185               525.8515               553.2448
 Red. masses --      2.4502                 2.6984                 3.2445
 Frc consts  --      0.3632                 0.4396                 0.5851
 IR Inten    --      3.4770                 5.4951                11.7915

                     28                     29                     30
                      A                      A                      A
 Frequencies --    686.4290               760.7288               770.1133
 Red. masses --      2.3353                 1.4051                 5.2159
 Frc consts  --      0.6483                 0.4791                 1.8226
 IR Inten    --      2.9080                16.6970                 5.8300

                     31                     32                     33
                      A                      A                      A
 Frequencies --    814.0386               819.8848               826.2326
 Red. masses --      3.8193                 1.1327                 2.0859
 Frc consts  --      1.4911                 0.4486                 0.8390
 IR Inten    --     26.1936                 4.0200                 0.6763

                     34                     35                     36
                      A                      A                      A
 Frequencies --    850.2063               852.6157               896.9695
 Red. masses --      2.2700                 2.3079                 2.1468
 Frc consts  --      0.9668                 0.9885                 1.0177
 IR Inten    --      4.9756                14.6260                18.8461

                     37                     38                     39
                      A                      A                      A
 Frequencies --    923.5116               938.4540               946.8014
 Red. masses --      1.9018                 1.5929                 1.5877
 Frc consts  --      0.9557                 0.8266                 0.8386
 IR Inten    --      2.2485               149.1512                 1.8777

                     40                     41                     42
                      A                      A                      A
 Frequencies --    959.8801              1002.6574              1008.3728
 Red. masses --      2.0079                 1.7253                 2.4881
 Frc consts  --      1.0900                 1.0219                 1.4906
 IR Inten    --      4.4502                59.0686                 9.3183

                     43                     44                     45
                      A                      A                      A
 Frequencies --   1017.0181              1091.4392              1094.6811
 Red. masses --      2.0222                 2.6645                 2.0125
 Frc consts  --      1.2323                 1.8701                 1.4209
 IR Inten    --      1.3895                35.5676                12.4926

                     46                     47                     48
                      A                      A                      A
 Frequencies --   1104.9786              1119.2517              1136.0435
 Red. masses --      1.4096                 2.2545                 1.9242
 Frc consts  --      1.0140                 1.6640                 1.4631
 IR Inten    --      5.7447                10.2294                20.4157

                     49                     50                     51
                      A                      A                      A
 Frequencies --   1155.0639              1157.0981              1165.5432
 Red. masses --      2.4191                 2.2495                 1.9608
 Frc consts  --      1.9016                 1.7745                 1.5695
 IR Inten    --     33.5948                 6.8212                22.6750

                     52                     53                     54
                      A                      A                      A
 Frequencies --   1176.6595              1205.1241              1208.4299
 Red. masses --      2.8606                 1.8380                 1.7925
 Frc consts  --      2.3335                 1.5728                 1.5422
 IR Inten    --     54.6672               124.9821                99.2961

                     55                     56                     57
                      A                      A                      A
 Frequencies --   1220.3132              1254.0678              1301.4744
 Red. masses --      2.0337                 1.5287                 1.3321
 Frc consts  --      1.7843                 1.4165                 1.3294
 IR Inten    --     83.5403                40.8710                 4.0337

                     58                     59                     60
                      A                      A                      A
 Frequencies --   1320.4178              1336.8610              1346.2951
 Red. masses --      1.2634                 1.1981                 1.1838
 Frc consts  --      1.2978                 1.2615                 1.2642
 IR Inten    --     35.5794                 9.4942                 1.8041

                     61                     62                     63
                      A                      A                      A
 Frequencies --   1357.3452              1373.1701              1377.5799
 Red. masses --      1.1579                 1.4555                 1.4132
 Frc consts  --      1.2569                 1.6171                 1.5801
 IR Inten    --      5.3015                23.2077                 4.5837

                     64                     65                     66
                      A                      A                      A
 Frequencies --   1405.3288              1412.4360              1414.1081
 Red. masses --      1.3572                 1.3952                 1.2513
 Frc consts  --      1.5793                 1.6400                 1.4743
 IR Inten    --      2.0623                 4.8908                 7.4609

                     67                     68                     69
                      A                      A                      A
 Frequencies --   1422.7285              1432.6546              1438.2326
 Red. masses --      1.2570                 1.3095                 1.2506
 Frc consts  --      1.4991                 1.5836                 1.5242
 IR Inten    --      3.7787                 2.5996                33.0681

                     70                     71                     72
                      A                      A                      A
 Frequencies --   1439.9087              1445.3845              1446.9565
 Red. masses --      1.3836                 1.2764                 1.3319
 Frc consts  --      1.6902                 1.5711                 1.6430
 IR Inten    --      8.6124                 6.9758                 9.2510

                     73                     74                     75
                      A                      A                      A
 Frequencies --   1511.3549              1513.1210              1516.4563
 Red. masses --      1.0715                 1.0621                 1.0530
 Frc consts  --      1.4420                 1.4327                 1.4268
 IR Inten    --      2.7656                 5.5335                10.8108

                     76                     77                     78
                      A                      A                      A
 Frequencies --   1524.3724              1528.4735              1530.9725
 Red. masses --      1.0845                 1.0506                 1.0568
 Frc consts  --      1.4848                 1.4461                 1.4594
 IR Inten    --      5.5026                 3.2932                 2.8423

                     79                     80                     81
                      A                      A                      A
 Frequencies --   1534.8356              1536.5801              1540.8708
 Red. masses --      1.0585                 1.0524                 1.0613
 Frc consts  --      1.4691                 1.4641                 1.4846
 IR Inten    --      5.6473                 5.7905                 8.0518

                     82                     83                     84
                      A                      A                      A
 Frequencies --   1544.0427              1550.7004              1705.0676
 Red. masses --      1.0827                 1.0791                 1.0886
 Frc consts  --      1.5208                 1.5289                 1.8647
 IR Inten    --      2.7250                 0.7062                23.8698

                     85                     86                     87
                      A                      A                      A
 Frequencies --   1794.7272              3031.4951              3043.7109
 Red. masses --     10.6178                 1.0620                 1.0600
 Frc consts  --     20.1503                 5.7505                 5.7860
 IR Inten    --    140.5039                16.4885                26.1672

                     88                     89                     90
                      A                      A                      A
 Frequencies --   3044.6700              3049.1122              3052.5009
 Red. masses --      1.0423                 1.0618                 1.0394
 Frc consts  --      5.6930                 5.8163                 5.7064
 IR Inten    --     32.7505                38.7033                18.0586

                     91                     92                     93
                      A                      A                      A
 Frequencies --   3052.6183              3063.6940              3065.3884
 Red. masses --      1.0644                 1.0985                 1.0440
 Frc consts  --      5.8440                 6.0747                 5.7797
 IR Inten    --     17.2274                29.0983                 9.9690

                     94                     95                     96
                      A                      A                      A
 Frequencies --   3074.5454              3081.9662              3098.6704
 Red. masses --      1.0588                 1.0975                 1.1004
 Frc consts  --      5.8972                 6.1421                 6.2252
 IR Inten    --     29.9200                17.5656                30.3529

                     97                     98                     99
                      A                      A                      A
 Frequencies --   3099.7557              3100.5762              3109.1475
 Red. masses --      1.0880                 1.0876                 1.0993
 Frc consts  --      6.1594                 6.1605                 6.2613
 IR Inten    --     11.5824                 6.7190                60.7145

                    100                    101                    102
                      A                      A                      A
 Frequencies --   3112.1475              3117.3399              3117.8702
 Red. masses --      1.0993                 1.1005                 1.0992
 Frc consts  --      6.2731                 6.3010                 6.2956
 IR Inten    --     53.4233                26.6922                34.9605

                    103                    104                    105
                      A                      A                      A
 Frequencies --   3125.8321              3131.1480              3139.9683
 Red. masses --      1.1018                 1.1025                 1.1027
 Frc consts  --      6.3431                 6.3683                 6.4055
 IR Inten    --     19.8074                23.6590                45.6167

                    106                    107                    108
                      A                      A                      A
 Frequencies --   3168.4875              3456.3893              3540.5090
 Red. masses --      1.1007                 1.0496                 1.0918
 Frc consts  --      6.5108                 7.3879                 8.0635
 IR Inten    --      9.8996                 1.3293                 1.0743

 - Thermochemistry -
 -------------------
 Temperature   298.150 Kelvin.  Pressure   1.00000 Atm.
 Atom     1 has atomic number  6 and mass  12.00000

 Molecular mass:   217.16779 amu.
 Principal axes and moments of inertia in atomic units:
                           1         2         3
     Eigenvalues --  2234.350265003.794615672.15693
           X            0.99982  -0.01414  -0.01252
           Y            0.01373   0.99938  -0.03234
           Z            0.01296   0.03217   0.99940
 This molecule is an asymmetric top.
 Rotational symmetry number  1.
 Warning -- assumption of classical behavior for rotation
           may cause significant error
 Rotational temperatures (Kelvin)      0.03876     0.01731     0.01527
 Rotational constants (GHZ):           0.80773     0.36067     0.31818
 Zero-point vibrational energy     900438.8 (Joules/Mol)
                                  215.21004 (Kcal/Mol)
 Warning -- explicit consideration of  27 degrees of freedom as
           vibrations may cause significant error
 Vibrational temperatures:     23.58    55.46    65.52    74.84   113.23
          (Kelvin)            129.38   174.37   210.13   237.98   248.78
                              275.25   312.58   331.85   376.82   397.89
                              409.76   429.65   437.34   458.68   486.50
                              545.96   566.05   615.97   674.25   721.72
                              756.58   796.00   987.62  1094.52  1108.02
                             1171.22  1179.63  1188.76  1223.26  1226.72
                             1290.54  1328.73  1350.23  1362.24  1381.05
                             1442.60  1450.82  1463.26  1570.34  1575.00
                             1589.82  1610.35  1634.51  1661.88  1664.81
                             1676.96  1692.95  1733.90  1738.66  1755.76
                             1804.32  1872.53  1899.79  1923.44  1937.02
                             1952.92  1975.69  1982.03  2021.95  2032.18
                             2034.59  2046.99  2061.27  2069.30  2071.71
                             2079.59  2081.85  2174.50  2177.04  2181.84
                             2193.23  2199.13  2202.73  2208.29  2210.80
                             2216.97  2221.53  2231.11  2453.21  2582.21
                             4361.65  4379.22  4380.60  4386.99  4391.87
                             4392.04  4407.97  4410.41  4423.59  4434.26
                             4458.30  4459.86  4461.04  4473.37  4477.69
                             4485.16  4485.92  4497.38  4505.02  4517.71
                             4558.75  4972.97  5094.00

 Zero-point correction=                           0.342959 (Hartree/Particle)
 Thermal correction to Energy=                    0.361140
 Thermal correction to Enthalpy=                  0.362084
 Thermal correction to Gibbs Free Energy=         0.295493
 Sum of electronic and zero-point Energies=           -713.165466
 Sum of electronic and thermal Energies=              -713.147284
 Sum of electronic and thermal Enthalpies=            -713.146340
 Sum of electronic and thermal Free Energies=         -713.212932

                     E (Thermal)             CV                S
                      KCal/Mol        Cal/Mol-Kelvin    Cal/Mol-Kelvin
 Total                  226.619             66.174            140.154
 Electronic               0.000              0.000              0.000
 Translational            0.889              2.981             42.030
 Rotational               0.889              2.981             32.517
 Vibrational            224.842             60.212             65.607
 Vibration     1          0.593              1.986              7.029
 Vibration     2          0.594              1.981              5.332
 Vibration     3          0.595              1.979              5.002
 Vibration     4          0.596              1.977              4.739
 Vibration     5          0.600              1.963              3.923
 Vibration     6          0.602              1.956              3.662
 Vibration     7          0.609              1.932              3.081
 Vibration     8          0.617              1.907              2.723
 Vibration     9          0.624              1.885              2.487
 Vibration    10          0.626              1.876              2.404
 Vibration    11          0.634              1.852              2.215
 Vibration    12          0.646              1.815              1.982
 Vibration    13          0.652              1.794              1.874
 Vibration    14          0.669              1.743              1.649
 Vibration    15          0.678              1.717              1.555
 Vibration    16          0.683              1.702              1.505
 Vibration    17          0.692              1.676              1.425
 Vibration    18          0.695              1.666              1.395
 Vibration    19          0.705              1.638              1.316
 Vibration    20          0.718              1.599              1.221
 Vibration    21          0.749              1.514              1.041
 Vibration    22          0.761              1.484              0.987
 Vibration    23          0.790              1.409              0.865
 Vibration    24          0.826              1.320              0.741
 Vibration    25          0.857              1.246              0.654
 Vibration    26          0.881              1.193              0.597
 Vibration    27          0.909              1.133              0.537

                           ! Non-Optimized Parameters !
 Normal termination of Gaussian 16 at Thu Dec 10 16:45:46 2020.

 ----------------------------------------------------------------------
 # B3LYP/6-311++G(d,p) empiricaldispersion=gd3bj scf=xqc pop=npa geom=c
 heck
 ----------------------------------------------------------------------

 ---------------------------------------
 CID_103489139_JID_5526_Energie_neutraal
 ---------------------------------------
 Structure from the checkpoint file:  "JID_5526.chk"
 Charge =  0 Multiplicity = 1

 SCF Done:  E(RB3LYP) =  -713.723718590     A.U. after   14 cycles
 Normal termination of Gaussian 16 at Thu Dec 10 16:54:04 2020.

 ----------------------------------------------------------------------
 # B3LYP/6-311++G(d,p) empiricaldispersion=gd3bj scf=xqc pop=npa geom=c
 heck
 ----------------------------------------------------------------------

 -------------------------------------
 CID_103489139_JID_5526_Energie_kation
 -------------------------------------
 Structure from the checkpoint file:  "JID_5526.chk"
 Charge =  1 Multiplicity = 2

 SCF Done:  E(UB3LYP) =  -713.401920722     A.U. after   24 cycles
 Normal termination of Gaussian 16 at Thu Dec 10 17:18:11 2020.
 Gaussian 16:  ES64L-G16RevA.03 25-Dec-2016

 ----------------------------------------------------------------------
 # B3LYP/6-311++G(d,p) empiricaldispersion=gd3bj scf=xqc pop=npa geom=c
 heck
 ----------------------------------------------------------------------

 ------------------------------------
 CID_103489139_JID_5526_Energie_anion
 ------------------------------------
 Structure from the checkpoint file:  "JID_5526.chk"
 Charge = -1 Multiplicity = 2

                         Standard orientation:
 ---------------------------------------------------------------------
 Center     Atomic      Atomic             Coordinates (Angstroms)
 Number     Number       Type             X           Y           Z
 ---------------------------------------------------------------------
      1          6           0        4.050672    0.008694   -1.690196
      2          6           0        3.068364   -0.937980   -0.994415
      3          6           0        2.923269   -0.685559    0.514392
      4          6           0        2.477080    0.731200    0.903695
      5          6           0        1.140886    1.191831    0.293843
      6          6           0        0.039302    0.211265    0.696186
      7          8           0       -0.470128    0.203912    1.801196
      8          8           0       -0.289054   -0.614870   -0.314431
      9          6           0       -1.325050   -1.634142   -0.132964
     10          6           0       -0.914390   -2.655552    0.922502
     11          6           0       -2.706715   -1.023158    0.120460
     12          8           0       -3.277996   -0.389812   -1.010498
     13          6           0       -2.762915    0.890379   -1.373567
     14          6           0       -2.950159    1.968619   -0.307401
     15          7           0        0.851253    2.553064    0.747583
     16          1           0        3.707853    1.048942   -1.654533
     17          1           0        4.176537   -0.259616   -2.744936
     18          1           0        5.039049   -0.028918   -1.215436
     19          1           0        2.084252   -0.870316   -1.473271
     20          1           0        3.402664   -1.973868   -1.138204
     21          1           0        2.219040   -1.417724    0.931752
     22          1           0        3.886630   -0.881343    1.004271
     23          1           0        2.381333    0.788175    1.995935
     24          1           0        3.228919    1.472683    0.615192
     25          1           0        1.217012    1.202122   -0.796939
     26          1           0       -1.347432   -2.104857   -1.119462
     27          1           0       -0.954532   -2.228394    1.926089
     28          1           0       -1.584106   -3.520991    0.875982
     29          1           0        0.104960   -3.004025    0.728745
     30          1           0       -3.385429   -1.851259    0.352787
     31          1           0       -2.672431   -0.366676    0.994591
     32          1           0       -1.706572    0.815255   -1.661661
     33          1           0       -3.329644    1.159202   -2.270599
     34          1           0       -2.339924    1.787584    0.582763
     35          1           0       -2.663232    2.944428   -0.718015
     36          1           0       -3.999229    2.023673    0.001916
     37          1           0        0.010682    2.896813    0.283874
     38          1           0        0.620196    2.510235    1.740730
 ---------------------------------------------------------------------

 SCF Done:  E(UB3LYP) =  -713.709674554     A.U. after   32 cycles

 The electronic state is 2-A.
 Alpha  occ. eigenvalues --  -19.08016 -19.03219 -19.02519 -14.21082 -10.21188
 Alpha  occ. eigenvalues --  -10.14592 -10.12591 -10.12226 -10.12094 -10.08017
 Alpha  occ. eigenvalues --  -10.07445 -10.07381 -10.07179 -10.06830 -10.06439
 Alpha  occ. eigenvalues --   -1.01862  -0.94386  -0.93310  -0.80824  -0.71418
 Alpha  occ. eigenvalues --   -0.70595  -0.66455  -0.64974  -0.60061  -0.60004
 Alpha  occ. eigenvalues --   -0.56761  -0.53129  -0.51063  -0.47615  -0.44743
 Alpha  occ. eigenvalues --   -0.42576  -0.41916  -0.40662  -0.39451  -0.38920
 Alpha  occ. eigenvalues --   -0.37960  -0.36654  -0.36207  -0.35070  -0.33565
 Alpha  occ. eigenvalues --   -0.33218  -0.32312  -0.31437  -0.31016  -0.30243
 Alpha  occ. eigenvalues --   -0.29727  -0.28480  -0.28229  -0.27966  -0.27504
 Alpha  occ. eigenvalues --   -0.26335  -0.25273  -0.23725  -0.23498  -0.23223
 Alpha  occ. eigenvalues --   -0.22848  -0.21506  -0.19471  -0.16757  -0.16289
 Alpha  occ. eigenvalues --    0.04228
 Alpha virt. eigenvalues --    0.06004   0.06323   0.07359   0.07694   0.08170
 Alpha virt. eigenvalues --    0.08628   0.08747   0.09455   0.09712   0.10313
 Alpha virt. eigenvalues --    0.10802   0.11124   0.11516   0.12135   0.12347

  Beta  occ. eigenvalues --  -19.08016 -19.03216 -19.02512 -14.21063 -10.21187
  Beta  occ. eigenvalues --  -10.14582 -10.12579 -10.12209 -10.12083 -10.08010
  Beta  occ. eigenvalues --  -10.07432 -10.07346 -10.07150 -10.06812 -10.06413
  Beta  occ. eigenvalues --   -1.01855  -0.94375  -0.93300  -0.80794  -0.71389
  Beta  occ. eigenvalues --   -0.70567  -0.66419  -0.64939  -0.60014  -0.59965
  Beta  occ. eigenvalues --   -0.56718  -0.53081  -0.51014  -0.47568  -0.44715
  Beta  occ. eigenvalues --   -0.42547  -0.41888  -0.40635  -0.39429  -0.38894
  Beta  occ. eigenvalues --   -0.37937  -0.36619  -0.36178  -0.35039  -0.33537
  Beta  occ. eigenvalues --   -0.33188  -0.32282  -0.31398  -0.30989  -0.30207
  Beta  occ. eigenvalues --   -0.29692  -0.28444  -0.28198  -0.27942  -0.27474
  Beta  occ. eigenvalues --   -0.26309  -0.25245  -0.23703  -0.23482  -0.23192
  Beta  occ. eigenvalues --   -0.22819  -0.21488  -0.19457  -0.16741  -0.16272
  Beta virt. eigenvalues --    0.06278   0.06803   0.07191   0.07650   0.07843
  Beta virt. eigenvalues --    0.08607   0.08874   0.09116   0.09807   0.10064
  Beta virt. eigenvalues --    0.10698   0.11100   0.11471   0.11729   0.12288

 Mulliken charges and spin densities:
               1          2
     1  C    0.866433  -1.523840
     2  C   -0.540448   0.328426
     3  C   -0.014907  -0.097701
     4  C   -0.276109   0.127908
     5  C    1.293273  -1.811414
     6  C   -1.297122   0.487232
     7  O   -0.179487   0.033551
     8  O    0.151055   0.006382
     9  C   -0.521406   0.830931
    10  C    1.296343  -1.781785
    11  C   -0.271190  -0.386565
    12  O   -0.084288   0.003285
    13  C   -0.331805   0.071577
    14  C    0.503099  -0.923754
    15  N   -0.257152   0.120163
    16  H   -0.076490   0.210929
    17  H   -0.243172   0.385151
    18  H   -0.044788   0.179081
    19  H    0.208689  -0.021658
    20  H   -0.527456   0.684198
    21  H    0.323391  -0.180037
    22  H   -0.223097   0.405749
    23  H    0.084769   0.072580
    24  H    0.184973   0.028689
    25  H    0.050314   0.237269
    26  H   -0.320599   0.541180
    27  H   -0.008330   0.192588
    28  H   -0.414909   0.580128
    29  H   -0.185807   0.335702
    30  H   -0.190344   0.367590
    31  H    0.164733   0.059275
    32  H    0.131770  -0.002317
    33  H   -0.413151   0.619232
    34  H    0.047754   0.146899
    35  H   -0.246564   0.381844
    36  H    0.064981   0.089079
    37  H    0.094258   0.144884
    38  H    0.202785   0.057566
 Sum of Mulliken charges =  -1.00000   1.00000

 Dipole moment (field-independent basis, Debye):
    X=             -0.5064    Y=              2.2224    Z=              3.1570  Tot=              3.8939
 Quadrupole moment (field-independent basis, Debye-Ang):
   XX=           -169.8922   YY=           -155.6625   ZZ=           -135.2512
   XY=              3.1335   XZ=              2.7056   YZ=              1.8428

 Summary of Natural Population Analysis:

                                       Natural Population
                Natural  -----------------------------------------------
    Atom  No    Charge         Core      Valence    Rydberg      Total
 -----------------------------------------------------------------------
      C    1   -0.28616      0.99967     2.28214    0.00435     3.28616
      C    2   -0.19525      0.99964     2.18728    0.00834     3.19525
      C    3   -0.19173      0.99962     2.18306    0.00905     3.19173
      C    4   -0.18816      0.99961     2.18013    0.00842     3.18816
      C    5   -0.05871      0.99955     2.04629    0.01287     3.05871
      C    6    0.40847      0.99965     1.56414    0.02774     2.59153
      O    7   -0.31885      0.99987     3.31342    0.00556     4.31885
      O    8   -0.28532      0.99986     3.27557    0.00989     4.28532
      C    9    0.04918      0.99953     1.93725    0.01405     2.95082
      C   10   -0.30216      0.99964     2.29607    0.00645     3.30216
      C   11   -0.02520      0.99952     2.01311    0.01258     3.02520
      O   12   -0.30139      0.99989     3.29174    0.00976     4.30139
      C   13   -0.01213      0.99958     2.00042    0.01213     3.01213
      C   14   -0.30727      0.99966     2.30200    0.00561     3.30727
      N   15   -0.41187      0.99978     2.90248    0.00961     3.91187
      H   16    0.09517      0.00000     0.40361    0.00122     0.40483
      H   17    0.10034      0.00000     0.39854    0.00112     0.39966
      H   18    0.09405      0.00000     0.40476    0.00119     0.40595
      H   19    0.09917      0.00000     0.39903    0.00180     0.40083
      H   20    0.09773      0.00000     0.40073    0.00154     0.40227
      H   21    0.09781      0.00000     0.40071    0.00148     0.40219
      H   22    0.09655      0.00000     0.40251    0.00094     0.40345
      H   23    0.09986      0.00000     0.39899    0.00114     0.40014
      H   24    0.10411      0.00000     0.39459    0.00130     0.39589
      H   25    0.10373      0.00000     0.39401    0.00226     0.39627
      H   26    0.09867      0.00000     0.39967    0.00166     0.40133
      H   27    0.10941      0.00000     0.38955    0.00105     0.39059
      H   28    0.10602      0.00000     0.39238    0.00160     0.39398
      H   29    0.10630      0.00000     0.39228    0.00142     0.39370
      H   30    0.09578      0.00000     0.40283    0.00140     0.40422
      H   31    0.09368      0.00000     0.40487    0.00145     0.40632
      H   32    0.08271      0.00000     0.41546    0.00183     0.41729
      H   33    0.08855      0.00000     0.40996    0.00149     0.41145
      H   34    0.09986      0.00000     0.39881    0.00132     0.40014
      H   35    0.10324      0.00000     0.39532    0.00145     0.39676
      H   36    0.09977      0.00000     0.39920    0.00102     0.40023
      H   37    0.17691      0.00000     0.32127    0.00182     0.32309
      H   38    0.17713      0.00000     0.32091    0.00196     0.32287
 =======================================================================
   * Total *   -0.00000     14.99506    44.81509    0.18985    60.00000

 Normal termination of Gaussian 16 at Thu Dec 10 17:48:54 2020.
