 Gaussian 16, Revision A.03,

 -----------------------------------------------------------
 # opt freq B3LYP/6-31G(d) empiricaldispersion=gd3bj scf=xqc
 -----------------------------------------------------------

 ------------------------------
 CID_87992139_JID_1729_neutraal
 ------------------------------
 Symbolic Z-matrix:
 Charge =  0 Multiplicity = 1

 SCF Done:  E(RB3LYP) =  -611.908425901     A.U. after   13 cycles
 SCF Done:  E(RB3LYP) =  -611.917106317     A.U. after   11 cycles
 SCF Done:  E(RB3LYP) =  -611.917731470     A.U. after   11 cycles
 SCF Done:  E(RB3LYP) =  -611.918958794     A.U. after   11 cycles
 SCF Done:  E(RB3LYP) =  -611.919523885     A.U. after   11 cycles
 SCF Done:  E(RB3LYP) =  -611.919305940     A.U. after   11 cycles
 SCF Done:  E(RB3LYP) =  -611.920111353     A.U. after   11 cycles
 SCF Done:  E(RB3LYP) =  -611.920303409     A.U. after   10 cycles
 SCF Done:  E(RB3LYP) =  -611.920361974     A.U. after   10 cycles
 SCF Done:  E(RB3LYP) =  -611.920415519     A.U. after   10 cycles
 SCF Done:  E(RB3LYP) =  -611.920905883     A.U. after   10 cycles
 SCF Done:  E(RB3LYP) =  -611.920915301     A.U. after    9 cycles
 SCF Done:  E(RB3LYP) =  -611.920918112     A.U. after    9 cycles
 SCF Done:  E(RB3LYP) =  -611.920918868     A.U. after    8 cycles
 SCF Done:  E(RB3LYP) =  -611.920918983     A.U. after    7 cycles
 SCF Done:  E(RB3LYP) =  -611.920919094     A.U. after    7 cycles
 Optimization completed.
    -- Stationary point found.

 1\1\GINC-NODE103\FOpt\RB3LYP\6-31G(d)\C6H12O5\VSC10255\08-Dec-2020\0\\
 # opt freq B3LYP/6-31G(d) empiricaldispersion=gd3bj scf=xqc\\CID_87992
 139_JID_1729_neutraal\\0,1\C,0.9125646738,0.0847460908,0.0629490455\C,
 0.7428100084,0.7020472143,1.4568322573\C,0.2263570731,2.0697702577,1.7
 147672369\O,-0.6121717965,0.9295041673,1.9406596488\C,0.6433442923,2.8
 658426154,2.9368413903\O,1.7636862621,3.6546203828,2.5122231267\C,-0.1
 838869654,2.9912599743,0.5691936287\O,0.9383646999,3.3639063256,-0.233
 4168524\C,1.5898056556,-0.0389269552,2.4822516931\O,1.1948599948,-1.40

 Normal termination of Gaussian 16 at Tue Dec  8 21:03:01 2020.

 --------------------------------------------------------------------
 #N Geom=AllCheck Guess=TCheck SCRF=Check GenChk RB3LYP/6-31G(d) Freq
 --------------------------------------------------------------------

 Structure from the checkpoint file:  "JID_1729.chk"
 ------------------------------
 CID_87992139_JID_1729_neutraal
 ------------------------------
 Charge =  0 Multiplicity = 1

 SCF Done:  E(RB3LYP) =  -611.920919094     A.U. after    1 cycles

  Exact polarizability:  88.790  -4.381  76.189   2.271  -0.770  67.977
 Approx polarizability: 118.018  -5.370 101.796  -0.774  -1.883 108.007

                      1                      2                      3
                      A                      A                      A
 Frequencies --     43.4923                71.7703                88.7048
 Red. masses --      3.6396                 4.6466                 4.7504
 Frc consts  --      0.0041                 0.0141                 0.0220
 IR Inten    --      6.1126                 1.2190                 2.4743

                      4                      5                      6
                      A                      A                      A
 Frequencies --    121.1410               193.8504               206.4040
 Red. masses --      2.4876                 4.9672                 6.7640
 Frc consts  --      0.0215                 0.1100                 0.1698
 IR Inten    --      1.2285                 2.2362                10.1989

                      7                      8                      9
                      A                      A                      A
 Frequencies --    230.4483               266.3911               271.6380
 Red. masses --      4.0091                 1.6834                 2.4355
 Frc consts  --      0.1254                 0.0704                 0.1059
 IR Inten    --      3.2676                54.1124                33.3913

                     10                     11                     12
                      A                      A                      A
 Frequencies --    299.7812               350.0059               384.6828
 Red. masses --      2.5580                 2.2538                 2.8565
 Frc consts  --      0.1354                 0.1627                 0.2491
 IR Inten    --     11.1792                11.7833                 3.7984

                     13                     14                     15
                      A                      A                      A
 Frequencies --    424.4546               452.6790               464.8970
 Red. masses --      4.1270                 1.4462                 2.4990
 Frc consts  --      0.4381                 0.1746                 0.3182
 IR Inten    --     27.3204               101.1118                12.9357

                     16                     17                     18
                      A                      A                      A
 Frequencies --    494.2131               545.5929               580.0671
 Red. masses --      3.2202                 4.2847                 1.2808
 Frc consts  --      0.4634                 0.7515                 0.2539
 IR Inten    --      5.9410                17.1780                92.2108

                     19                     20                     21
                      A                      A                      A
 Frequencies --    631.9220               703.9279               776.9990
 Red. masses --      3.8768                 3.9673                 4.2398
 Frc consts  --      0.9121                 1.1583                 1.5081
 IR Inten    --     23.4503                 9.7885                60.6149

                     22                     23                     24
                      A                      A                      A
 Frequencies --    803.8433               905.0252               938.4324
 Red. masses --      1.1085                 2.1658                 1.7842
 Frc consts  --      0.4220                 1.0452                 0.9258
 IR Inten    --    200.0258                15.2122                 2.9145

                     25                     26                     27
                      A                      A                      A
 Frequencies --    958.7539              1007.2753              1046.7622
 Red. masses --      1.8666                 2.3150                 4.6559
 Frc consts  --      1.0109                 1.3839                 3.0057
 IR Inten    --     21.7607                87.7065                54.5727

                     28                     29                     30
                      A                      A                      A
 Frequencies --   1051.3594              1065.4300              1067.5940
 Red. masses --      2.7349                 4.5336                 4.8392
 Frc consts  --      1.7811                 3.0321                 3.2496
 IR Inten    --      9.8891                37.6718               108.7671

                     31                     32                     33
                      A                      A                      A
 Frequencies --   1118.3405              1123.5120              1166.4011
 Red. masses --      3.8513                 2.3416                 2.8282
 Frc consts  --      2.8380                 1.7415                 2.2670
 IR Inten    --     33.9977                53.0330                21.8408

                     34                     35                     36
                      A                      A                      A
 Frequencies --   1203.5048              1230.1791              1246.3725
 Red. masses --      1.4081                 1.2050                 1.3486
 Frc consts  --      1.2016                 1.0744                 1.2343
 IR Inten    --     45.9207                21.0691                10.3842

                     37                     38                     39
                      A                      A                      A
 Frequencies --   1265.2532              1282.1665              1293.2677
 Red. masses --      1.4927                 1.3300                 1.2928
 Frc consts  --      1.4079                 1.2883                 1.2740
 IR Inten    --      5.7932                25.8484                20.2945

                     40                     41                     42
                      A                      A                      A
 Frequencies --   1379.5009              1393.4573              1427.9673
 Red. masses --      1.3572                 1.2679                 1.4096
 Frc consts  --      1.5217                 1.4506                 1.6935
 IR Inten    --      9.5414                16.2400                 6.3245

                     43                     44                     45
                      A                      A                      A
 Frequencies --   1436.4776              1456.7498              1462.0199
 Red. masses --      1.2443                 1.3479                 1.3478
 Frc consts  --      1.5127                 1.6854                 1.6973
 IR Inten    --     62.7279                16.2711                70.7895

                     46                     47                     48
                      A                      A                      A
 Frequencies --   1480.4279              1501.2152              1517.5451
 Red. masses --      1.1913                 2.5901                 1.1730
 Frc consts  --      1.5383                 3.4392                 1.5916
 IR Inten    --     22.3478                 5.0794                 0.8771

                     49                     50                     51
                      A                      A                      A
 Frequencies --   1527.1192              1536.3151              1561.4445
 Red. masses --      1.0915                 1.0790                 1.0969
 Frc consts  --      1.4997                 1.5005                 1.5757
 IR Inten    --      0.8603                 2.9413                 8.2321

                     52                     53                     54
                      A                      A                      A
 Frequencies --   2992.1167              3020.2299              3029.8476
 Red. masses --      1.0727                 1.0707                 1.0708
 Frc consts  --      5.6580                 5.7544                 5.7918
 IR Inten    --     58.6906                 6.7700               102.3965

                     55                     56                     57
                      A                      A                      A
 Frequencies --   3061.4336              3102.3818              3118.7388
 Red. masses --      1.0662                 1.0907                 1.0956
 Frc consts  --      5.8874                 6.1849                 6.2788
 IR Inten    --     44.1578                51.7657                23.4147

                     58                     59                     60
                      A                      A                      A
 Frequencies --   3120.8772              3188.1386              3607.9141
 Red. masses --      1.0970                 1.0927                 1.0666
 Frc consts  --      6.2952                 6.5435                 8.1801
 IR Inten    --     32.9947                 2.5499               162.5238

                     61                     62                     63
                      A                      A                      A
 Frequencies --   3686.5961              3721.5343              3766.8991
 Red. masses --      1.0656                 1.0658                 1.0667
 Frc consts  --      8.5326                 8.6973                 8.9181
 IR Inten    --     72.2944                17.3736                29.6720

 - Thermochemistry -
 -------------------
 Temperature   298.150 Kelvin.  Pressure   1.00000 Atm.
 Atom     1 has atomic number  6 and mass  12.00000

 Molecular mass:   164.06847 amu.
 Principal axes and moments of inertia in atomic units:
                           1         2         3
     Eigenvalues --  1332.253271858.231292617.23271
           X            0.99953  -0.02787   0.01298
           Y            0.02791   0.99961  -0.00312
           Z           -0.01289   0.00348   0.99991
 This molecule is an asymmetric top.
 Rotational symmetry number  1.
 Warning -- assumption of classical behavior for rotation
           may cause significant error
 Rotational temperatures (Kelvin)      0.06501     0.04661     0.03309
 Rotational constants (GHZ):           1.35465     0.97121     0.68956
 Zero-point vibrational energy     505263.6 (Joules/Mol)
                                  120.76091 (Kcal/Mol)
 Warning -- explicit consideration of  18 degrees of freedom as
           vibrations may cause significant error
 Vibrational temperatures:     62.58   103.26   127.63   174.29   278.91
          (Kelvin)            296.97   331.56   383.28   390.83   431.32
                              503.58   553.47   610.70   651.30   668.88
                              711.06   784.99   834.59   909.19  1012.80
                             1117.93  1156.55  1302.13  1350.19  1379.43
                             1449.24  1506.06  1512.67  1532.92  1536.03
                             1609.04  1616.48  1678.19  1731.57  1769.95
                             1793.25  1820.42  1844.75  1860.72  1984.79
                             2004.87  2054.53  2066.77  2095.94  2103.52
                             2130.01  2159.91  2183.41  2197.18  2210.41
                             2246.57  4304.99  4345.44  4359.27  4404.72
                             4463.64  4487.17  4490.25  4587.02  5190.98
                             5304.19  5354.46  5419.73

 Zero-point correction=                           0.192445 (Hartree/Particle)
 Thermal correction to Energy=                    0.204349
 Thermal correction to Enthalpy=                  0.205293
 Thermal correction to Gibbs Free Energy=         0.154501
 Sum of electronic and zero-point Energies=           -611.728474
 Sum of electronic and thermal Energies=              -611.716570
 Sum of electronic and thermal Enthalpies=            -611.715626
 Sum of electronic and thermal Free Energies=         -611.766418

                     E (Thermal)             CV                S
                      KCal/Mol        Cal/Mol-Kelvin    Cal/Mol-Kelvin
 Total                  128.231             43.997            106.901
 Electronic               0.000              0.000              0.000
 Translational            0.889              2.981             41.194
 Rotational               0.889              2.981             30.250
 Vibrational            126.454             38.036             35.457
 Vibration     1          0.595              1.980              5.093
 Vibration     2          0.598              1.967              4.104
 Vibration     3          0.602              1.957              3.688
 Vibration     4          0.609              1.932              3.082
 Vibration     5          0.635              1.848              2.191
 Vibration     6          0.641              1.831              2.075
 Vibration     7          0.652              1.794              1.875
 Vibration     8          0.672              1.735              1.620
 Vibration     9          0.675              1.726              1.586
 Vibration    10          0.692              1.674              1.418
 Vibration    11          0.727              1.575              1.166
 Vibration    12          0.754              1.503              1.021
 Vibration    13          0.786              1.417              0.877
 Vibration    14          0.811              1.355              0.788
 Vibration    15          0.822              1.328              0.752
 Vibration    16          0.850              1.263              0.673
 Vibration    17          0.901              1.149              0.553
 Vibration    18          0.937              1.074              0.485

                           ! Non-Optimized Parameters !

 1\1\GINC-NODE103\Freq\RB3LYP\6-31G(d)\C6H12O5\VSC10255\08-Dec-2020\0\\
 #N Geom=AllCheck Guess=TCheck SCRF=Check GenChk RB3LYP/6-31G(d) Freq\\
 CID_87992139_JID_1729_neutraal\\0,1\C,0.9125646738,0.0847460908,0.0629
 490455\C,0.7428100084,0.7020472143,1.4568322573\C,0.2263570731,2.06977
 02577,1.7147672369\O,-0.6121717965,0.9295041673,1.9406596488\C,0.64334
 42923,2.8658426154,2.9368413903\O,1.7636862621,3.6546203828,2.51222312
 67\C,-0.1838869654,2.9912599743,0.5691936287\O,0.9383646999,3.36390632
 56,-0.2334168524\C,1.5898056556,-0.0389269552,2.4822516931\O,1.1948599

 Normal termination of Gaussian 16 at Tue Dec  8 21:08:11 2020.

 ----------------------------------------------------------------------
 # B3LYP/6-311++G(d,p) empiricaldispersion=gd3bj scf=xqc pop=npa geom=c
 heck
 ----------------------------------------------------------------------

 --------------------------------------
 CID_87992139_JID_1729_Energie_neutraal
 --------------------------------------
 Structure from the checkpoint file:  "JID_1729.chk"
 Charge =  0 Multiplicity = 1

 SCF Done:  E(RB3LYP) =  -612.139991143     A.U. after   13 cycles
 Normal termination of Gaussian 16 at Tue Dec  8 21:10:42 2020.

 ----------------------------------------------------------------------
 # B3LYP/6-311++G(d,p) empiricaldispersion=gd3bj scf=xqc pop=npa geom=c
 heck
 ----------------------------------------------------------------------

 ------------------------------------
 CID_87992139_JID_1729_Energie_kation
 ------------------------------------
 Structure from the checkpoint file:  "JID_1729.chk"
 Charge =  1 Multiplicity = 2

 SCF Done:  E(UB3LYP) =  -611.796698460     A.U. after   24 cycles
 Normal termination of Gaussian 16 at Tue Dec  8 21:16:21 2020.
 Gaussian 16:  ES64L-G16RevA.03 25-Dec-2016

 -----------------------------------
 CID_87992139_JID_1729_Energie_anion
 -----------------------------------
 Structure from the checkpoint file:  "JID_1729.chk"
 Charge = -1 Multiplicity = 2

                         Standard orientation:
 ---------------------------------------------------------------------
 Center     Atomic      Atomic             Coordinates (Angstroms)
 Number     Number       Type             X           Y           Z
 ---------------------------------------------------------------------
      1          6           0       -1.222274    1.425685   -0.397818
      2          6           0       -0.786198    0.014171    0.014799
      3          6           0        0.560412   -0.332843    0.534552
      4          8           0       -0.554837   -0.240824    1.430161
      5          6           0        1.165804   -1.709215    0.334110
      6          8           0        1.944751   -1.610394   -0.866353
      7          6           0        1.644842    0.728829    0.697788
      8          8           0        2.061587    1.253097   -0.564735
      9          6           0       -1.698648   -1.035473   -0.604566
     10          8           0       -3.038755   -0.841379   -0.167923
     11          8           0       -0.358340    2.496388   -0.107509
     12          1           0       -2.169330    1.633582    0.107011
     13          1           0       -1.445601    1.375569   -1.476339
     14          1           0        1.804879   -1.938572    1.199452
     15          1           0        0.410587   -2.496696    0.256747
     16          1           0        2.560854   -2.356929   -0.899664
     17          1           0        1.254164    1.560976    1.278797
     18          1           0        2.502519    0.292197    1.229472
     19          1           0        2.279256    0.475001   -1.109335
     20          1           0       -1.714415   -0.933361   -1.693725
     21          1           0       -1.358980   -2.049009   -0.365426
     22          1           0       -3.017536   -0.895237    0.802016
     23          1           0        0.474719    2.330444   -0.591325
 ---------------------------------------------------------------------

 SCF Done:  E(UB3LYP) =  -612.134771387     A.U. after   26 cycles

 The electronic state is 2-A.
 Alpha  occ. eigenvalues --  -19.04175 -19.03909 -19.02767 -19.01990 -19.01444
 Alpha  occ. eigenvalues --  -10.13779 -10.13713 -10.12695 -10.12640 -10.11552
 Alpha  occ. eigenvalues --  -10.11029  -0.98580  -0.93895  -0.93290  -0.92204
 Alpha  occ. eigenvalues --   -0.90983  -0.66290  -0.65298  -0.59198  -0.57315
 Alpha  occ. eigenvalues --   -0.51685  -0.47333  -0.43423  -0.42541  -0.41267
 Alpha  occ. eigenvalues --   -0.40137  -0.38075  -0.35849  -0.35020  -0.34835
 Alpha  occ. eigenvalues --   -0.33094  -0.32729  -0.31633  -0.29256  -0.26876
 Alpha  occ. eigenvalues --   -0.26233  -0.25467  -0.23930  -0.20959  -0.20460
 Alpha  occ. eigenvalues --   -0.19328  -0.17910  -0.16994  -0.16608   0.04836
 Alpha virt. eigenvalues --    0.07573   0.08526   0.09216   0.10133   0.10803
 Alpha virt. eigenvalues --    0.11011   0.11966   0.13161   0.13748   0.14444
 Alpha virt. eigenvalues --    0.14879   0.15607   0.16414   0.17076   0.17935

  Beta  occ. eigenvalues --  -19.04152 -19.03906 -19.02748 -19.01987 -19.01336
  Beta  occ. eigenvalues --  -10.13762 -10.13715 -10.12679 -10.12639 -10.11536
  Beta  occ. eigenvalues --  -10.10974  -0.98543  -0.93884  -0.93261  -0.92160
  Beta  occ. eigenvalues --   -0.90792  -0.66257  -0.65189  -0.59150  -0.57219
  Beta  occ. eigenvalues --   -0.51635  -0.47281  -0.43404  -0.42449  -0.41146
  Beta  occ. eigenvalues --   -0.40025  -0.38041  -0.35798  -0.35001  -0.34811
  Beta  occ. eigenvalues --   -0.33051  -0.32682  -0.31607  -0.29201  -0.26796
  Beta  occ. eigenvalues --   -0.26192  -0.25439  -0.23873  -0.20923  -0.20409
  Beta  occ. eigenvalues --   -0.19308  -0.17869  -0.16909  -0.16589
  Beta virt. eigenvalues --    0.07447   0.08449   0.09047   0.09616   0.10769
  Beta virt. eigenvalues --    0.11422   0.11599   0.12127   0.13459   0.14147
  Beta virt. eigenvalues --    0.14885   0.15380   0.15798   0.16646   0.17285

 Mulliken charges and spin densities:
               1          2
     1  C   -0.136520  -0.042136
     2  C    0.069315  -0.002277
     3  C   -1.556905   1.512327
     4  O   -0.084944   0.016795
     5  C    2.366431  -2.635420
     6  O   -0.434055   0.133476
     7  C    0.180411  -0.865784
     8  O   -0.245721  -0.010180
     9  C    0.198382  -0.555834
    10  O   -0.234644   0.024025
    11  O   -0.248481  -0.001911
    12  H    0.189312  -0.019799
    13  H    0.110990   0.075711
    14  H   -0.685261   0.863691
    15  H   -0.387053   0.521763
    16  H   -0.689357   1.012679
    17  H    0.196628   0.040373
    18  H   -0.238657   0.422109
    19  H    0.201157   0.075955
    20  H    0.030940   0.124850
    21  H   -0.066989   0.257554
    22  H    0.220001   0.027443
    23  H    0.245018   0.024590
 Sum of Mulliken charges =  -1.00000   1.00000

 Dipole moment (field-independent basis, Debye):
    X=             -7.3187    Y=              6.8547    Z=              1.1681  Tot=             10.0953
 Quadrupole moment (field-independent basis, Debye-Ang):
   XX=           -118.8853   YY=           -121.2031   ZZ=            -89.4433
   XY=             19.9133   XZ=              1.3086   YZ=             -5.0607

 Summary of Natural Population Analysis:

                                       Natural Population
                Natural  -----------------------------------------------
    Atom  No    Charge         Core      Valence    Rydberg      Total
 -----------------------------------------------------------------------
      C    1   -0.01618      0.99954     2.00392    0.01272     3.01618
      C    2    0.09311      0.99946     1.89087    0.01656     2.90689
      C    3    0.09948      0.99944     1.88408    0.01699     2.90052
      O    4   -0.29062      0.99991     3.28414    0.00657     4.29062
      C    5   -0.01399      0.99954     2.00052    0.01393     3.01399
      O    6   -0.39203      0.99989     3.38488    0.00726     4.39203
      C    7   -0.02622      0.99954     2.01262    0.01405     3.02622
      O    8   -0.38645      0.99989     3.38036    0.00619     4.38645
      C    9   -0.01829      0.99955     2.00505    0.01369     3.01829
      O   10   -0.37001      0.99990     3.36350    0.00661     4.37001
      O   11   -0.37619      0.99990     3.36949    0.00680     4.37619
      H   12    0.09282      0.00000     0.40588    0.00129     0.40718
      H   13    0.07983      0.00000     0.41888    0.00129     0.42017
      H   14    0.08854      0.00000     0.40763    0.00382     0.41146
      H   15    0.08501      0.00000     0.41237    0.00263     0.41499
      H   16    0.26039      0.00000     0.17357    0.06604     0.23961
      H   17    0.10161      0.00000     0.39695    0.00144     0.39839
      H   18    0.08843      0.00000     0.41043    0.00114     0.41157
      H   19    0.24895      0.00000     0.24737    0.00368     0.25105
      H   20    0.09140      0.00000     0.40740    0.00120     0.40860
      H   21    0.08953      0.00000     0.40896    0.00151     0.41047
      H   22    0.22864      0.00000     0.26862    0.00274     0.27136
      H   23    0.24221      0.00000     0.25442    0.00337     0.25779
 =======================================================================
   * Total *    0.00000     10.99656    32.79192    0.21152    44.00000

 Normal termination of Gaussian 16 at Tue Dec  8 21:23:33 2020.
