 Gaussian 16, Revision A.03,

 -----------------------------------------------------------
 # opt freq B3LYP/6-31G(d) empiricaldispersion=gd3bj scf=xqc
 -----------------------------------------------------------

 ------------------------------
 CID_61308660_JID_4963_neutraal
 ------------------------------
 Symbolic Z-matrix:
 Charge =  0 Multiplicity = 1

 SCF Done:  E(RB3LYP) =  -993.548046507     A.U. after   15 cycles
 SCF Done:  E(RB3LYP) =  -993.552577355     A.U. after   12 cycles
 SCF Done:  E(RB3LYP) =  -993.552998091     A.U. after   11 cycles
 SCF Done:  E(RB3LYP) =  -993.553032657     A.U. after   12 cycles
 SCF Done:  E(RB3LYP) =  -993.553076269     A.U. after   11 cycles
 SCF Done:  E(RB3LYP) =  -993.553154092     A.U. after   11 cycles
 SCF Done:  E(RB3LYP) =  -993.553254670     A.U. after   10 cycles
 SCF Done:  E(RB3LYP) =  -993.535702119     A.U. after   13 cycles
 SCF Done:  E(RB3LYP) =  -993.553599964     A.U. after   12 cycles
 SCF Done:  E(RB3LYP) =  -993.540280538     A.U. after   13 cycles
 SCF Done:  E(RB3LYP) =  -993.556146233     A.U. after   10 cycles
 SCF Done:  E(RB3LYP) =  -993.556149505     A.U. after    8 cycles
 SCF Done:  E(RB3LYP) =  -993.556150297     A.U. after    8 cycles
 SCF Done:  E(RB3LYP) =  -993.556150494     A.U. after    8 cycles
 SCF Done:  E(RB3LYP) =  -993.556150538     A.U. after    7 cycles
 Optimization completed.
    -- Stationary point found.
 Normal termination of Gaussian 16 at Thu Dec 10 11:03:08 2020.

 --------------------------------------------------------------------
 #N Geom=AllCheck Guess=TCheck SCRF=Check GenChk RB3LYP/6-31G(d) Freq
 --------------------------------------------------------------------

 Structure from the checkpoint file:  "JID_4963.chk"
 ------------------------------
 CID_61308660_JID_4963_neutraal
 ------------------------------
 Charge =  0 Multiplicity = 1

 SCF Done:  E(RB3LYP) =  -993.556150538     A.U. after    1 cycles

  Exact polarizability: 194.160   2.514 137.804  -0.369  -0.592  83.814
 Approx polarizability: 257.716   8.640 245.417  -0.168   0.611 122.748

                      1                      2                      3
                      A                      A                      A
 Frequencies --     38.9301                44.5622                53.6168
 Red. masses --      2.9228                 3.1963                 1.1696
 Frc consts  --      0.0026                 0.0037                 0.0020
 IR Inten    --      0.6701                 1.1333                 1.6477

                      4                      5                      6
                      A                      A                      A
 Frequencies --     81.5951               121.9121               124.6407
 Red. masses --      4.3782                 3.6411                 5.8106
 Frc consts  --      0.0172                 0.0319                 0.0532
 IR Inten    --      1.0132                 0.2271                 0.3721

                      7                      8                      9
                      A                      A                      A
 Frequencies --    195.0879               210.6852               211.1313
 Red. masses --      1.9906                 1.1455                 3.3484
 Frc consts  --      0.0446                 0.0300                 0.0879
 IR Inten    --      8.2892                 0.0829                 4.8668

                     10                     11                     12
                      A                      A                      A
 Frequencies --    228.6600               239.0188               254.8184
 Red. masses --      3.4421                 1.6379                 1.0918
 Frc consts  --      0.1060                 0.0551                 0.0418
 IR Inten    --      0.9551                14.0405                 0.2504

                     13                     14                     15
                      A                      A                      A
 Frequencies --    265.1260               273.2761               294.6024
 Red. masses --      2.6399                 1.0764                 4.3965
 Frc consts  --      0.1093                 0.0474                 0.2248
 IR Inten    --      1.0537                 0.1109                 8.3295

                     16                     17                     18
                      A                      A                      A
 Frequencies --    324.5813               352.1341               367.6715
 Red. masses --      3.1841                 2.5289                 5.4588
 Frc consts  --      0.1976                 0.1848                 0.4348
 IR Inten    --      7.7663                 2.2273                 9.6545

                     19                     20                     21
                      A                      A                      A
 Frequencies --    416.4515               454.2196               457.8650
 Red. masses --      2.8535                 3.3015                 2.8344
 Frc consts  --      0.2916                 0.4013                 0.3501
 IR Inten    --      0.3096                 3.4267                 3.2579

                     22                     23                     24
                      A                      A                      A
 Frequencies --    484.8599               490.6615               548.1306
 Red. masses --      4.7398                 4.4661                 8.5114
 Frc consts  --      0.6565                 0.6335                 1.5067
 IR Inten    --      0.8391                 2.2316                 1.9968

                     25                     26                     27
                      A                      A                      A
 Frequencies --    628.9242               677.5096               724.7347
 Red. masses --      2.5805                 3.8237                 1.8509
 Frc consts  --      0.6014                 1.0341                 0.5728
 IR Inten    --     68.0377                 8.2658               195.1574

                     28                     29                     30
                      A                      A                      A
 Frequencies --    737.6813               748.1673               757.3876
 Red. masses --      5.2901                 7.1186                 4.3139
 Frc consts  --      1.6961                 2.3477                 1.4580
 IR Inten    --      1.5284                50.8805                28.5111

                     31                     32                     33
                      A                      A                      A
 Frequencies --    830.8963               857.5079               871.3450
 Red. masses --      5.7369                 1.5141                 3.4804
 Frc consts  --      2.3336                 0.6560                 1.5569
 IR Inten    --      0.5912                14.3704                18.0951

                     34                     35                     36
                      A                      A                      A
 Frequencies --    923.7668               938.1056               939.6554
 Red. masses --      2.1255                 1.6362                 1.6297
 Frc consts  --      1.0686                 0.8484                 0.8478
 IR Inten    --     13.8995                 0.0648                 0.0489

                     37                     38                     39
                      A                      A                      A
 Frequencies --    982.7622              1057.0819              1066.9419
 Red. masses --      1.1977                 1.3829                 1.4029
 Frc consts  --      0.6816                 0.9105                 0.9409
 IR Inten    --      0.2381                 0.4404                 0.2802

                     40                     41                     42
                      A                      A                      A
 Frequencies --   1068.7497              1087.0161              1098.6082
 Red. masses --      1.5617                 1.6769                 3.6778
 Frc consts  --      1.0510                 1.1674                 2.6153
 IR Inten    --     23.5069                69.7073               131.3991

                     43                     44                     45
                      A                      A                      A
 Frequencies --   1182.5897              1219.1236              1237.8360
 Red. masses --      2.5140                 2.3157                 3.1472
 Frc consts  --      2.0715                 2.0278                 2.8412
 IR Inten    --     68.0905               424.3496                 7.3862

                     46                     47                     48
                      A                      A                      A
 Frequencies --   1251.1406              1286.3535              1297.8127
 Red. masses --      1.5378                 2.7086                 2.8530
 Frc consts  --      1.4183                 2.6406                 2.8312
 IR Inten    --     27.5064                15.6692                56.2984

                     49                     50                     51
                      A                      A                      A
 Frequencies --   1332.7763              1423.8633              1426.9090
 Red. masses --      7.5929                 1.2802                 1.2910
 Frc consts  --      7.9465                 1.5292                 1.5487
 IR Inten    --    416.5239                17.1039                24.5115

                     52                     53                     54
                      A                      A                      A
 Frequencies --   1440.3323              1451.9087              1468.4809
 Red. masses --      1.3348                 1.2384                 3.6978
 Frc consts  --      1.6315                 1.5381                 4.6982
 IR Inten    --      3.1546                28.9360                89.1563

                     55                     56                     57
                      A                      A                      A
 Frequencies --   1500.0451              1508.6964              1518.3660
 Red. masses --      1.0468                 1.1382                 3.3267
 Frc consts  --      1.3878                 1.5264                 4.5187
 IR Inten    --      0.5320                22.1002               148.2844

                     58                     59                     60
                      A                      A                      A
 Frequencies --   1519.9627              1520.5264              1524.4419
 Red. masses --      1.0471                 1.0518                 1.0992
 Frc consts  --      1.4253                 1.4327                 1.5051
 IR Inten    --      0.5122                 0.4822                 7.3120

                     61                     62                     63
                      A                      A                      A
 Frequencies --   1525.3671              1535.1752              1556.9752
 Red. masses --      1.1569                 1.0524                 1.0563
 Frc consts  --      1.5860                 1.4613                 1.5087
 IR Inten    --     18.6516                 1.1013                16.2203

                     64                     65                     66
                      A                      A                      A
 Frequencies --   1634.9538              1694.6898              1771.8112
 Red. masses --      5.1129                 1.1696                11.7776
 Frc consts  --      8.0524                 1.9791                21.7842
 IR Inten    --     48.4782                75.9677               244.3473

                     67                     68                     69
                      A                      A                      A
 Frequencies --   3023.0567              3057.7220              3059.6279
 Red. masses --      1.0422                 1.0353                 1.0384
 Frc consts  --      5.6115                 5.7033                 5.7273
 IR Inten    --     46.0993                 9.1466                23.5592

                     70                     71                     72
                      A                      A                      A
 Frequencies --   3066.6112              3070.7100              3121.8450
 Red. masses --      1.0384                 1.0987                 1.1026
 Frc consts  --      5.7537                 6.1040                 6.3310
 IR Inten    --     25.4391                21.0165                 7.2589

                     73                     74                     75
                      A                      A                      A
 Frequencies --   3123.6453              3131.0183              3134.3278
 Red. masses --      1.1024                 1.0972                 1.1032
 Frc consts  --      6.3373                 6.3372                 6.3855
 IR Inten    --     18.3625                 8.0458                31.9076

                     76                     77                     78
                      A                      A                      A
 Frequencies --   3136.8374              3173.8872              3176.8101
 Red. masses --      1.1025                 1.0997                 1.0990
 Frc consts  --      6.3915                 6.5267                 6.5350
 IR Inten    --     53.3626                 0.7259                11.4700

                     79                     80                     81
                      A                      A                      A
 Frequencies --   3235.0751              3529.0491              3624.7574
 Red. masses --      1.0930                 1.0483                 1.0966
 Frc consts  --      6.7399                 7.6925                 8.4890
 IR Inten    --      1.6786                 4.4883                 6.3539

 - Thermochemistry -
 -------------------
 Temperature   298.150 Kelvin.  Pressure   1.00000 Atm.
 Atom     1 has atomic number  6 and mass  12.00000

 Molecular mass:   213.08235 amu.
 Principal axes and moments of inertia in atomic units:
                           1         2         3
     Eigenvalues --  1302.743935880.040956765.16911
           X            1.00000  -0.00158  -0.00135
           Y            0.00157   0.99998  -0.00663
           Z            0.00136   0.00663   0.99998
 This molecule is an asymmetric top.
 Rotational symmetry number  1.
 Warning -- assumption of classical behavior for rotation
           may cause significant error
 Rotational temperatures (Kelvin)      0.06649     0.01473     0.01280
 Rotational constants (GHZ):           1.38534     0.30693     0.26677
 Zero-point vibrational energy     628196.2 (Joules/Mol)
                                  150.14249 (Kcal/Mol)
 Warning -- explicit consideration of  24 degrees of freedom as
           vibrations may cause significant error
 Vibrational temperatures:     56.01    64.12    77.14   117.40   175.40
          (Kelvin)            179.33   280.69   303.13   303.77   328.99
                              343.89   366.63   381.46   393.18   423.87
                              467.00   506.64   529.00   599.18   653.52
                              658.77   697.61   705.95   788.64   904.88
                              974.79  1042.73  1061.36  1076.45  1089.71
                             1195.47  1233.76  1253.67  1329.09  1349.72
                             1351.95  1413.98  1520.91  1535.09  1537.69
                             1563.97  1580.65  1701.48  1754.05  1780.97
                             1800.11  1850.78  1867.26  1917.57  2048.62
                             2053.00  2072.32  2088.97  2112.82  2158.23
                             2170.68  2184.59  2186.89  2187.70  2193.33
                             2194.66  2208.77  2240.14  2352.33  2438.28
                             2549.24  4349.50  4399.38  4402.12  4412.17
                             4418.07  4491.64  4494.23  4504.84  4509.60
                             4513.21  4566.52  4570.72  4654.55  5077.51
                             5215.22

 Zero-point correction=                           0.239267 (Hartree/Particle)
 Thermal correction to Energy=                    0.255186
 Thermal correction to Enthalpy=                  0.256131
 Thermal correction to Gibbs Free Energy=         0.195786
 Sum of electronic and zero-point Energies=           -993.316883
 Sum of electronic and thermal Energies=              -993.300964
 Sum of electronic and thermal Enthalpies=            -993.300020
 Sum of electronic and thermal Free Energies=         -993.360364

                     E (Thermal)             CV                S
                      KCal/Mol        Cal/Mol-Kelvin    Cal/Mol-Kelvin
 Total                  160.132             58.472            127.006
 Electronic               0.000              0.000              0.000
 Translational            0.889              2.981             41.973
 Rotational               0.889              2.981             32.316
 Vibrational            158.354             52.511             52.717
 Vibration     1          0.594              1.981              5.313
 Vibration     2          0.595              1.980              5.045
 Vibration     3          0.596              1.976              4.679
 Vibration     4          0.600              1.962              3.852
 Vibration     5          0.609              1.931              3.070
 Vibration     6          0.610              1.928              3.027
 Vibration     7          0.636              1.847              2.179
 Vibration     8          0.643              1.825              2.038
 Vibration     9          0.643              1.824              2.034
 Vibration    10          0.651              1.797              1.889
 Vibration    11          0.657              1.781              1.810
 Vibration    12          0.665              1.755              1.697
 Vibration    13          0.671              1.737              1.628
 Vibration    14          0.676              1.723              1.575
 Vibration    15          0.689              1.684              1.447
 Vibration    16          0.709              1.626              1.287
 Vibration    17          0.729              1.571              1.157
 Vibration    18          0.740              1.539              1.089
 Vibration    19          0.780              1.435              0.904
 Vibration    20          0.813              1.352              0.783
 Vibration    21          0.816              1.343              0.772
 Vibration    22          0.841              1.284              0.697
 Vibration    23          0.846              1.271              0.682
 Vibration    24          0.903              1.144              0.548

                           ! Non-Optimized Parameters !
 Normal termination of Gaussian 16 at Thu Dec 10 11:10:27 2020.

 ----------------------------------------------------------------------
 # B3LYP/6-311++G(d,p) empiricaldispersion=gd3bj scf=xqc pop=npa geom=c
 heck
 ----------------------------------------------------------------------

 --------------------------------------
 CID_61308660_JID_4963_Energie_neutraal
 --------------------------------------
 Structure from the checkpoint file:  "JID_4963.chk"
 Charge =  0 Multiplicity = 1

 SCF Done:  E(RB3LYP) =  -993.756969859     A.U. after   15 cycles
 Normal termination of Gaussian 16 at Thu Dec 10 11:13:48 2020.

 ----------------------------------------------------------------------
 # B3LYP/6-311++G(d,p) empiricaldispersion=gd3bj scf=xqc pop=npa geom=c
 heck
 ----------------------------------------------------------------------

 ------------------------------------
 CID_61308660_JID_4963_Energie_kation
 ------------------------------------
 Structure from the checkpoint file:  "JID_4963.chk"
 Charge =  1 Multiplicity = 2

 SCF Done:  E(UB3LYP) =  -993.477388535     A.U. after   23 cycles
 Normal termination of Gaussian 16 at Thu Dec 10 11:20:15 2020.
 Gaussian 16:  ES64L-G16RevA.03 25-Dec-2016

 ----------------------------------------------------------------------
 # B3LYP/6-311++G(d,p) empiricaldispersion=gd3bj scf=xqc pop=npa geom=c
 heck
 ----------------------------------------------------------------------

 -----------------------------------
 CID_61308660_JID_4963_Energie_anion
 -----------------------------------
 Structure from the checkpoint file:  "JID_4963.chk"
 Charge = -1 Multiplicity = 2

                         Standard orientation:
 ---------------------------------------------------------------------
 Center     Atomic      Atomic             Coordinates (Angstroms)
 Number     Number       Type             X           Y           Z
 ---------------------------------------------------------------------
      1          6           0        4.504127   -0.586061    0.010461
      2          6           0        3.051465   -0.222070   -0.003916
      3          6           0        2.523601    1.056649    0.006929
      4          6           0        1.099538    1.058355    0.008949
      5          6           0        0.561554   -0.207200   -0.000301
      6         16           0        1.798665   -1.428973   -0.005136
      7          6           0       -0.845373   -0.620510   -0.004608
      8          8           0       -1.203959   -1.786362   -0.010342
      9          8           0       -1.660321    0.455491   -0.001955
     10          6           0       -3.122976    0.301209    0.001424
     11          6           0       -3.574340   -0.419284   -1.270773
     12          6           0       -3.567572   -0.426635    1.271779
     13          6           0       -3.609319    1.749997    0.007029
     14          7           0        3.298067    2.226165    0.081933
     15          1           0        5.042968   -0.112199   -0.822621
     16          1           0        4.651488   -1.665586   -0.082430
     17          1           0        4.988302   -0.261927    0.941197
     18          1           0        0.487648    1.952690    0.022331
     19          1           0       -3.222031   -1.451189   -1.283235
     20          1           0       -4.668684   -0.417078   -1.322528
     21          1           0       -3.189361    0.099012   -2.155456
     22          1           0       -3.177620    0.086369    2.157293
     23          1           0       -4.661634   -0.424611    1.329446
     24          1           0       -3.215531   -1.458697    1.276375
     25          1           0       -3.244403    2.274737    0.895618
     26          1           0       -3.249973    2.279835   -0.880875
     27          1           0       -4.703667    1.778605    0.010421
     28          1           0        4.234946    2.113256   -0.289517
     29          1           0        2.852448    3.027473   -0.350837
 ---------------------------------------------------------------------

 SCF Done:  E(UB3LYP) =  -993.754425478     A.U. after   33 cycles
 SCF Done:  E(UB3LYP) =  -993.754425478     a.u. after    1 cycles

 The electronic state is 2-A.
 Alpha  occ. eigenvalues --  -88.72739 -19.02738 -18.95500 -14.19227 -10.14726
 Alpha  occ. eigenvalues --  -10.13958 -10.07219 -10.06967 -10.06231 -10.06057
 Alpha  occ. eigenvalues --  -10.05900 -10.05282 -10.05017 -10.02856  -7.81366
 Alpha  occ. eigenvalues --   -5.77665  -5.77311  -5.76949  -0.96378  -0.87621
 Alpha  occ. eigenvalues --   -0.79230  -0.72791  -0.70944  -0.63820  -0.59983
 Alpha  occ. eigenvalues --   -0.59704  -0.58278  -0.56784  -0.51012  -0.45361
 Alpha  occ. eigenvalues --   -0.41706  -0.40739  -0.38151  -0.36620  -0.36180
 Alpha  occ. eigenvalues --   -0.35512  -0.33624  -0.32294  -0.31599  -0.30919
 Alpha  occ. eigenvalues --   -0.30668  -0.30227  -0.29326  -0.28322  -0.27358
 Alpha  occ. eigenvalues --   -0.25621  -0.25304  -0.24774  -0.23984  -0.23497
 Alpha  occ. eigenvalues --   -0.22000  -0.20643  -0.18459  -0.17517  -0.13704
 Alpha  occ. eigenvalues --   -0.10870  -0.07317   0.04718
 Alpha virt. eigenvalues --    0.06568   0.06949   0.08484   0.09126   0.09306
 Alpha virt. eigenvalues --    0.09892   0.10962   0.11540   0.11878   0.12383
 Alpha virt. eigenvalues --    0.12799   0.13321   0.13480   0.13848   0.14856

  Beta  occ. eigenvalues --  -88.72707 -19.02686 -18.95286 -14.19190 -10.14514
  Beta  occ. eigenvalues --  -10.13960 -10.07297 -10.06961 -10.06229 -10.06047
  Beta  occ. eigenvalues --  -10.05896 -10.05071 -10.04910 -10.02641  -7.81338
  Beta  occ. eigenvalues --   -5.77653  -5.77299  -5.76843  -0.96159  -0.87292
  Beta  occ. eigenvalues --   -0.79144  -0.72576  -0.70891  -0.63541  -0.59970
  Beta  occ. eigenvalues --   -0.59690  -0.58011  -0.56502  -0.50828  -0.45073
  Beta  occ. eigenvalues --   -0.41580  -0.40665  -0.37981  -0.36458  -0.36059
  Beta  occ. eigenvalues --   -0.35426  -0.33440  -0.31894  -0.31465  -0.30703
  Beta  occ. eigenvalues --   -0.30599  -0.30133  -0.29254  -0.27954  -0.27296
  Beta  occ. eigenvalues --   -0.25523  -0.25073  -0.24688  -0.23792  -0.23261
  Beta  occ. eigenvalues --   -0.21887  -0.20442  -0.18187  -0.16779  -0.13496
  Beta  occ. eigenvalues --   -0.09708  -0.06561
  Beta virt. eigenvalues --    0.06495   0.07557   0.08703   0.08911   0.09422
  Beta virt. eigenvalues --    0.09721   0.09915   0.11385   0.11485   0.12006
  Beta virt. eigenvalues --    0.12269   0.12836   0.13216   0.13468   0.14142

 Mulliken charges and spin densities:
               1          2
     1  C    0.517477  -1.226290
     2  C   -0.488603   0.837708
     3  C   -0.162401  -0.028842
     4  C    0.097588   0.144490
     5  C    0.562320  -0.282424
     6  S   -0.527119   0.017276
     7  C   -0.162057   0.007127
     8  O   -0.313860   0.074859
     9  O    0.130951   0.009426
    10  C   -0.206243   0.106496
    11  C   -0.245273  -0.124066
    12  C   -0.320286  -0.038654
    13  C   -0.266674  -0.163496
    14  N   -0.290726  -0.059247
    15  H   -0.279053   0.429169
    16  H    0.043266   0.094043
    17  H    0.080651   0.076511
    18  H    0.027480   0.114927
    19  H    0.135215   0.044980
    20  H    0.099218   0.038695
    21  H    0.103131   0.034292
    22  H    0.131287   0.000852
    23  H    0.135142   0.003174
    24  H    0.183677  -0.004531
    25  H    0.134490   0.018136
    26  H    0.051498   0.107336
    27  H    0.094606   0.023073
    28  H   -0.071138   0.312604
    29  H   -0.194564   0.432377
 Sum of Mulliken charges =  -1.00000   1.00000

 Dipole moment (field-independent basis, Debye):
    X=             -6.7502    Y=             -0.4634    Z=              1.5211  Tot=              6.9350
 Quadrupole moment (field-independent basis, Debye-Ang):
   XX=           -145.2511   YY=           -125.3868   ZZ=           -108.7864
   XY=            -13.2687   XZ=              3.4595   YZ=              1.2819

 Summary of Natural Population Analysis:

                                       Natural Population
                Natural  -----------------------------------------------
    Atom  No    Charge         Core      Valence    Rydberg      Total
 -----------------------------------------------------------------------
      C    1   -0.30211      0.99962     2.29544    0.00705     3.30211
      C    2   -0.09272      0.99946     2.08069    0.01257     3.09272
      C    3    0.03291      0.99938     1.95512    0.01259     2.96709
      C    4   -0.07233      0.99945     2.06237    0.01050     3.07233
      C    5   -0.13614      0.99945     2.12487    0.01182     3.13614
      S    6    0.22207      4.99940     2.75725    0.02128     7.77793
      C    7    0.41067      0.99956     1.56343    0.02634     2.58933
      O    8   -0.31000      0.99988     3.30573    0.00440     4.31000
      O    9   -0.29415      0.99985     3.28456    0.00974     4.29415
      C   10    0.13302      0.99955     1.85383    0.01361     2.86698
      C   11   -0.30100      0.99960     2.29584    0.00555     3.30100
      C   12   -0.30055      0.99961     2.29574    0.00520     3.30055
      C   13   -0.28761      0.99961     2.28203    0.00597     3.28761
      N   14   -0.40555      0.99972     2.89476    0.01107     3.90555
      H   15    0.10315      0.00000     0.39454    0.00231     0.39685
      H   16    0.10306      0.00000     0.39628    0.00066     0.39694
      H   17    0.10107      0.00000     0.39774    0.00120     0.39893
      H   18    0.10440      0.00000     0.39450    0.00110     0.39560
      H   19    0.11803      0.00000     0.38092    0.00104     0.38197
      H   20    0.09359      0.00000     0.40546    0.00095     0.40641
      H   21    0.10188      0.00000     0.39709    0.00103     0.39812
      H   22    0.10071      0.00000     0.39844    0.00085     0.39929
      H   23    0.09339      0.00000     0.40573    0.00088     0.40661
      H   24    0.11791      0.00000     0.38121    0.00088     0.38209
      H   25    0.10265      0.00000     0.39644    0.00091     0.39735
      H   26    0.10424      0.00000     0.39473    0.00103     0.39576
      H   27    0.09440      0.00000     0.40478    0.00082     0.40560
      H   28    0.18202      0.00000     0.31588    0.00210     0.31798
      H   29    0.18300      0.00000     0.31448    0.00252     0.31700
 =======================================================================
   * Total *    0.00000     17.99414    38.82989    0.17597    57.00000

 Normal termination of Gaussian 16 at Thu Dec 10 11:29:02 2020.
