 Gaussian 16, Revision A.03,

 -----------------------------------------------------------
 # opt freq B3LYP/6-31G(d) empiricaldispersion=gd3bj scf=xqc
 -----------------------------------------------------------

 -------------------------------
 CID_105004982_JID_7192_neutraal
 -------------------------------
 Symbolic Z-matrix:
 Charge =  0 Multiplicity = 1

 SCF Done:  E(RB3LYP) =  -716.668510832     A.U. after   14 cycles
 SCF Done:  E(RB3LYP) =  -716.674046458     A.U. after   12 cycles
 SCF Done:  E(RB3LYP) =  -716.674724787     A.U. after   12 cycles
 SCF Done:  E(RB3LYP) =  -716.675337126     A.U. after   11 cycles
 SCF Done:  E(RB3LYP) =  -716.675697983     A.U. after   11 cycles
 SCF Done:  E(RB3LYP) =  -716.676240789     A.U. after   12 cycles
 SCF Done:  E(RB3LYP) =  -716.676532207     A.U. after   11 cycles
 SCF Done:  E(RB3LYP) =  -716.677051820     A.U. after   11 cycles
 SCF Done:  E(RB3LYP) =  -716.677202924     A.U. after   10 cycles
 SCF Done:  E(RB3LYP) =  -716.677290698     A.U. after   10 cycles
 SCF Done:  E(RB3LYP) =  -716.677516704     A.U. after    8 cycles
 SCF Done:  E(RB3LYP) =  -716.677516963     A.U. after    7 cycles
 SCF Done:  E(RB3LYP) =  -716.677517214     A.U. after    8 cycles
 SCF Done:  E(RB3LYP) =  -716.677517301     A.U. after    7 cycles
 SCF Done:  E(RB3LYP) =  -716.677517330     A.U. after    6 cycles
 Optimization completed.
    -- Stationary point found.
 Normal termination of Gaussian 16 at Sun Dec 13 16:20:06 2020.

 --------------------------------------------------------------------
 #N Geom=AllCheck Guess=TCheck SCRF=Check GenChk RB3LYP/6-31G(d) Freq
 --------------------------------------------------------------------

 Structure from the checkpoint file:  "JID_7192.chk"
 -------------------------------
 CID_105004982_JID_7192_neutraal
 -------------------------------
 Charge =  0 Multiplicity = 1

 SCF Done:  E(RB3LYP) =  -716.677517330     A.U. after    1 cycles

  Exact polarizability: 187.341   0.101 170.049   1.404  -6.470 142.687
 Approx polarizability: 236.884  -4.379 242.543   6.759 -14.818 228.469

                      1                      2                      3
                      A                      A                      A
 Frequencies --     25.3282                28.8984                40.5861
 Red. masses --      3.4687                 2.9846                 2.4718
 Frc consts  --      0.0013                 0.0015                 0.0024
 IR Inten    --      0.0278                 0.1113                 0.2053

                      4                      5                      6
                      A                      A                      A
 Frequencies --     60.0236                76.7631                91.7434
 Red. masses --      3.2260                 2.6274                 2.6161
 Frc consts  --      0.0068                 0.0091                 0.0130
 IR Inten    --      0.3387                 0.1118                 0.2188

                      7                      8                      9
                      A                      A                      A
 Frequencies --    104.9871               114.6423               127.2758
 Red. masses --      1.1055                 2.0249                 1.6436
 Frc consts  --      0.0072                 0.0157                 0.0157
 IR Inten    --      0.0267                 0.1498                 0.8546

                     10                     11                     12
                      A                      A                      A
 Frequencies --    151.9923               165.1935               172.3400
 Red. masses --      1.4608                 1.1650                 1.1351
 Frc consts  --      0.0199                 0.0187                 0.0199
 IR Inten    --      0.1179                 0.0098                 0.2786

                     13                     14                     15
                      A                      A                      A
 Frequencies --    178.5143               195.6892               207.8919
 Red. masses --      2.7286                 1.2821                 1.7681
 Frc consts  --      0.0512                 0.0289                 0.0450
 IR Inten    --      3.5100                 1.8873                 0.3475

                     16                     17                     18
                      A                      A                      A
 Frequencies --    227.4287               264.8140               270.7281
 Red. masses --      2.1602                 2.0781                 2.1319
 Frc consts  --      0.0658                 0.0859                 0.0921
 IR Inten    --      1.1995                 1.9216                 0.5551

                     19                     20                     21
                      A                      A                      A
 Frequencies --    280.2319               294.7014               309.8508
 Red. masses --      2.5131                 3.1051                 2.8063
 Frc consts  --      0.1163                 0.1589                 0.1587
 IR Inten    --      0.2109                 1.2005                 3.1325

                     22                     23                     24
                      A                      A                      A
 Frequencies --    322.6904               332.0292               363.8277
 Red. masses --      3.2722                 2.9733                 3.6996
 Frc consts  --      0.2008                 0.1931                 0.2885
 IR Inten    --      1.3015                 0.3819                 1.4494

                     25                     26                     27
                      A                      A                      A
 Frequencies --    388.5413               407.8562               475.6446
 Red. masses --      2.4159                 2.4472                 2.5168
 Frc consts  --      0.2149                 0.2398                 0.3355
 IR Inten    --      1.2046                 2.1158                 1.3556

                     28                     29                     30
                      A                      A                      A
 Frequencies --    479.5622               570.2722               594.9282
 Red. masses --      2.4868                 2.8447                 3.9628
 Frc consts  --      0.3370                 0.5451                 0.8264
 IR Inten    --      2.4250                 0.0190                 1.6242

                     31                     32                     33
                      A                      A                      A
 Frequencies --    632.0888               637.7450               653.4601
 Red. masses --      5.1981                 4.1268                 4.0838
 Frc consts  --      1.2236                 0.9889                 1.0274
 IR Inten    --      0.1922                 2.2337                 4.7464

                     34                     35                     36
                      A                      A                      A
 Frequencies --    721.6286               745.3793               773.7672
 Red. masses --      3.4056                 3.0925                 1.4362
 Frc consts  --      1.0449                 1.0123                 0.5066
 IR Inten    --      6.5452                10.5570                 1.9565

                     37                     38                     39
                      A                      A                      A
 Frequencies --    827.8589               838.1419               850.8779
 Red. masses --      2.3720                 1.9309                 1.9212
 Frc consts  --      0.9578                 0.7992                 0.8195
 IR Inten    --     15.8957                25.7035                31.1478

                     40                     41                     42
                      A                      A                      A
 Frequencies --    873.9656               917.3358               928.8375
 Red. masses --      2.3355                 1.7954                 1.6777
 Frc consts  --      1.0510                 0.8901                 0.8528
 IR Inten    --      6.6229                 1.6574                12.7896

                     43                     44                     45
                      A                      A                      A
 Frequencies --    953.2306               976.1163               997.7756
 Red. masses --      1.9100                 1.4394                 2.0470
 Frc consts  --      1.0225                 0.8081                 1.2007
 IR Inten    --      7.0980                 2.6331                38.1990

                     46                     47                     48
                      A                      A                      A
 Frequencies --   1016.4056              1027.0309              1030.5655
 Red. masses --      1.6758                 1.2514                 1.5682
 Frc consts  --      1.0200                 0.7777                 0.9813
 IR Inten    --      5.6448                 3.7463                 2.8371

                     49                     50                     51
                      A                      A                      A
 Frequencies --   1062.7206              1072.8986              1081.3078
 Red. masses --      2.2606                 1.3927                 1.8088
 Frc consts  --      1.5042                 0.9446                 1.2460
 IR Inten    --     22.2997                 1.9685                 0.5573

                     52                     53                     54
                      A                      A                      A
 Frequencies --   1083.7183              1087.3328              1118.5100
 Red. masses --      1.7447                 1.4531                 1.8368
 Frc consts  --      1.2073                 1.0122                 1.3539
 IR Inten    --      0.9155                 2.8797                25.4198

                     55                     56                     57
                      A                      A                      A
 Frequencies --   1119.6200              1149.6761              1159.4093
 Red. masses --      1.7038                 2.7815                 2.1419
 Frc consts  --      1.2584                 2.1661                 1.6964
 IR Inten    --      4.2352                38.6228                10.4176

                     58                     59                     60
                      A                      A                      A
 Frequencies --   1172.2472              1183.6788              1190.1467
 Red. masses --      2.9683                 2.2505                 3.1361
 Frc consts  --      2.4033                 1.8578                 2.6172
 IR Inten    --      9.7554                 6.5811                 7.6142

                     61                     62                     63
                      A                      A                      A
 Frequencies --   1224.0330              1275.1530              1289.1977
 Red. masses --      2.2958                 1.3504                 3.7337
 Frc consts  --      2.0266                 1.2937                 3.6562
 IR Inten    --      3.3222                 9.1164                37.1878

                     64                     65                     66
                      A                      A                      A
 Frequencies --   1304.1237              1312.6537              1352.0037
 Red. masses --      3.2109                 1.3265                 1.5561
 Frc consts  --      3.2175                 1.3467                 1.6759
 IR Inten    --     13.1937                 2.3521                14.3755

                     67                     68                     69
                      A                      A                      A
 Frequencies --   1365.1383              1391.5810              1393.7168
 Red. masses --      1.2177                 1.3916                 1.3715
 Frc consts  --      1.3370                 1.5877                 1.5696
 IR Inten    --     10.5889                 1.0185                 4.5752

                     70                     71                     72
                      A                      A                      A
 Frequencies --   1411.7011              1427.1379              1432.6547
 Red. masses --      1.7080                 1.6364                 1.3196
 Frc consts  --      2.0055                 1.9637                 1.5957
 IR Inten    --      4.0605                 0.4265                 1.7584

                     73                     74                     75
                      A                      A                      A
 Frequencies --   1437.8726              1444.0141              1447.7726
 Red. masses --      1.3611                 1.2736                 1.2388
 Frc consts  --      1.6580                 1.5646                 1.5299
 IR Inten    --      4.2537                 9.8181                 2.6492

                     76                     77                     78
                      A                      A                      A
 Frequencies --   1450.5698              1454.1919              1502.5929
 Red. masses --      1.9910                 1.2561                 1.0659
 Frc consts  --      2.4683                 1.5650                 1.4179
 IR Inten    --      2.6574                 1.6577                 2.8203

                     79                     80                     81
                      A                      A                      A
 Frequencies --   1503.3368              1506.6542              1510.7254
 Red. masses --      1.0448                 1.1123                 1.0665
 Frc consts  --      1.3912                 1.4876                 1.4341
 IR Inten    --      4.3917                19.7102                 3.2928

                     82                     83                     84
                      A                      A                      A
 Frequencies --   1511.8468              1513.6609              1515.1113
 Red. masses --      1.0517                 1.0771                 1.0784
 Frc consts  --      1.4163                 1.4540                 1.4585
 IR Inten    --      2.6865                 2.4301                28.5464

                     85                     86                     87
                      A                      A                      A
 Frequencies --   1521.9622              1522.4279              1527.4884
 Red. masses --      1.0621                 1.0768                 1.0728
 Frc consts  --      1.4495                 1.4704                 1.4747
 IR Inten    --      9.2692                 3.2924                10.8102

                     88                     89                     90
                      A                      A                      A
 Frequencies --   1528.5820              1531.5594              1537.0011
 Red. masses --      1.0579                 1.0585                 1.0698
 Frc consts  --      1.4564                 1.4628                 1.4890
 IR Inten    --      7.2404                12.9956                 4.3832

                     91                     92                     93
                      A                      A                      A
 Frequencies --   1543.5740              1548.2680              1646.7429
 Red. masses --      1.0777                 1.0687                 7.4388
 Frc consts  --      1.5129                 1.5094                11.8852
 IR Inten    --      6.2530                 2.8590                24.9706

                     94                     95                     96
                      A                      A                      A
 Frequencies --   1702.7616              1745.2203              2956.9380
 Red. masses --      7.5340                 6.2614                 1.0715
 Frc consts  --     12.8702                11.2362                 5.5198
 IR Inten    --      7.0959                 9.9200                55.0281

                     97                     98                     99
                      A                      A                      A
 Frequencies --   3009.0077              3023.9657              3028.3120
 Red. masses --      1.0833                 1.0401                 1.0497
 Frc consts  --      5.7789                 5.6038                 5.6717
 IR Inten    --     27.1079                20.3657                41.4725

                    100                    101                    102
                      A                      A                      A
 Frequencies --   3030.0349              3039.7467              3041.0323
 Red. masses --      1.0437                 1.0391                 1.0482
 Frc consts  --      5.6456                 5.6568                 5.7111
 IR Inten    --     55.5411                53.4754                16.1664

                    103                    104                    105
                      A                      A                      A
 Frequencies --   3042.4719              3043.4203              3059.4134
 Red. masses --      1.0530                 1.0397                 1.0852
 Frc consts  --      5.7427                 5.6737                 5.9846
 IR Inten    --     23.9769                27.4272                59.6087

                    106                    107                    108
                      A                      A                      A
 Frequencies --   3069.4888              3076.2735              3079.4699
 Red. masses --      1.0996                 1.0960                 1.1019
 Frc consts  --      6.1040                 6.1108                 6.1568
 IR Inten    --     14.9066                29.0378                 8.9641

                    109                    110                    111
                      A                      A                      A
 Frequencies --   3086.4304              3090.2862              3096.5596
 Red. masses --      1.1012                 1.0908                 1.0967
 Frc consts  --      6.1807                 6.1375                 6.1960
 IR Inten    --     18.9953                24.6657                21.0256

                    112                    113                    114
                      A                      A                      A
 Frequencies --   3108.1260              3114.4715              3121.0658
 Red. masses --      1.1030                 1.1008                 1.1013
 Frc consts  --      6.2780                 6.2909                 6.3209
 IR Inten    --     59.4201                51.3239                33.8735

                    115                    116                    117
                      A                      A                      A
 Frequencies --   3123.5638              3141.1189              3146.3589
 Red. masses --      1.0994                 1.0973                 1.0890
 Frc consts  --      6.3196                 6.3790                 6.3517
 IR Inten    --     16.7927                15.5363                34.3540

                    118                    119                    120
                      A                      A                      A
 Frequencies --   3154.8139              3177.0840              3502.2029
 Red. masses --      1.0958                 1.0966                 1.0726
 Frc consts  --      6.4256                 6.5217                 7.7514
 IR Inten    --      7.3090                 0.2387                 0.5395

 - Thermochemistry -
 -------------------
 Temperature   298.150 Kelvin.  Pressure   1.00000 Atm.
 Atom     1 has atomic number  6 and mass  12.00000

 Molecular mass:   235.19361 amu.
 Principal axes and moments of inertia in atomic units:
                           1         2         3
     Eigenvalues --  2956.791515711.859027276.21837
           X            0.99973   0.02216  -0.00628
           Y           -0.02219   0.99974  -0.00454
           Z            0.00618   0.00468   0.99997
 This molecule is an asymmetric top.
 Rotational symmetry number  1.
 Warning -- assumption of classical behavior for rotation
           may cause significant error
 Rotational temperatures (Kelvin)      0.02929     0.01516     0.01190
 Rotational constants (GHZ):           0.61037     0.31596     0.24803
 Zero-point vibrational energy     986339.8 (Joules/Mol)
                                  235.74088 (Kcal/Mol)
 Warning -- explicit consideration of  30 degrees of freedom as
           vibrations may cause significant error
 Vibrational temperatures:     36.44    41.58    58.39    86.36   110.45
          (Kelvin)            132.00   151.05   164.94   183.12   218.68
                              237.68   247.96   256.84   281.55   299.11
                              327.22   381.01   389.52   403.19   424.01
                              445.81   464.28   477.72   523.47   559.02
                              586.81   684.35   689.98   820.49   855.97
                              909.43   917.57   940.18  1038.26  1072.43
                             1113.28  1191.10  1205.90  1224.22  1257.44
                             1319.84  1336.39  1371.49  1404.41  1435.58
                             1462.38  1477.67  1482.75  1529.02  1543.66
                             1555.76  1559.23  1564.43  1609.29  1610.88
                             1654.13  1668.13  1686.60  1703.05  1712.36
                             1761.11  1834.66  1854.87  1876.34  1888.62
                             1945.23  1964.13  2002.17  2005.25  2031.12
                             2053.33  2061.27  2068.78  2077.61  2083.02
                             2087.05  2092.26  2161.90  2162.97  2167.74
                             2173.60  2175.21  2177.82  2179.91  2189.76
                             2190.43  2197.72  2199.29  2203.57  2211.40
                             2220.86  2227.61  2369.30  2449.89  2510.98
                             4254.37  4329.29  4350.81  4357.07  4359.54
                             4373.52  4375.37  4377.44  4378.80  4401.81
                             4416.31  4426.07  4430.67  4440.68  4446.23
                             4455.26  4471.90  4481.03  4490.52  4494.11
                             4519.37  4526.91  4539.07  4571.12  5038.89

 Zero-point correction=                           0.375677 (Hartree/Particle)
 Thermal correction to Energy=                    0.396237
 Thermal correction to Enthalpy=                  0.397181
 Thermal correction to Gibbs Free Energy=         0.325650
 Sum of electronic and zero-point Energies=           -716.301840
 Sum of electronic and thermal Energies=              -716.281280
 Sum of electronic and thermal Enthalpies=            -716.280336
 Sum of electronic and thermal Free Energies=         -716.351867

                     E (Thermal)             CV                S
                      KCal/Mol        Cal/Mol-Kelvin    Cal/Mol-Kelvin
 Total                  248.642             74.485            150.550
 Electronic               0.000              0.000              0.000
 Translational            0.889              2.981             42.267
 Rotational               0.889              2.981             33.174
 Vibrational            246.865             68.524             75.109
 Vibration     1          0.593              1.985              6.165
 Vibration     2          0.593              1.984              5.904
 Vibration     3          0.594              1.981              5.230
 Vibration     4          0.597              1.973              4.456
 Vibration     5          0.599              1.965              3.972
 Vibration     6          0.602              1.955              3.623
 Vibration     7          0.605              1.945              3.360
 Vibration     8          0.608              1.937              3.189
 Vibration     9          0.611              1.926              2.987
 Vibration    10          0.619              1.900              2.647
 Vibration    11          0.624              1.885              2.489
 Vibration    12          0.626              1.877              2.410
 Vibration    13          0.629              1.869              2.344
 Vibration    14          0.636              1.846              2.173
 Vibration    15          0.641              1.829              2.062
 Vibration    16          0.651              1.799              1.899
 Vibration    17          0.671              1.737              1.630
 Vibration    18          0.674              1.727              1.592
 Vibration    19          0.680              1.710              1.532
 Vibration    20          0.689              1.684              1.447
 Vibration    21          0.699              1.655              1.363
 Vibration    22          0.708              1.630              1.296
 Vibration    23          0.714              1.612              1.250
 Vibration    24          0.737              1.547              1.106
 Vibration    25          0.757              1.495              1.006
 Vibration    26          0.772              1.453              0.934
 Vibration    27          0.832              1.304              0.722
 Vibration    28          0.836              1.295              0.711
 Vibration    29          0.926              1.096              0.504
 Vibration    30          0.953              1.043              0.458

                           ! Non-Optimized Parameters !
 Normal termination of Gaussian 16 at Sun Dec 13 16:40:18 2020.

 ----------------------------------------------------------------------
 # B3LYP/6-311++G(d,p) empiricaldispersion=gd3bj scf=xqc pop=npa geom=c
 heck
 ----------------------------------------------------------------------

 ---------------------------------------
 CID_105004982_JID_7192_Energie_neutraal
 ---------------------------------------
 Structure from the checkpoint file:  "JID_7192.chk"
 Charge =  0 Multiplicity = 1

 SCF Done:  E(RB3LYP) =  -716.873136824     A.U. after   14 cycles
 Normal termination of Gaussian 16 at Sun Dec 13 16:49:23 2020.

 ----------------------------------------------------------------------
 # B3LYP/6-311++G(d,p) empiricaldispersion=gd3bj scf=xqc pop=npa geom=c
 heck
 ----------------------------------------------------------------------

 -------------------------------------
 CID_105004982_JID_7192_Energie_kation
 -------------------------------------
 Structure from the checkpoint file:  "JID_7192.chk"
 Charge =  1 Multiplicity = 2

 SCF Done:  E(UB3LYP) =  -716.607668177     A.U. after   25 cycles
 Normal termination of Gaussian 16 at Sun Dec 13 17:12:39 2020.
 Gaussian 16:  ES64L-G16RevA.03 25-Dec-2016

 ----------------------------------------------------------------------
 # B3LYP/6-311++G(d,p) empiricaldispersion=gd3bj scf=xqc pop=npa geom=c
 heck
 ----------------------------------------------------------------------

 ------------------------------------
 CID_105004982_JID_7192_Energie_anion
 ------------------------------------
 Structure from the checkpoint file:  "JID_7192.chk"
 Charge = -1 Multiplicity = 2

                         Standard orientation:
 ---------------------------------------------------------------------
 Center     Atomic      Atomic             Coordinates (Angstroms)
 Number     Number       Type             X           Y           Z
 ---------------------------------------------------------------------
      1          6           0       -4.268491   -1.179827    0.757501
      2          6           0       -3.942485   -1.291262   -0.735796
      3          6           0       -2.806368   -0.369938   -1.183199
      4          7           0       -1.548062   -0.728005   -0.530004
      5          6           0       -0.407056    0.109836   -0.941311
      6          6           0       -0.612914    1.596980   -0.641562
      7          6           0       -0.696990    2.175102    0.564912
      8          6           0       -0.971633    3.651914    0.699058
      9          6           0       -0.548493    1.439493    1.873900
     10          6           0        0.901126   -0.428531   -0.399739
     11          6           0        1.151284   -1.581646    0.293996
     12          8           0        2.497124   -1.669196    0.565033
     13          6           0        3.110579   -0.570504    0.022235
     14          6           0        2.184489    0.225711   -0.583397
     15          6           0        2.443110    1.506528   -1.317389
     16          6           0        4.585310   -0.488943    0.198701
     17          6           0        0.340029   -2.722992    0.804724
     18          1           0       -3.437449   -1.529454    1.381337
     19          1           0       -5.142542   -1.786491    1.017791
     20          1           0       -4.486692   -0.141324    1.037416
     21          1           0       -3.675947   -2.326820   -0.980628
     22          1           0       -4.837257   -1.042348   -1.321002
     23          1           0       -2.656322   -0.472999   -2.265816
     24          1           0       -3.095965    0.681093   -1.001128
     25          1           0       -1.665724   -0.617405    0.475231
     26          1           0       -0.363243    0.020417   -2.036636
     27          1           0       -0.750068    2.236049   -1.513112
     28          1           0       -1.877734    3.832412    1.294221
     29          1           0       -0.149659    4.157205    1.225013
     30          1           0       -1.102414    4.133905   -0.274599
     31          1           0       -0.141085    0.434648    1.750681
     32          1           0        0.122007    1.988340    2.547754
     33          1           0       -1.516827    1.367809    2.389882
     34          1           0        2.031257    2.371305   -0.786068
     35          1           0        3.516060    1.672755   -1.456831
     36          1           0        1.980464    1.497643   -2.312557
     37          1           0        4.862112   -0.426242    1.258957
     38          1           0        5.088350   -1.370295   -0.218383
     39          1           0        4.979347    0.397709   -0.304874
     40          1           0        0.862042   -3.668097    0.616865
     41          1           0        0.174140   -2.655040    1.889329
     42          1           0       -0.626390   -2.736700    0.301123
 ---------------------------------------------------------------------

 SCF Done:  E(UB3LYP) =  -716.860009379     A.U. after   33 cycles
 SCF Done:  E(UB3LYP) =  -716.860009379     a.u. after    1 cycles

 The electronic state is 2-A.
 Alpha  occ. eigenvalues --  -19.07612 -14.20176 -10.12072 -10.11891 -10.11346
 Alpha  occ. eigenvalues --  -10.09368 -10.08303 -10.08298 -10.07432 -10.07225
 Alpha  occ. eigenvalues --  -10.07168 -10.07124 -10.06927 -10.06783 -10.06682
 Alpha  occ. eigenvalues --  -10.06645 -10.06152  -1.00171  -0.81841  -0.72516
 Alpha  occ. eigenvalues --   -0.70841  -0.69808  -0.67855  -0.63824  -0.62588
 Alpha  occ. eigenvalues --   -0.60701  -0.59736  -0.57842  -0.55311  -0.53495
 Alpha  occ. eigenvalues --   -0.49145  -0.47102  -0.43670  -0.42324  -0.40219
 Alpha  occ. eigenvalues --   -0.38284  -0.37243  -0.36663  -0.35844  -0.34830
 Alpha  occ. eigenvalues --   -0.33813  -0.33297  -0.32621  -0.32558  -0.31968
 Alpha  occ. eigenvalues --   -0.31614  -0.31340  -0.30475  -0.30073  -0.29373
 Alpha  occ. eigenvalues --   -0.29137  -0.28906  -0.28624  -0.27754  -0.27403
 Alpha  occ. eigenvalues --   -0.26375  -0.25595  -0.25072  -0.24614  -0.24031
 Alpha  occ. eigenvalues --   -0.23825  -0.16326  -0.14800  -0.13049  -0.11087
 Alpha  occ. eigenvalues --    0.04102
 Alpha virt. eigenvalues --    0.05843   0.06553   0.06921   0.07758   0.08196
 Alpha virt. eigenvalues --    0.08473   0.08735   0.09349   0.09675   0.09946
 Alpha virt. eigenvalues --    0.10494   0.10709   0.11086   0.11313   0.11781

  Beta  occ. eigenvalues --  -19.07607 -14.20170 -10.12068 -10.11891 -10.11338
  Beta  occ. eigenvalues --  -10.09355 -10.08302 -10.08272 -10.07420 -10.07215
  Beta  occ. eigenvalues --  -10.07167 -10.07124 -10.06901 -10.06752 -10.06648
  Beta  occ. eigenvalues --  -10.06615 -10.06140  -1.00164  -0.81828  -0.72500
  Beta  occ. eigenvalues --   -0.70822  -0.69791  -0.67828  -0.63797  -0.62554
  Beta  occ. eigenvalues --   -0.60666  -0.59679  -0.57793  -0.55277  -0.53463
  Beta  occ. eigenvalues --   -0.49094  -0.47081  -0.43650  -0.42284  -0.40194
  Beta  occ. eigenvalues --   -0.38256  -0.37223  -0.36633  -0.35813  -0.34805
  Beta  occ. eigenvalues --   -0.33779  -0.33265  -0.32599  -0.32535  -0.31941
  Beta  occ. eigenvalues --   -0.31585  -0.31312  -0.30447  -0.30047  -0.29352
  Beta  occ. eigenvalues --   -0.29105  -0.28885  -0.28599  -0.27719  -0.27380
  Beta  occ. eigenvalues --   -0.26343  -0.25567  -0.25041  -0.24587  -0.24002
  Beta  occ. eigenvalues --   -0.23804  -0.16312  -0.14782  -0.13036  -0.11068
  Beta virt. eigenvalues --    0.05961   0.06514   0.07103   0.07367   0.08012
  Beta virt. eigenvalues --    0.08567   0.08784   0.08956   0.09731   0.09961
  Beta virt. eigenvalues --    0.10071   0.10732   0.10876   0.11241   0.11535

 Mulliken charges and spin densities:
               1          2
     1  C    0.517838  -1.009040
     2  C   -0.761804   0.394325
     3  C    0.503192  -0.637766
     4  N    0.088574   0.012227
     5  C    0.168744  -0.594619
     6  C    0.719456  -0.514422
     7  C   -1.399938   1.552366
     8  C    1.330355  -1.810750
     9  C   -0.980785   0.144370
    10  C    0.460468   0.027526
    11  C   -0.416362   0.039553
    12  O    0.036123   0.016808
    13  C   -1.418918   0.629679
    14  C    0.111125   0.608959
    15  C    0.450749  -1.068767
    16  C    0.587457  -0.985044
    17  C   -0.390099  -0.399708
    18  H   -0.214302   0.363604
    19  H   -0.326469   0.477147
    20  H   -0.058121   0.196228
    21  H    0.076678   0.060920
    22  H   -0.118559   0.261287
    23  H   -0.081850   0.204144
    24  H    0.087729   0.059424
    25  H    0.663102  -0.543597
    26  H    0.050864   0.172470
    27  H   -0.070010   0.275678
    28  H   -0.159844   0.310597
    29  H   -0.022339   0.172701
    30  H   -0.433776   0.574110
    31  H    0.311363  -0.068962
    32  H   -0.295810   0.451823
    33  H    0.076161   0.087601
    34  H    0.169213   0.023985
    35  H   -0.286374   0.404208
    36  H   -0.076237   0.233265
    37  H   -0.056856   0.218882
    38  H   -0.038356   0.190927
    39  H   -0.117298   0.260313
    40  H    0.012265   0.125369
    41  H   -0.010845   0.172312
    42  H    0.313497  -0.090132
 Sum of Mulliken charges =  -1.00000   1.00000

 Dipole moment (field-independent basis, Debye):
    X=              1.5844    Y=             -3.0456    Z=             -0.7762  Tot=              3.5197
 Quadrupole moment (field-independent basis, Debye-Ang):
   XX=           -190.5356   YY=           -162.1730   ZZ=           -145.2437
   XY=             -1.8137   XZ=              5.2247   YZ=              1.7991

 Summary of Natural Population Analysis:

                                       Natural Population
                Natural  -----------------------------------------------
    Atom  No    Charge         Core      Valence    Rydberg      Total
 -----------------------------------------------------------------------
      C    1   -0.28906      0.99967     2.28445    0.00494     3.28906
      C    2   -0.19076      0.99964     2.18390    0.00722     3.19076
      C    3   -0.08557      0.99962     2.07477    0.01118     3.08557
      N    4   -0.34175      0.99974     2.83130    0.01071     3.84175
      C    5   -0.02627      0.99955     2.01298    0.01374     3.02627
      C    6   -0.10910      0.99944     2.09801    0.01166     3.10910
      C    7   -0.00208      0.99948     1.99216    0.01044     3.00208
      C    8   -0.29181      0.99962     2.28703    0.00515     3.29181
      C    9   -0.30597      0.99961     2.29966    0.00670     3.30597
      C   10   -0.05592      0.99941     2.04525    0.01127     3.05592
      C   11    0.15329      0.99941     1.83475    0.01256     2.84671
      O   12   -0.24762      0.99985     3.24013    0.00763     4.24762
      C   13    0.14569      0.99939     1.84017    0.01476     2.85431
      C   14   -0.05374      0.99942     2.04375    0.01057     3.05374
      C   15   -0.29228      0.99963     2.28754    0.00510     3.29228
      C   16   -0.30199      0.99963     2.29770    0.00466     3.30199
      C   17   -0.31044      0.99962     2.30590    0.00492     3.31044
      H   18    0.09496      0.00000     0.40377    0.00127     0.40504
      H   19    0.09963      0.00000     0.39936    0.00101     0.40037
      H   20    0.09840      0.00000     0.40018    0.00143     0.40160
      H   21    0.09480      0.00000     0.40389    0.00131     0.40520
      H   22    0.09507      0.00000     0.40380    0.00113     0.40493
      H   23    0.09082      0.00000     0.40793    0.00125     0.40918
      H   24    0.08393      0.00000     0.41443    0.00164     0.41607
      H   25    0.17333      0.00000     0.32229    0.00438     0.32667
      H   26    0.10028      0.00000     0.39786    0.00186     0.39972
      H   27    0.09673      0.00000     0.40192    0.00135     0.40327
      H   28    0.10224      0.00000     0.39629    0.00146     0.39776
      H   29    0.10092      0.00000     0.39778    0.00130     0.39908
      H   30    0.10257      0.00000     0.39626    0.00116     0.39743
      H   31    0.10653      0.00000     0.39188    0.00159     0.39347
      H   32    0.10425      0.00000     0.39472    0.00103     0.39575
      H   33    0.10473      0.00000     0.39406    0.00122     0.39527
      H   34    0.10961      0.00000     0.38903    0.00137     0.39039
      H   35    0.10206      0.00000     0.39702    0.00092     0.39794
      H   36    0.10204      0.00000     0.39682    0.00114     0.39796
      H   37    0.10484      0.00000     0.39378    0.00138     0.39516
      H   38    0.10341      0.00000     0.39524    0.00135     0.39659
      H   39    0.10791      0.00000     0.39108    0.00101     0.39209
      H   40    0.10320      0.00000     0.39561    0.00119     0.39680
      H   41    0.10113      0.00000     0.39741    0.00146     0.39887
      H   42    0.12199      0.00000     0.37669    0.00132     0.37801
 =======================================================================
   * Total *   -0.00000     16.99273    47.81853    0.18875    65.00000

 Normal termination of Gaussian 16 at Sun Dec 13 17:42:12 2020.
