 Gaussian 16, Revision A.03,

 -----------------------------------------------------------
 # opt freq B3LYP/6-31G(d) empiricaldispersion=gd3bj scf=xqc
 -----------------------------------------------------------

 -----------------------------
 CID_65280104_JID_644_neutraal
 -----------------------------
 Symbolic Z-matrix:
 Charge =  0 Multiplicity = 1

 SCF Done:  E(RB3LYP) =  -816.389359391     A.U. after   15 cycles
 SCF Done:  E(RB3LYP) =  -816.392954979     A.U. after   13 cycles
 SCF Done:  E(RB3LYP) =  -816.393508529     A.U. after   12 cycles
 SCF Done:  E(RB3LYP) =  -816.393124814     A.U. after   13 cycles
 SCF Done:  E(RB3LYP) =  -816.393781853     A.U. after   12 cycles
 SCF Done:  E(RB3LYP) =  -816.393850973     A.U. after   12 cycles
 SCF Done:  E(RB3LYP) =  -816.393888690     A.U. after   11 cycles
 SCF Done:  E(RB3LYP) =  -816.393902532     A.U. after   11 cycles
 SCF Done:  E(RB3LYP) =  -816.393909922     A.U. after   10 cycles
 SCF Done:  E(RB3LYP) =  -816.393916314     A.U. after   11 cycles
 SCF Done:  E(RB3LYP) =  -816.393921619     A.U. after   10 cycles
 SCF Done:  E(RB3LYP) =  -816.393922340     A.U. after    9 cycles
 SCF Done:  E(RB3LYP) =  -816.393922441     A.U. after    8 cycles
 SCF Done:  E(RB3LYP) =  -816.393922493     A.U. after    8 cycles
 SCF Done:  E(RB3LYP) =  -816.393922544     A.U. after    8 cycles
 SCF Done:  E(RB3LYP) =  -816.393922584     A.U. after    8 cycles
 Optimization completed.
    -- Stationary point found.
 Normal termination of Gaussian 16 at Tue Dec  8 12:18:07 2020.

 --------------------------------------------------------------------
 #N Geom=AllCheck Guess=TCheck SCRF=Check GenChk RB3LYP/6-31G(d) Freq
 --------------------------------------------------------------------

 Structure from the checkpoint file:  "JID_644.chk"
 -----------------------------
 CID_65280104_JID_644_neutraal
 -----------------------------
 Charge =  0 Multiplicity = 1

 SCF Done:  E(RB3LYP) =  -816.393922584     A.U. after    1 cycles

  Exact polarizability: 103.072   5.046  96.477  -6.627   2.698  63.931
 Approx polarizability: 154.113  12.307 172.142 -20.335  14.109 104.673

                      1                      2                      3
                      A                      A                      A
 Frequencies --     23.6574                48.8036                90.5515
 Red. masses --      6.3896                 7.7357                 3.3781
 Frc consts  --      0.0021                 0.0109                 0.0163
 IR Inten    --      1.2168                 3.3292                 0.9623

                      4                      5                      6
                      A                      A                      A
 Frequencies --    101.7890               209.2382               236.2560
 Red. masses --      2.8806                 3.0656                 1.3670
 Frc consts  --      0.0176                 0.0791                 0.0450
 IR Inten    --      0.8083                 0.5500                 0.1247

                      7                      8                      9
                      A                      A                      A
 Frequencies --    290.5387               323.9857               403.1091
 Red. masses --      4.0721                 2.3441                 3.9676
 Frc consts  --      0.2025                 0.1450                 0.3799
 IR Inten    --      1.1022                 1.3465                 3.6415

                     10                     11                     12
                      A                      A                      A
 Frequencies --    487.1566               557.0765               570.9821
 Red. masses --      4.4251                 4.4250                 2.6335
 Frc consts  --      0.6187                 0.8091                 0.5059
 IR Inten    --      5.4259                17.5589                14.7848

                     13                     14                     15
                      A                      A                      A
 Frequencies --    632.2762               651.2649               710.7434
 Red. masses --      4.9735                 7.3081                 4.4385
 Frc consts  --      1.1715                 1.8263                 1.3210
 IR Inten    --      5.8140                 1.9781                 0.1520

                     16                     17                     18
                      A                      A                      A
 Frequencies --    740.4426               759.1059               828.9864
 Red. masses --      4.3912                 4.0929                 1.4053
 Frc consts  --      1.4184                 1.3896                 0.5690
 IR Inten    --      8.5413                14.7752                 2.3059

                     19                     20                     21
                      A                      A                      A
 Frequencies --    894.9118               923.2075               929.6426
 Red. masses --      8.6176                 1.4313                 1.8978
 Frc consts  --      4.0663                 0.7187                 0.9664
 IR Inten    --     10.8668                 5.1389                18.9332

                     22                     23                     24
                      A                      A                      A
 Frequencies --    986.1698              1057.4603              1088.7091
 Red. masses --      2.1612                 2.3283                 1.6811
 Frc consts  --      1.2383                 1.5340                 1.1740
 IR Inten    --     11.5324                12.4300                36.5111

                     25                     26                     27
                      A                      A                      A
 Frequencies --   1127.5148              1207.8027              1216.3609
 Red. masses --      2.2432                 3.0529                 3.0282
 Frc consts  --      1.6802                 2.6239                 2.6397
 IR Inten    --     46.8020                32.2161                85.9706

                     28                     29                     30
                      A                      A                      A
 Frequencies --   1256.6451              1301.9222              1309.8207
 Red. masses --      1.3902                 1.3230                 1.4376
 Frc consts  --      1.2935                 1.3213                 1.4532
 IR Inten    --     12.1840                 9.2335                15.8722

                     31                     32                     33
                      A                      A                      A
 Frequencies --   1320.7054              1357.6738              1440.5220
 Red. masses --      1.6767                 1.5431                 1.2384
 Frc consts  --      1.7232                 1.6758                 1.5141
 IR Inten    --      3.7263                 2.8625                 9.5347

                     34                     35                     36
                      A                      A                      A
 Frequencies --   1448.1259              1487.2824              1501.1573
 Red. masses --      5.0940                 1.1338                 1.0871
 Frc consts  --      6.2940                 1.4776                 1.4434
 IR Inten    --     32.1299                 9.6450                12.4482

                     37                     38                     39
                      A                      A                      A
 Frequencies --   1532.3709              1545.9388              1563.2553
 Red. masses --      1.0478                 1.0512                 6.1345
 Frc consts  --      1.4497                 1.4803                 8.8326
 IR Inten    --      5.8588                 3.1081                58.2754

                     40                     41                     42
                      A                      A                      A
 Frequencies --   1821.3567              3049.9352              3060.5413
 Red. masses --     11.1654                 1.0650                 1.0371
 Frc consts  --     21.8231                 5.8367                 5.7234
 IR Inten    --    199.5599                 4.9923                29.8728

                     43                     44                     45
                      A                      A                      A
 Frequencies --   3078.5131              3120.4952              3127.6077
 Red. masses --      1.0616                 1.0971                 1.1029
 Frc consts  --      5.9279                 6.2941                 6.3563
 IR Inten    --      4.4925                 9.3005                20.4426

                     46                     47                     48
                      A                      A                      A
 Frequencies --   3143.2725              3150.2814              3237.2348
 Red. masses --      1.1020                 1.1023                 1.0933
 Frc consts  --      6.4148                 6.4452                 6.7506
 IR Inten    --      3.5801                14.9465                 7.3286

 - Thermochemistry -
 -------------------
 Temperature   298.150 Kelvin.  Pressure   1.00000 Atm.
 Atom     1 has atomic number  6 and mass  12.00000

 Molecular mass:   156.03573 amu.
 Principal axes and moments of inertia in atomic units:
                           1         2         3
     Eigenvalues --   885.965842249.454552777.81778
           X            0.99962  -0.02714   0.00437
           Y            0.02724   0.99934  -0.02409
           Z           -0.00371   0.02420   0.99970
 This molecule is an asymmetric top.
 Rotational symmetry number  1.
 Warning -- assumption of classical behavior for rotation
           may cause significant error
 Rotational temperatures (Kelvin)      0.09776     0.03850     0.03118
 Rotational constants (GHZ):           2.03703     0.80230     0.64970
 Zero-point vibrational energy     364576.3 (Joules/Mol)
                                   87.13583 (Kcal/Mol)
 Warning -- explicit consideration of  12 degrees of freedom as
           vibrations may cause significant error
 Vibrational temperatures:     34.04    70.22   130.28   146.45   301.05
          (Kelvin)            339.92   418.02   466.14   579.98   700.91
                              801.51   821.52   909.70   937.02  1022.60
                             1065.33  1092.18  1192.73  1287.58  1328.29
                             1337.55  1418.88  1521.45  1566.41  1622.24
                             1737.76  1750.07  1808.03  1873.18  1884.54
                             1900.20  1953.39  2072.59  2083.53  2139.87
                             2159.83  2204.74  2224.26  2249.18  2620.53
                             4388.18  4403.44  4429.29  4489.70  4499.93
                             4522.47  4532.55  4657.66

 Zero-point correction=                           0.138860 (Hartree/Particle)
 Thermal correction to Energy=                    0.148719
 Thermal correction to Enthalpy=                  0.149663
 Thermal correction to Gibbs Free Energy=         0.101473
 Sum of electronic and zero-point Energies=           -816.255063
 Sum of electronic and thermal Energies=              -816.245204
 Sum of electronic and thermal Enthalpies=            -816.244260
 Sum of electronic and thermal Free Energies=         -816.292449

                     E (Thermal)             CV                S
                      KCal/Mol        Cal/Mol-Kelvin    Cal/Mol-Kelvin
 Total                   93.322             34.856            101.424
 Electronic               0.000              0.000              0.000
 Translational            0.889              2.981             41.044
 Rotational               0.889              2.981             30.094
 Vibrational             91.545             28.895             30.285
 Vibration     1          0.593              1.985              6.301
 Vibration     2          0.595              1.978              4.865
 Vibration     3          0.602              1.956              3.648
 Vibration     4          0.604              1.948              3.420
 Vibration     5          0.642              1.827              2.050
 Vibration     6          0.655              1.785              1.831
 Vibration     7          0.687              1.691              1.471
 Vibration     8          0.709              1.627              1.290
 Vibration     9          0.769              1.463              0.951
 Vibration    10          0.843              1.279              0.691
 Vibration    11          0.913              1.124              0.530
 Vibration    12          0.927              1.094              0.502

                           ! Non-Optimized Parameters !
 Normal termination of Gaussian 16 at Tue Dec  8 12:22:07 2020.

 ----------------------------------------------------------------------
 # B3LYP/6-311++G(d,p) empiricaldispersion=gd3bj scf=xqc pop=npa geom=c
 heck
 ----------------------------------------------------------------------

 -------------------------------------
 CID_65280104_JID_644_Energie_neutraal
 -------------------------------------
 Structure from the checkpoint file:  "JID_644.chk"
 Charge =  0 Multiplicity = 1

 SCF Done:  E(RB3LYP) =  -816.538485614     A.U. after   15 cycles
 Normal termination of Gaussian 16 at Tue Dec  8 12:24:21 2020.

 ----------------------------------------------------------------------
 # B3LYP/6-311++G(d,p) empiricaldispersion=gd3bj scf=xqc pop=npa geom=c
 heck
 ----------------------------------------------------------------------

 -----------------------------------
 CID_65280104_JID_644_Energie_kation
 -----------------------------------
 Structure from the checkpoint file:  "JID_644.chk"
 Charge =  1 Multiplicity = 2

 SCF Done:  E(UB3LYP) =  -816.197315075     A.U. after   24 cycles
 Normal termination of Gaussian 16 at Tue Dec  8 12:27:35 2020.
 Gaussian 16:  ES64L-G16RevA.03 25-Dec-2016

 ----------------------------------------------------------------------
 # B3LYP/6-311++G(d,p) empiricaldispersion=gd3bj scf=xqc pop=npa geom=c
 heck
 ----------------------------------------------------------------------

 ----------------------------------
 CID_65280104_JID_644_Energie_anion
 ----------------------------------
 Structure from the checkpoint file:  "JID_644.chk"
 Charge = -1 Multiplicity = 2

                         Standard orientation:
 ---------------------------------------------------------------------
 Center     Atomic      Atomic             Coordinates (Angstroms)
 Number     Number       Type             X           Y           Z
 ---------------------------------------------------------------------
      1          6           0       -2.342428    1.805034   -0.036066
      2          6           0       -2.034869    0.548047   -0.867524
      3          6           0       -1.811599   -0.691220   -0.021984
      4          8           0       -2.470364   -1.701554   -0.148656
      5          6           0       -0.709548   -0.632506    1.062795
      6          6           0        0.595266   -0.108254    0.557974
      7          7           0        0.974135    1.145539    0.627612
      8          6           0        2.192205    1.277994    0.010902
      9          7           0        2.784462    0.238730   -0.528789
     10         16           0        1.772173   -1.083581   -0.282125
     11          1           0       -3.202290    1.642055    0.623206
     12          1           0       -2.585490    2.639235   -0.701421
     13          1           0       -1.481398    2.099336    0.570041
     14          1           0       -2.850721    0.317881   -1.558060
     15          1           0       -1.129294    0.725922   -1.463150
     16          1           0       -1.050220    0.033235    1.863851
     17          1           0       -0.610382   -1.641904    1.468165
     18          1           0        2.673592    2.249503   -0.027732
 ---------------------------------------------------------------------

 SCF Done:  E(UB3LYP) =  -816.545864709     A.U. after   28 cycles

 The electronic state is 2-A.
 Alpha  occ. eigenvalues --  -88.73078 -18.96766 -14.16316 -14.15596 -10.10872
 Alpha  occ. eigenvalues --  -10.07672 -10.06466 -10.04685 -10.04681 -10.04535
 Alpha  occ. eigenvalues --   -7.81615  -5.77994  -5.77527  -5.77185  -0.90485
 Alpha  occ. eigenvalues --   -0.84438  -0.71890  -0.66127  -0.63330  -0.57913
 Alpha  occ. eigenvalues --   -0.52154  -0.45289  -0.42463  -0.38762  -0.34959
 Alpha  occ. eigenvalues --   -0.34461  -0.31969  -0.30098  -0.29442  -0.27587
 Alpha  occ. eigenvalues --   -0.26726  -0.26126  -0.24192  -0.22715  -0.22670
 Alpha  occ. eigenvalues --   -0.21719  -0.15726  -0.15273  -0.12958  -0.12637
 Alpha  occ. eigenvalues --   -0.10507   0.05277
 Alpha virt. eigenvalues --    0.08424   0.10546   0.10778   0.10946   0.11151
 Alpha virt. eigenvalues --    0.12569   0.13249   0.13783   0.14394   0.15075
 Alpha virt. eigenvalues --    0.15881   0.16347   0.17179   0.17705   0.18118

  Beta  occ. eigenvalues --  -88.73014 -18.96576 -14.15905 -14.15564 -10.10616
  Beta  occ. eigenvalues --  -10.07671 -10.05912 -10.04742 -10.04701 -10.04510
  Beta  occ. eigenvalues --   -7.81557  -5.77969  -5.77506  -5.76958  -0.90095
  Beta  occ. eigenvalues --   -0.84018  -0.71302  -0.65900  -0.62967  -0.57642
  Beta  occ. eigenvalues --   -0.52026  -0.44804  -0.41839  -0.38384  -0.34774
  Beta  occ. eigenvalues --   -0.34229  -0.31730  -0.29616  -0.29088  -0.27227
  Beta  occ. eigenvalues --   -0.26017  -0.25806  -0.24017  -0.22552  -0.22237
  Beta  occ. eigenvalues --   -0.21011  -0.15182  -0.13739  -0.12597  -0.11864
  Beta  occ. eigenvalues --   -0.09591
  Beta virt. eigenvalues --    0.08458   0.10146   0.10657   0.11039   0.11953
  Beta virt. eigenvalues --    0.12280   0.12939   0.13485   0.13876   0.14748
  Beta virt. eigenvalues --    0.14984   0.15866   0.16355   0.17527   0.17683

 Mulliken charges and spin densities:
               1          2
     1  C   -0.469557  -0.195399
     2  C    0.014714  -0.026340
     3  C    0.055810   0.076491
     4  O   -0.353064   0.069539
     5  C   -0.229570  -0.107608
     6  C   -0.018210   0.162342
     7  N   -0.132130   0.050917
     8  C   -0.219834   0.048903
     9  N   -0.213542   0.147719
    10  S   -0.102591   0.198671
    11  H    0.111101   0.008305
    12  H   -0.076230   0.190801
    13  H    0.176514   0.016641
    14  H    0.083797   0.076906
    15  H    0.044101   0.136515
    16  H    0.070604   0.077915
    17  H    0.131521   0.070467
    18  H    0.126566  -0.002785
 Sum of Mulliken charges =  -1.00000   1.00000

 Dipole moment (field-independent basis, Debye):
    X=             -1.2856    Y=              1.3321    Z=              1.0780  Tot=              2.1423
 Quadrupole moment (field-independent basis, Debye-Ang):
   XX=           -103.5381   YY=            -86.7206   ZZ=            -78.2297
   XY=             -5.0831   XZ=              0.3555   YZ=             -0.6397

 Summary of Natural Population Analysis:

                                       Natural Population
                Natural  -----------------------------------------------
    Atom  No    Charge         Core      Valence    Rydberg      Total
 -----------------------------------------------------------------------
      C    1   -0.28849      0.99966     2.28278    0.00604     3.28849
      C    2   -0.23973      0.99959     2.23172    0.00841     3.23973
      C    3    0.32976      0.99967     1.64725    0.02332     2.67024
      O    4   -0.28394      0.99987     3.27713    0.00695     4.28394
      C    5   -0.26314      0.99954     2.25304    0.01056     3.26314
      C    6    0.11516      0.99962     1.86558    0.01964     2.88484
      N    7   -0.27866      0.99965     2.76749    0.01152     3.77866
      C    8    0.09548      0.99969     1.88310    0.02174     2.90452
      N    9   -0.27813      0.99974     2.76667    0.01172     3.77813
      S   10    0.26851      4.99941     2.70553    0.02655     7.73149
      H   11    0.09014      0.00000     0.40909    0.00077     0.40986
      H   12    0.09466      0.00000     0.40420    0.00114     0.40534
      H   13    0.11283      0.00000     0.38606    0.00111     0.38717
      H   14    0.09950      0.00000     0.39921    0.00129     0.40050
      H   15    0.11452      0.00000     0.38382    0.00166     0.38548
      H   16    0.11786      0.00000     0.38097    0.00117     0.38214
      H   17    0.11177      0.00000     0.38704    0.00119     0.38823
      H   18    0.08190      0.00000     0.41705    0.00105     0.41810
 =======================================================================
   * Total *    0.00000     13.99643    26.84774    0.15583    41.00000

 Normal termination of Gaussian 16 at Tue Dec  8 12:30:55 2020.
