 Gaussian 16, Revision A.03,

 -----------------------------------------------------------
 # opt freq B3LYP/6-31G(d) empiricaldispersion=gd3bj scf=xqc
 -----------------------------------------------------------

 --------------------------------
 CID_116533320_JID_10900_neutraal
 --------------------------------
 Symbolic Z-matrix:
 Charge =  0 Multiplicity = 1

 SCF Done:  E(RB3LYP) =  -863.365284414     A.U. after   15 cycles
 SCF Done:  E(RB3LYP) =  -863.369227224     A.U. after   13 cycles
 SCF Done:  E(RB3LYP) =  -863.368467647     A.U. after   13 cycles
 SCF Done:  E(RB3LYP) =  -863.371139842     A.U. after   13 cycles
 SCF Done:  E(RB3LYP) =  -863.371848839     A.U. after   13 cycles
 SCF Done:  E(RB3LYP) =  -863.371774920     A.U. after   15 cycles
 SCF Done:  E(RB3LYP) =  -863.372353385     A.U. after   13 cycles
 SCF Done:  E(RB3LYP) =  -863.372515939     A.U. after   12 cycles
 SCF Done:  E(RB3LYP) =  -863.372572538     A.U. after   11 cycles
 SCF Done:  E(RB3LYP) =  -863.372599717     A.U. after   11 cycles
 SCF Done:  E(RB3LYP) =  -863.372712300     A.U. after    8 cycles
 SCF Done:  E(RB3LYP) =  -863.372712584     A.U. after    9 cycles
 SCF Done:  E(RB3LYP) =  -863.372712822     A.U. after    8 cycles
 SCF Done:  E(RB3LYP) =  -863.372712882     A.U. after    8 cycles
 SCF Done:  E(RB3LYP) =  -863.372712901     A.U. after    7 cycles
 SCF Done:  E(RB3LYP) =  -863.372712903     A.U. after    6 cycles
 Optimization completed.
    -- Stationary point found.
 Normal termination of Gaussian 16 at Sat Dec 12 16:58:24 2020.

 --------------------------------------------------------------------
 #N Geom=AllCheck Guess=TCheck SCRF=Check GenChk RB3LYP/6-31G(d) Freq
 --------------------------------------------------------------------

 Structure from the checkpoint file:  "JID_10900.chk"
 --------------------------------
 CID_116533320_JID_10900_neutraal
 --------------------------------
 Charge =  0 Multiplicity = 1

 SCF Done:  E(RB3LYP) =  -863.372712903     A.U. after    1 cycles

  Exact polarizability: 305.447  -7.845 198.405  -7.197 -16.180  97.981
 Approx polarizability: 428.935 -18.535 338.746 -16.553 -40.652 152.713

                      1                      2                      3
                      A                      A                      A
 Frequencies --     12.7269                17.5493                41.4461
 Red. masses --      1.0331                 5.6226                 5.7645
 Frc consts  --      0.0001                 0.0010                 0.0058
 IR Inten    --      0.1801                 0.6589                 0.2675

                      4                      5                      6
                      A                      A                      A
 Frequencies --     54.2660                76.0194               102.5028
 Red. masses --      3.6339                 4.6860                 2.5047
 Frc consts  --      0.0063                 0.0160                 0.0155
 IR Inten    --      0.1239                 0.9230                 0.2552

                      7                      8                      9
                      A                      A                      A
 Frequencies --    120.7054               133.5525               155.1615
 Red. masses --      4.4140                 3.7979                 2.5607
 Frc consts  --      0.0379                 0.0399                 0.0363
 IR Inten    --      0.4043                 2.7296                 0.1072

                     10                     11                     12
                      A                      A                      A
 Frequencies --    205.9555               225.9515               253.5860
 Red. masses --      2.7184                 5.5120                 1.7925
 Frc consts  --      0.0679                 0.1658                 0.0679
 IR Inten    --      1.6123                 2.8645                 0.1917

                     13                     14                     15
                      A                      A                      A
 Frequencies --    260.4996               306.6159               310.8391
 Red. masses --      2.3569                 5.7195                 2.5314
 Frc consts  --      0.0942                 0.3168                 0.1441
 IR Inten    --      0.5746                 0.2772                 0.4034

                     16                     17                     18
                      A                      A                      A
 Frequencies --    328.2591               349.1164               368.6657
 Red. masses --      3.5821                 3.7085                 3.7857
 Frc consts  --      0.2274                 0.2663                 0.3032
 IR Inten    --      0.4074                 0.3203                 2.5192

                     19                     20                     21
                      A                      A                      A
 Frequencies --    418.9170               436.0540               448.6000
 Red. masses --      2.3706                 3.4387                 3.4461
 Frc consts  --      0.2451                 0.3852                 0.4086
 IR Inten    --      1.0303                 2.6717                 2.6687

                     22                     23                     24
                      A                      A                      A
 Frequencies --    468.7414               483.9739               491.7767
 Red. masses --      4.2687                 5.4377                 3.9398
 Frc consts  --      0.5526                 0.7504                 0.5614
 IR Inten    --      7.4908                 0.7403                 0.2846

                     25                     26                     27
                      A                      A                      A
 Frequencies --    548.4421               590.7349               622.4736
 Red. masses --      3.4392                 3.7592                 1.3874
 Frc consts  --      0.6095                 0.7729                 0.3167
 IR Inten    --      5.7497                11.6107                74.3155

                     28                     29                     30
                      A                      A                      A
 Frequencies --    627.3134               659.6631               681.9738
 Red. masses --      4.5710                 5.1584                 3.4145
 Frc consts  --      1.0598                 1.3225                 0.9356
 IR Inten    --     35.0672                23.6960                 6.8146

                     31                     32                     33
                      A                      A                      A
 Frequencies --    722.6691               731.6348               742.1567
 Red. masses --      5.3108                 4.7661                 3.0681
 Frc consts  --      1.6342                 1.5031                 0.9956
 IR Inten    --      4.0153                31.5443                19.8289

                     34                     35                     36
                      A                      A                      A
 Frequencies --    762.2786               779.5071               801.2094
 Red. masses --      2.7752                 4.5564                 2.5089
 Frc consts  --      0.9501                 1.6312                 0.9489
 IR Inten    --      1.6670                15.3869                15.2267

                     37                     38                     39
                      A                      A                      A
 Frequencies --    815.5181               828.8804               843.5032
 Red. masses --      4.1853                 1.4213                 2.8334
 Frc consts  --      1.6400                 0.5753                 1.1878
 IR Inten    --      5.5518                13.2578                 7.2180

                     40                     41                     42
                      A                      A                      A
 Frequencies --    880.7347               890.9831               918.6044
 Red. masses --      2.9228                 3.3773                 1.5018
 Frc consts  --      1.3358                 1.5796                 0.7467
 IR Inten    --      0.6502                 2.1031                 2.7378

                     43                     44                     45
                      A                      A                      A
 Frequencies --    921.3947               939.1603               961.5467
 Red. masses --      1.3936                 1.6128                 1.3476
 Frc consts  --      0.6971                 0.8381                 0.7341
 IR Inten    --      2.3927                 0.1766                 0.1169

                     46                     47                     48
                      A                      A                      A
 Frequencies --    999.5194              1002.8467              1031.8435
 Red. masses --      1.7019                 2.6686                 1.6335
 Frc consts  --      1.0018                 1.5812                 1.0247
 IR Inten    --      6.1152                 1.0530                12.6093

                     49                     50                     51
                      A                      A                      A
 Frequencies --   1057.3994              1076.9749              1097.8560
 Red. masses --      2.0773                 1.5139                 2.0206
 Frc consts  --      1.3685                 1.0346                 1.4349
 IR Inten    --      1.2641                 4.2007                 0.6176

                     52                     53                     54
                      A                      A                      A
 Frequencies --   1102.1623              1123.6708              1157.8365
 Red. masses --      2.3531                 1.9998                 1.7428
 Frc consts  --      1.6842                 1.4877                 1.3766
 IR Inten    --      1.5570                 6.8389                 6.1234

                     55                     56                     57
                      A                      A                      A
 Frequencies --   1169.2768              1176.5752              1201.8323
 Red. masses --      1.1336                 2.9045                 2.1196
 Frc consts  --      0.9131                 2.3689                 1.8038
 IR Inten    --      0.0612               159.4043               146.8148

                     58                     59                     60
                      A                      A                      A
 Frequencies --   1208.3992              1219.4174              1230.6567
 Red. masses --      2.0773                 2.0523                 2.1223
 Frc consts  --      1.7872                 1.7980                 1.8938
 IR Inten    --     43.2591                53.5840                 5.1361

                     61                     62                     63
                      A                      A                      A
 Frequencies --   1240.0331              1273.2235              1289.2039
 Red. masses --      2.3832                 1.5488                 3.1704
 Frc consts  --      2.1591                 1.4793                 3.1046
 IR Inten    --     58.3103                 0.6799                41.5385

                     64                     65                     66
                      A                      A                      A
 Frequencies --   1305.6063              1327.3142              1355.3721
 Red. masses --      1.2523                 1.7719                 2.3923
 Frc consts  --      1.2578                 1.8392                 2.5893
 IR Inten    --     10.3133                18.4402                 8.6679

                     67                     68                     69
                      A                      A                      A
 Frequencies --   1373.5886              1378.1868              1389.4200
 Red. masses --      3.9707                 1.6806                 1.4868
 Frc consts  --      4.4140                 1.8808                 1.6911
 IR Inten    --      5.5403                11.7024                73.1840

                     70                     71                     72
                      A                      A                      A
 Frequencies --   1405.4968              1434.9270              1443.3248
 Red. masses --      2.7549                 3.1850                 1.2506
 Frc consts  --      3.2064                 3.8639                 1.5350
 IR Inten    --    107.6198               128.2824                 0.0292

                     73                     74                     75
                      A                      A                      A
 Frequencies --   1444.8613              1466.6685              1481.4415
 Red. masses --      1.3350                 3.5149                 1.1790
 Frc consts  --      1.6420                 4.4548                 1.5245
 IR Inten    --      3.9744                56.9815                 2.2388

                     76                     77                     78
                      A                      A                      A
 Frequencies --   1504.0093              1515.8526              1518.2383
 Red. masses --      2.4579                 1.0443                 1.1047
 Frc consts  --      3.2758                 1.4138                 1.5003
 IR Inten    --     17.2586                 5.5432                 3.7005

                     79                     80                     81
                      A                      A                      A
 Frequencies --   1521.1047              1527.2195              1533.3689
 Red. masses --      1.1113                 1.6690                 1.0834
 Frc consts  --      1.5149                 2.2935                 1.5008
 IR Inten    --      3.6284                 8.6164                 6.9499

                     82                     83                     84
                      A                      A                      A
 Frequencies --   1536.8290              1539.2170              1600.9653
 Red. masses --      1.7695                 1.1373                 8.1006
 Frc consts  --      2.4624                 1.5875                12.2330
 IR Inten    --     17.1360                 4.5924                46.4316

                     85                     86                     87
                      A                      A                      A
 Frequencies --   1633.2175              1665.4091              1680.6840
 Red. masses --      6.1704                 7.6997                 6.9299
 Frc consts  --      9.6973                12.5824                11.5331
 IR Inten    --      2.5025               210.8946                17.3411

                     88                     89                     90
                      A                      A                      A
 Frequencies --   1798.4985              3043.3781              3044.6500
 Red. masses --      9.2543                 1.0600                 1.0611
 Frc consts  --     17.6366                 5.7843                 5.7955
 IR Inten    --    347.4116                16.4848                28.3680

                     91                     92                     93
                      A                      A                      A
 Frequencies --   3045.3748              3051.4629              3072.4419
 Red. masses --      1.0377                 1.0355                 1.1025
 Frc consts  --      5.6705                 5.6811                 6.1317
 IR Inten    --     40.4902                23.5405                 9.8469

                     94                     95                     96
                      A                      A                      A
 Frequencies --   3080.1456              3083.4729              3097.2704
 Red. masses --      1.0865                 1.0867                 1.1010
 Frc consts  --      6.0732                 6.0877                 6.2228
 IR Inten    --      8.8830                27.0496                19.9827

                     97                     98                     99
                      A                      A                      A
 Frequencies --   3114.2338              3126.1039              3130.3615
 Red. masses --      1.1020                 1.1024                 1.1008
 Frc consts  --      6.2971                 6.3472                 6.3553
 IR Inten    --     58.7392                35.7994                14.2075

                    100                    101                    102
                      A                      A                      A
 Frequencies --   3175.6256              3190.8920              3194.0254
 Red. masses --      1.0871                 1.0919                 1.0943
 Frc consts  --      6.4594                 6.5505                 6.5775
 IR Inten    --      8.2224                 8.2559                33.1317

                    103                    104                    105
                      A                      A                      A
 Frequencies --   3202.9545              3224.4545              3683.8129
 Red. masses --      1.0909                 1.0913                 1.0638
 Frc consts  --      6.5937                 6.6851                 8.5058
 IR Inten    --      4.7898                 0.9628                88.0826

 - Thermochemistry -
 -------------------
 Temperature   298.150 Kelvin.  Pressure   1.00000 Atm.
 Atom     1 has atomic number  6 and mass  12.00000

 Molecular mass:   267.12593 amu.
 Principal axes and moments of inertia in atomic units:
                           1         2         3
     Eigenvalues --  2599.416039500.69049**********
           X            0.99994   0.00953   0.00485
           Y           -0.00954   0.99995   0.00149
           Z           -0.00484  -0.00154   0.99999
 This molecule is an asymmetric top.
 Rotational symmetry number  1.
 Warning -- assumption of classical behavior for rotation
           may cause significant error
 Rotational temperatures (Kelvin)      0.03332     0.00912     0.00752
 Rotational constants (GHZ):           0.69429     0.18996     0.15680
 Zero-point vibrational energy     801151.5 (Joules/Mol)
                                  191.47981 (Kcal/Mol)
 Warning -- explicit consideration of  26 degrees of freedom as
           vibrations may cause significant error
 Vibrational temperatures:     18.31    25.25    59.63    78.08   109.37
          (Kelvin)            147.48   173.67   192.15   223.24   296.32
                              325.09   364.85   374.80   441.15   447.23
                              472.29   502.30   530.43   602.73   627.38
                              645.44   674.41   696.33   707.56   789.09
                              849.94   895.60   902.56   949.11   981.21
                             1039.76  1052.66  1067.80  1096.75  1121.54
                             1152.76  1173.35  1192.57  1213.61  1267.18
                             1281.93  1321.67  1325.68  1351.24  1383.45
                             1438.09  1442.87  1484.59  1521.36  1549.53
                             1579.57  1585.77  1616.71  1665.87  1682.33
                             1692.83  1729.17  1738.62  1754.47  1770.64
                             1784.13  1831.88  1854.88  1878.48  1909.71
                             1950.08  1976.29  1982.90  1999.07  2022.20
                             2064.54  2076.62  2078.83  2110.21  2131.46
                             2163.93  2180.97  2184.41  2188.53  2197.33
                             2206.18  2211.15  2214.59  2303.43  2349.84
                             2396.15  2418.13  2587.64  4378.74  4380.57
                             4381.62  4390.37  4420.56  4431.64  4436.43
                             4456.28  4480.69  4497.77  4503.89  4569.02
                             4590.98  4595.49  4608.34  4639.27  5300.19

 Zero-point correction=                           0.305142 (Hartree/Particle)
 Thermal correction to Energy=                    0.322970
 Thermal correction to Enthalpy=                  0.323914
 Thermal correction to Gibbs Free Energy=         0.256523
 Sum of electronic and zero-point Energies=           -863.067570
 Sum of electronic and thermal Energies=              -863.049743
 Sum of electronic and thermal Enthalpies=            -863.048799
 Sum of electronic and thermal Free Energies=         -863.116190

                     E (Thermal)             CV                S
                      KCal/Mol        Cal/Mol-Kelvin    Cal/Mol-Kelvin
 Total                  202.667             68.277            141.837
 Electronic               0.000              0.000              0.000
 Translational            0.889              2.981             42.647
 Rotational               0.889              2.981             34.007
 Vibrational            200.889             62.315             65.183
 Vibration     1          0.593              1.987              7.532
 Vibration     2          0.593              1.986              6.894
 Vibration     3          0.594              1.981              5.189
 Vibration     4          0.596              1.976              4.656
 Vibration     5          0.599              1.965              3.991
 Vibration     6          0.605              1.947              3.406
 Vibration     7          0.609              1.932              3.089
 Vibration     8          0.613              1.920              2.894
 Vibration     9          0.620              1.897              2.608
 Vibration    10          0.640              1.831              2.079
 Vibration    11          0.650              1.801              1.911
 Vibration    12          0.665              1.757              1.706
 Vibration    13          0.669              1.745              1.658
 Vibration    14          0.697              1.661              1.381
 Vibration    15          0.700              1.653              1.358
 Vibration    16          0.711              1.619              1.269
 Vibration    17          0.726              1.577              1.170
 Vibration    18          0.741              1.537              1.085
 Vibration    19          0.782              1.429              0.896
 Vibration    20          0.797              1.392              0.839
 Vibration    21          0.808              1.364              0.800
 Vibration    22          0.826              1.319              0.741
 Vibration    23          0.840              1.286              0.699
 Vibration    24          0.848              1.268              0.679
 Vibration    25          0.904              1.143              0.547
 Vibration    26          0.948              1.052              0.466

 Optimization completed.
    -- Stationary point found.
 Normal termination of Gaussian 16 at Sat Dec 12 17:16:20 2020.

 ----------------------------------------------------------------------
 # B3LYP/6-311++G(d,p) empiricaldispersion=gd3bj scf=xqc pop=npa geom=c
 heck
 ----------------------------------------------------------------------

 ----------------------------------------
 CID_116533320_JID_10900_Energie_neutraal
 ----------------------------------------
 Structure from the checkpoint file:  "JID_10900.chk"
 Charge =  0 Multiplicity = 1

 SCF Done:  E(RB3LYP) =  -863.601451860     A.U. after   16 cycles
 Normal termination of Gaussian 16 at Sat Dec 12 17:23:17 2020.

 ----------------------------------------------------------------------
 # B3LYP/6-311++G(d,p) empiricaldispersion=gd3bj scf=xqc pop=npa geom=c
 heck
 ----------------------------------------------------------------------

 --------------------------------------
 CID_116533320_JID_10900_Energie_kation
 --------------------------------------
 Structure from the checkpoint file:  "JID_10900.chk"
 Charge =  1 Multiplicity = 2

 SCF Done:  E(UB3LYP) =  -863.309356688     A.U. after   25 cycles
 Normal termination of Gaussian 16 at Sat Dec 12 17:38:22 2020.
 Gaussian 16:  ES64L-G16RevA.03 25-Dec-2016

 ----------------------------------------------------------------------
 # B3LYP/6-311++G(d,p) empiricaldispersion=gd3bj scf=xqc pop=npa geom=c
 heck
 ----------------------------------------------------------------------

 -------------------------------------
 CID_116533320_JID_10900_Energie_anion
 -------------------------------------
 Structure from the checkpoint file:  "JID_10900.chk"
 Charge = -1 Multiplicity = 2

                         Standard orientation:
 ---------------------------------------------------------------------
 Center     Atomic      Atomic             Coordinates (Angstroms)
 Number     Number       Type             X           Y           Z
 ---------------------------------------------------------------------
      1          6           0        3.338466    2.077540    1.596468
      2          6           0        2.559294    2.720630    0.447021
      3          6           0        2.425096    1.825829   -0.804895
      4          6           0        1.602185    0.590815   -0.515754
      5          6           0        2.104430   -0.711069   -0.258437
      6          6           0        1.195482   -1.750502    0.044754
      7          6           0       -0.150311   -1.471454    0.086453
      8          6           0       -1.361293   -2.331107    0.372729
      9          6           0       -2.503057   -1.338226    0.242052
     10          6           0       -2.009256   -0.061632   -0.082631
     11          6           0       -0.551054   -0.144465   -0.178948
     12          7           0        0.279661    0.852849   -0.469169
     13          6           0       -2.862002    1.027588   -0.257315
     14          6           0       -4.239125    0.848355   -0.106943
     15          6           0       -4.725099   -0.431941    0.218025
     16          6           0       -3.872719   -1.523999    0.393441
     17          6           0       -5.198670    1.999930   -0.288435
     18          6           0        3.527502   -1.147333   -0.260720
     19          8           0        3.882881   -2.279903    0.011944
     20          8           0        4.444932   -0.203807   -0.592278
     21          1           0        2.849259    1.160692    1.944911
     22          1           0        3.408814    2.760473    2.450418
     23          1           0        4.354620    1.811409    1.287305
     24          1           0        1.550656    2.988105    0.784849
     25          1           0        3.050903    3.654502    0.145833
     26          1           0        1.881171    2.388550   -1.570665
     27          1           0        3.409176    1.575896   -1.194657
     28          1           0        1.596219   -2.739863    0.237804
     29          1           0       -1.454145   -3.161637   -0.339686
     30          1           0       -1.318897   -2.781254    1.373470
     31          1           0       -2.448856    2.000527   -0.507443
     32          1           0       -5.797309   -0.571472    0.335482
     33          1           0       -4.280639   -2.499853    0.644347
     34          1           0       -5.790619    2.173113    0.618506
     35          1           0       -4.666420    2.926409   -0.523090
     36          1           0       -5.906922    1.804569   -1.102921
     37          1           0        5.303642   -0.664174   -0.538802
 ---------------------------------------------------------------------

 SCF Done:  E(UB3LYP) =  -863.625099066     A.U. after   22 cycles

 The electronic state is 2-A.
 Alpha  occ. eigenvalues --  -19.03636 -18.96143 -14.15720 -10.15086 -10.07798
 Alpha  occ. eigenvalues --  -10.06715 -10.06158 -10.06130 -10.05464 -10.05049
 Alpha  occ. eigenvalues --  -10.04998 -10.04978 -10.04788 -10.04258 -10.04043
 Alpha  occ. eigenvalues --  -10.03963 -10.03939 -10.03876 -10.03657 -10.03126
 Alpha  occ. eigenvalues --   -0.97426  -0.87566  -0.80458  -0.74507  -0.70024
 Alpha  occ. eigenvalues --   -0.67461  -0.66221  -0.64029  -0.61487  -0.60027
 Alpha  occ. eigenvalues --   -0.56629  -0.54692  -0.52893  -0.49972  -0.47388
 Alpha  occ. eigenvalues --   -0.45459  -0.44882  -0.43824  -0.39376  -0.36951
 Alpha  occ. eigenvalues --   -0.35884  -0.35443  -0.33779  -0.33546  -0.32945
 Alpha  occ. eigenvalues --   -0.32655  -0.32188  -0.31690  -0.31335  -0.30297
 Alpha  occ. eigenvalues --   -0.29311  -0.28888  -0.27911  -0.26719  -0.26461
 Alpha  occ. eigenvalues --   -0.25917  -0.25502  -0.23892  -0.23440  -0.22425
 Alpha  occ. eigenvalues --   -0.22141  -0.21936  -0.21496  -0.20347  -0.19635
 Alpha  occ. eigenvalues --   -0.15767  -0.14704  -0.13904  -0.12409  -0.11582
 Alpha  occ. eigenvalues --   -0.09743   0.02919
 Alpha virt. eigenvalues --    0.07408   0.07863   0.08664   0.09160   0.09319
 Alpha virt. eigenvalues --    0.09977   0.10053   0.10497   0.11312   0.11704
 Alpha virt. eigenvalues --    0.11794   0.12353   0.12549   0.12914   0.12950

  Beta  occ. eigenvalues --  -19.03569 -18.95929 -14.15638 -10.14881 -10.07790
  Beta  occ. eigenvalues --  -10.06710 -10.06238 -10.06128 -10.05460 -10.05047
  Beta  occ. eigenvalues --  -10.04897 -10.04787 -10.04672 -10.04045 -10.04044
  Beta  occ. eigenvalues --  -10.04034 -10.03928 -10.03723 -10.03486 -10.02867
  Beta  occ. eigenvalues --   -0.97183  -0.87229  -0.80142  -0.74322  -0.69876
  Beta  occ. eigenvalues --   -0.67375  -0.65810  -0.63839  -0.61267  -0.59882
  Beta  occ. eigenvalues --   -0.56391  -0.54464  -0.52389  -0.49828  -0.47293
  Beta  occ. eigenvalues --   -0.45311  -0.44667  -0.43669  -0.39231  -0.36777
  Beta  occ. eigenvalues --   -0.35698  -0.35318  -0.33663  -0.33309  -0.32825
  Beta  occ. eigenvalues --   -0.32478  -0.31979  -0.31678  -0.30598  -0.30159
  Beta  occ. eigenvalues --   -0.29231  -0.28759  -0.27830  -0.26638  -0.26366
  Beta  occ. eigenvalues --   -0.25376  -0.25345  -0.23739  -0.23023  -0.22288
  Beta  occ. eigenvalues --   -0.21914  -0.21689  -0.21453  -0.20236  -0.18673
  Beta  occ. eigenvalues --   -0.14483  -0.14416  -0.12991  -0.11817  -0.11442
  Beta  occ. eigenvalues --   -0.08633
  Beta virt. eigenvalues --    0.07377   0.07810   0.08093   0.08635   0.09174
  Beta virt. eigenvalues --    0.09404   0.09953   0.10092   0.10944   0.11296
  Beta virt. eigenvalues --    0.11724   0.12170   0.12485   0.12860   0.12960

 Mulliken charges and spin densities:
               1          2
     1  C   -0.615902  -0.005376
     2  C   -0.211057   0.000176
     3  C   -0.371031  -0.002482
     4  C    0.256447  -0.007017
     5  C   -0.044403   0.101310
     6  C   -0.123880   0.241415
     7  C    0.262784  -0.055493
     8  C   -0.598879  -0.016650
     9  C    0.258629   0.080890
    10  C   -0.234547  -0.027882
    11  C   -1.176177   0.189347
    12  N    0.168245   0.037228
    13  C   -0.832528   0.145799
    14  C    0.774242  -0.063056
    15  C   -0.415734   0.185007
    16  C   -0.063561  -0.008567
    17  C   -0.463545   0.009594
    18  C    0.580613   0.127776
    19  O   -0.393187   0.080614
    20  O   -0.220407   0.011999
    21  H    0.148944  -0.000910
    22  H    0.113056  -0.002596
    23  H    0.109434   0.006949
    24  H    0.131574   0.008650
    25  H    0.116692  -0.000663
    26  H    0.173301  -0.000902
    27  H    0.174019  -0.000127
    28  H    0.182314  -0.017607
    29  H    0.151214   0.004266
    30  H    0.150036   0.004806
    31  H    0.103380  -0.010019
    32  H    0.103067  -0.014827
    33  H    0.107266  -0.000739
    34  H    0.129856   0.000473
    35  H    0.147752  -0.000070
    36  H    0.131675   0.000299
    37  H    0.290298  -0.001618
 Sum of Mulliken charges =  -1.00000   1.00000

 Dipole moment (field-independent basis, Debye):
    X=             -1.2920    Y=              1.9619    Z=              0.3610  Tot=              2.3767
 Quadrupole moment (field-independent basis, Debye-Ang):
   XX=           -167.2512   YY=           -138.4944   ZZ=           -128.6576
   XY=             11.2094   XZ=             -1.5263   YZ=             -0.2894

 Summary of Natural Population Analysis:

                                       Natural Population
                Natural  -----------------------------------------------
    Atom  No    Charge         Core      Valence    Rydberg      Total
 -----------------------------------------------------------------------
      C    1   -0.28906      0.99967     2.28498    0.00441     3.28906
      C    2   -0.18337      0.99964     2.17734    0.00639     3.18337
      C    3   -0.20671      0.99959     2.19855    0.00856     3.20671
      C    4    0.12755      0.99954     1.85963    0.01328     2.87245
      C    5   -0.09690      0.99945     2.08163    0.01582     3.09690
      C    6    0.03968      0.99951     1.95384    0.00698     2.96032
      C    7   -0.07534      0.99954     2.05915    0.01665     3.07534
      C    8   -0.17728      0.99952     2.17325    0.00452     3.17728
      C    9    0.01510      0.99939     1.97570    0.00981     2.98490
      C   10   -0.02933      0.99938     2.02039    0.00956     3.02933
      C   11    0.16077      0.99944     1.82635    0.01344     2.83923
      N   12   -0.24910      0.99965     2.73446    0.01499     3.74910
      C   13   -0.05634      0.99941     2.04803    0.00890     3.05634
      C   14   -0.04434      0.99954     2.03658    0.00823     3.04434
      C   15   -0.06271      0.99953     2.05421    0.00897     3.06271
      C   16   -0.11674      0.99954     2.10710    0.01010     3.11674
      C   17   -0.28840      0.99964     2.28410    0.00466     3.28840
      C   18    0.42141      0.99967     1.55405    0.02488     2.57859
      O   19   -0.31620      0.99987     3.30780    0.00852     4.31620
      O   20   -0.35285      0.99988     3.34637    0.00660     4.35285
      H   21    0.10322      0.00000     0.39588    0.00091     0.39678
      H   22    0.08932      0.00000     0.40971    0.00096     0.41068
      H   23    0.09660      0.00000     0.40230    0.00110     0.40340
      H   24    0.09850      0.00000     0.40019    0.00131     0.40150
      H   25    0.08514      0.00000     0.41357    0.00129     0.41486
      H   26    0.10195      0.00000     0.39683    0.00122     0.39805
      H   27    0.10871      0.00000     0.39024    0.00105     0.39129
      H   28    0.10070      0.00000     0.39792    0.00138     0.39930
      H   29    0.10188      0.00000     0.39657    0.00155     0.39812
      H   30    0.10194      0.00000     0.39652    0.00154     0.39806
      H   31    0.09889      0.00000     0.39941    0.00171     0.40111
      H   32    0.08625      0.00000     0.41228    0.00147     0.41375
      H   33    0.09086      0.00000     0.40702    0.00211     0.40914
      H   34    0.09619      0.00000     0.40276    0.00104     0.40381
      H   35    0.09852      0.00000     0.40060    0.00089     0.40148
      H   36    0.09621      0.00000     0.40275    0.00104     0.40379
      H   37    0.23250      0.00000     0.26443    0.00307     0.26750
 =======================================================================
   * Total *    0.00722     19.99140    50.77249    0.22890    70.99278

 Normal termination of Gaussian 16 at Sat Dec 12 17:51:48 2020.
