 Gaussian 16, Revision A.03,

 -----------------------------------------------------------
 # opt freq B3LYP/6-31G(d) empiricaldispersion=gd3bj scf=xqc
 -----------------------------------------------------------

 ------------------------------
 CID_79600122_JID_9219_neutraal
 ------------------------------
 Symbolic Z-matrix:
 Charge =  0 Multiplicity = 1

 SCF Done:  E(RB3LYP) =  -879.563503053     A.U. after   15 cycles
 SCF Done:  E(RB3LYP) =  -879.572647352     A.U. after   13 cycles
 SCF Done:  E(RB3LYP) =  -879.576609071     A.U. after   14 cycles
 SCF Done:  E(RB3LYP) =  -879.578499699     A.U. after   15 cycles
 SCF Done:  E(RB3LYP) =  -879.579903696     A.U. after   13 cycles
 SCF Done:  E(RB3LYP) =  -879.580954796     A.U. after   12 cycles
 SCF Done:  E(RB3LYP) =  -879.581633424     A.U. after   13 cycles
 SCF Done:  E(RB3LYP) =  -879.582220099     A.U. after   14 cycles
 SCF Done:  E(RB3LYP) =  -879.582499136     A.U. after   12 cycles
 SCF Done:  E(RB3LYP) =  -879.582684394     A.U. after   12 cycles
 SCF Done:  E(RB3LYP) =  -879.582958324     A.U. after   10 cycles
 SCF Done:  E(RB3LYP) =  -879.582960843     A.U. after   10 cycles
 SCF Done:  E(RB3LYP) =  -879.582963129     A.U. after   10 cycles
 SCF Done:  E(RB3LYP) =  -879.582964313     A.U. after   10 cycles
 SCF Done:  E(RB3LYP) =  -879.582964540     A.U. after    8 cycles
 SCF Done:  E(RB3LYP) =  -879.582964556     A.U. after    7 cycles
 Optimization completed.
    -- Stationary point found.
 Normal termination of Gaussian 16 at Sun Dec 13 20:33:16 2020.

 --------------------------------------------------------------------
 #N Geom=AllCheck Guess=TCheck SCRF=Check GenChk RB3LYP/6-31G(d) Freq
 --------------------------------------------------------------------

 Structure from the checkpoint file:  "JID_9219.chk"
 ------------------------------
 CID_79600122_JID_9219_neutraal
 ------------------------------
 Charge =  0 Multiplicity = 1

 SCF Done:  E(RB3LYP) =  -879.582964556     A.U. after    1 cycles

  Exact polarizability: 278.748  -4.980 162.020  -2.594   4.047  98.884
 Approx polarizability: 356.007 -25.552 284.776   0.281  14.164 154.061

                      1                      2                      3
                      A                      A                      A
 Frequencies --     15.8706                36.4531                41.8428
 Red. masses --      5.6971                 3.4678                 4.7618
 Frc consts  --      0.0008                 0.0027                 0.0049
 IR Inten    --      0.9355                 2.7231                 3.7625

                      4                      5                      6
                      A                      A                      A
 Frequencies --     54.4688                78.2954               101.6942
 Red. masses --      5.1870                 4.5456                 3.7309
 Frc consts  --      0.0091                 0.0164                 0.0227
 IR Inten    --      1.0002                 2.1461                 2.1874

                      7                      8                      9
                      A                      A                      A
 Frequencies --    120.2076               185.1919               189.6214
 Red. masses --      3.9042                 2.9479                 1.1417
 Frc consts  --      0.0332                 0.0596                 0.0242
 IR Inten    --      1.5035                 1.0918                 2.4291

                     10                     11                     12
                      A                      A                      A
 Frequencies --    200.4259               217.2066               243.5146
 Red. masses --      1.8596                 6.9070                 4.0683
 Frc consts  --      0.0440                 0.1920                 0.1421
 IR Inten    --     37.1160                 0.9006                13.8004

                     13                     14                     15
                      A                      A                      A
 Frequencies --    253.3793               278.5081               321.2350
 Red. masses --      1.8894                 3.3755                 3.2784
 Frc consts  --      0.0715                 0.1543                 0.1993
 IR Inten    --      7.4359                22.9032                 2.3661

                     16                     17                     18
                      A                      A                      A
 Frequencies --    323.4796               351.7996               370.1664
 Red. masses --      2.3457                 3.6904                 3.7222
 Frc consts  --      0.1446                 0.2691                 0.3005
 IR Inten    --      8.1884                 8.1370                 2.6319

                     19                     20                     21
                      A                      A                      A
 Frequencies --    391.4523               405.4674               427.3699
 Red. masses --      1.2006                 2.4013                 2.6992
 Frc consts  --      0.1084                 0.2326                 0.2905
 IR Inten    --     44.2160                 3.4459                 2.8052

                     22                     23                     24
                      A                      A                      A
 Frequencies --    468.8311               475.2067               477.9109
 Red. masses --      3.0641                 3.1377                 3.4989
 Frc consts  --      0.3968                 0.4175                 0.4708
 IR Inten    --      0.6705                 0.1422                 3.9760

                     25                     26                     27
                      A                      A                      A
 Frequencies --    521.9595               557.5021               586.8554
 Red. masses --      3.6686                 5.9936                 3.0140
 Frc consts  --      0.5889                 1.0976                 0.6116
 IR Inten    --      2.0509                22.8334                 2.4714

                     28                     29                     30
                      A                      A                      A
 Frequencies --    592.3813               592.9502               603.2863
 Red. masses --      2.8807                 4.5448                 3.7291
 Frc consts  --      0.5956                 0.9415                 0.7997
 IR Inten    --      5.1061                19.0578                 3.5967

                     31                     32                     33
                      A                      A                      A
 Frequencies --    619.1679               664.1693               695.5495
 Red. masses --      3.0604                 3.9441                 3.0532
 Frc consts  --      0.6913                 1.0251                 0.8703
 IR Inten    --     19.8001                 6.7680                 5.4297

                     34                     35                     36
                      A                      A                      A
 Frequencies --    722.2290               731.9066               737.9374
 Red. masses --      3.1431                 3.3547                 5.4430
 Frc consts  --      0.9660                 1.0588                 1.7463
 IR Inten    --      7.5251                 1.1126                 1.2676

                     37                     38                     39
                      A                      A                      A
 Frequencies --    820.3597               852.8649               867.5287
 Red. masses --      1.4837                 1.5845                 1.6395
 Frc consts  --      0.5883                 0.6790                 0.7270
 IR Inten    --     14.8348                23.1089                 2.8659

                     40                     41                     42
                      A                      A                      A
 Frequencies --    879.3136               949.7630               963.7216
 Red. masses --      3.9599                 2.5278                 2.1306
 Frc consts  --      1.8039                 1.3435                 1.1659
 IR Inten    --     10.1578                 6.5339                59.8977

                     43                     44                     45
                      A                      A                      A
 Frequencies --    986.0444               990.0178              1007.2160
 Red. masses --      1.3200                 2.4276                 2.6850
 Frc consts  --      0.7561                 1.4019                 1.6049
 IR Inten    --      1.6825                 6.3397                44.3561

                     46                     47                     48
                      A                      A                      A
 Frequencies --   1016.4484              1053.3516              1059.2292
 Red. masses --      1.8961                 1.7999                 2.0358
 Frc consts  --      1.1542                 1.1766                 1.3458
 IR Inten    --     98.9582                 2.5736                19.0505

                     49                     50                     51
                      A                      A                      A
 Frequencies --   1061.7111              1077.9664              1086.4876
 Red. masses --      2.0365                 2.0811                 1.7409
 Frc consts  --      1.3525                 1.4248                 1.2108
 IR Inten    --     22.7612                 5.9389                 4.0388

                     52                     53                     54
                      A                      A                      A
 Frequencies --   1091.8226              1144.9529              1168.4215
 Red. masses --      2.3000                 2.1230                 1.8395
 Frc consts  --      1.6154                 1.6397                 1.4796
 IR Inten    --      1.4076                22.4754                16.4317

                     55                     56                     57
                      A                      A                      A
 Frequencies --   1190.5028              1218.9825              1237.8884
 Red. masses --      3.2315                 1.4033                 1.4757
 Frc consts  --      2.6984                 1.2286                 1.3323
 IR Inten    --     49.6197               207.4391                73.0545

                     58                     59                     60
                      A                      A                      A
 Frequencies --   1250.3092              1257.5379              1279.5369
 Red. masses --      1.3416                 2.2425                 2.2682
 Frc consts  --      1.2357                 2.0894                 2.1880
 IR Inten    --     23.2742               193.1024               424.3238

                     61                     62                     63
                      A                      A                      A
 Frequencies --   1288.5479              1312.4986              1324.6410
 Red. masses --      1.8929                 2.3794                 1.5959
 Frc consts  --      1.8518                 2.4150                 1.6499
 IR Inten    --     17.8210               105.8910                55.0604

                     64                     65                     66
                      A                      A                      A
 Frequencies --   1342.3384              1374.9297              1382.2121
 Red. masses --      1.4380                 2.9330                 1.2900
 Frc consts  --      1.5266                 3.2668                 1.4521
 IR Inten    --     21.7235                19.1472                 2.9826

                     67                     68                     69
                      A                      A                      A
 Frequencies --   1403.1314              1405.4921              1414.1466
 Red. masses --      1.3785                 1.3797                 1.2765
 Frc consts  --      1.5991                 1.6058                 1.5040
 IR Inten    --      5.9598               116.7890                11.2076

                     70                     71                     72
                      A                      A                      A
 Frequencies --   1420.0285              1428.6347              1433.4687
 Red. masses --      1.8687                 1.5949                 1.7384
 Frc consts  --      2.2202                 1.9179                 2.1046
 IR Inten    --      9.5284                59.8855                88.9055

                     73                     74                     75
                      A                      A                      A
 Frequencies --   1481.1015              1500.8104              1501.6036
 Red. masses --      2.3790                 1.1714                 2.2493
 Frc consts  --      3.0748                 1.5546                 2.9882
 IR Inten    --    274.5274                 1.8417                68.6382

                     76                     77                     78
                      A                      A                      A
 Frequencies --   1509.8176              1514.8927              1517.9998
 Red. masses --      1.0838                 1.0912                 1.1066
 Frc consts  --      1.4556                 1.4754                 1.5024
 IR Inten    --     11.5471                 1.2119                21.3786

                     79                     80                     81
                      A                      A                      A
 Frequencies --   1523.0726              1525.8000              1527.6487
 Red. masses --      1.1886                 1.1338                 1.0522
 Frc consts  --      1.6246                 1.5551                 1.4468
 IR Inten    --      9.6130                12.8228                11.3540

                     82                     83                     84
                      A                      A                      A
 Frequencies --   1530.3659              1551.1023              1604.8233
 Red. masses --      1.1182                 2.7707                 6.9085
 Frc consts  --      1.5430                 3.9275                10.4830
 IR Inten    --     20.5575                39.2123               109.6082

                     85                     86                     87
                      A                      A                      A
 Frequencies --   1674.9166              1755.3123              1768.9580
 Red. masses --      5.8572                10.0177                 9.7105
 Frc consts  --      9.6812                18.1855                17.9030
 IR Inten    --    650.9731               174.6706               317.3471

                     88                     89                     90
                      A                      A                      A
 Frequencies --   2971.5943              2980.5993              3021.3257
 Red. masses --      1.0742                 1.0721                 1.0440
 Frc consts  --      5.5890                 5.6118                 5.6151
 IR Inten    --     45.2052                54.0998                 7.6286

                     91                     92                     93
                      A                      A                      A
 Frequencies --   3032.6231              3041.6457              3058.7791
 Red. masses --      1.0727                 1.0718                 1.0398
 Frc consts  --      5.8123                 5.8421                 5.7317
 IR Inten    --     29.7753                58.5380                 6.1587

                     94                     95                     96
                      A                      A                      A
 Frequencies --   3090.6687              3119.4921              3124.1059
 Red. masses --      1.0982                 1.1011                 1.0911
 Frc consts  --      6.1805                 6.3130                 6.2742
 IR Inten    --      9.3622                12.2289                17.2763

                     97                     98                     99
                      A                      A                      A
 Frequencies --   3155.5184              3162.6259              3165.2603
 Red. masses --      1.0892                 1.0963                 1.0907
 Frc consts  --      6.3902                 6.4607                 6.4383
 IR Inten    --     13.2987                 7.4719                17.2156

                    100                    101                    102
                      A                      A                      A
 Frequencies --   3170.9364              3180.3489              3214.2010
 Red. masses --      1.0928                 1.0995                 1.0870
 Frc consts  --      6.4741                 6.5523                 6.6162
 IR Inten    --      4.1944                 7.2834                 8.0484

                    103                    104                    105
                      A                      A                      A
 Frequencies --   3230.9516              3244.5877              3811.7722
 Red. masses --      1.0933                 1.0895                 1.0645
 Frc consts  --      6.7241                 6.7575                 9.1125
 IR Inten    --      8.5724                 3.5444               137.4480

 - Thermochemistry -
 -------------------
 Temperature   298.150 Kelvin.  Pressure   1.00000 Atm.
 Atom     1 has atomic number  6 and mass  12.00000

 Molecular mass:   262.13174 amu.
 Principal axes and moments of inertia in atomic units:
                           1         2         3
     Eigenvalues --  1469.86483********************
           X            0.99991   0.01301  -0.00147
           Y           -0.01302   0.99985  -0.01176
           Z            0.00131   0.01178   0.99993
 This molecule is an asymmetric top.
 Rotational symmetry number  1.
 Warning -- assumption of classical behavior for rotation
           may cause significant error
 Rotational temperatures (Kelvin)      0.05893     0.00675     0.00624
 Rotational constants (GHZ):           1.22783     0.14056     0.12994
 Zero-point vibrational energy     813238.2 (Joules/Mol)
                                  194.36859 (Kcal/Mol)
 Warning -- explicit consideration of  31 degrees of freedom as
           vibrations may cause significant error
 Vibrational temperatures:     22.83    52.45    60.20    78.37   112.65
          (Kelvin)            146.32   172.95   266.45   272.82   288.37
                              312.51   350.36   364.56   400.71   462.19
                              465.41   506.16   532.59   563.21   583.38
                              614.89   674.54   683.72   687.61   750.98
                              802.12   844.35   852.30   853.12   867.99
                              890.84   955.59  1000.74  1039.13  1053.05
                             1061.73  1180.31  1227.08  1248.18  1265.14
                             1366.50  1386.58  1418.70  1424.41  1449.16
                             1462.44  1515.54  1523.99  1527.57  1550.95
                             1563.21  1570.89  1647.33  1681.10  1712.87
                             1753.84  1781.05  1798.92  1809.32  1840.97
                             1853.93  1888.39  1905.86  1931.33  1978.22
                             1988.69  2018.79  2022.19  2034.64  2043.10
                             2055.49  2062.44  2130.97  2159.33  2160.47
                             2172.29  2179.59  2184.06  2191.36  2195.29
                             2197.95  2201.86  2231.69  2308.98  2409.83
                             2525.50  2545.14  4275.46  4288.42  4347.01
                             4363.27  4376.25  4400.90  4446.78  4488.25
                             4494.89  4540.09  4550.31  4554.10  4562.27
                             4575.81  4624.52  4648.62  4668.24  5484.29

 Zero-point correction=                           0.309746 (Hartree/Particle)
 Thermal correction to Energy=                    0.327723
 Thermal correction to Enthalpy=                  0.328667
 Thermal correction to Gibbs Free Energy=         0.262128
 Sum of electronic and zero-point Energies=           -879.273218
 Sum of electronic and thermal Energies=              -879.255242
 Sum of electronic and thermal Enthalpies=            -879.254298
 Sum of electronic and thermal Free Energies=         -879.320836

                     E (Thermal)             CV                S
                      KCal/Mol        Cal/Mol-Kelvin    Cal/Mol-Kelvin
 Total                  205.649             68.869            140.042
 Electronic               0.000              0.000              0.000
 Translational            0.889              2.981             42.591
 Rotational               0.889              2.981             33.927
 Vibrational            203.872             62.907             63.524
 Vibration     1          0.593              1.986              7.093
 Vibration     2          0.594              1.982              5.443
 Vibration     3          0.594              1.980              5.170
 Vibration     4          0.596              1.976              4.648
 Vibration     5          0.600              1.964              3.933
 Vibration     6          0.604              1.948              3.422
 Vibration     7          0.609              1.932              3.097
 Vibration     8          0.631              1.860              2.275
 Vibration     9          0.633              1.854              2.232
 Vibration    10          0.638              1.839              2.129
 Vibration    11          0.646              1.815              1.982
 Vibration    12          0.659              1.773              1.777
 Vibration    13          0.665              1.757              1.707
 Vibration    14          0.679              1.713              1.543
 Vibration    15          0.707              1.633              1.304
 Vibration    16          0.708              1.628              1.292
 Vibration    17          0.728              1.572              1.158
 Vibration    18          0.742              1.534              1.079
 Vibration    19          0.759              1.488              0.995
 Vibration    20          0.770              1.458              0.943
 Vibration    21          0.789              1.411              0.867
 Vibration    22          0.826              1.319              0.741
 Vibration    23          0.832              1.305              0.723
 Vibration    24          0.834              1.299              0.716
 Vibration    25          0.877              1.201              0.605
 Vibration    26          0.913              1.123              0.529
 Vibration    27          0.944              1.060              0.473
 Vibration    28          0.950              1.048              0.463
 Vibration    29          0.951              1.047              0.462
 Vibration    30          0.962              1.025              0.444
 Vibration    31          0.979              0.991              0.418

 Optimization completed.
    -- Stationary point found.
 Normal termination of Gaussian 16 at Sun Dec 13 20:51:32 2020.

 ----------------------------------------------------------------------
 # B3LYP/6-311++G(d,p) empiricaldispersion=gd3bj scf=xqc pop=npa geom=c
 heck
 ----------------------------------------------------------------------

 --------------------------------------
 CID_79600122_JID_9219_Energie_neutraal
 --------------------------------------
 Structure from the checkpoint file:  "JID_9219.chk"
 Charge =  0 Multiplicity = 1

 SCF Done:  E(RB3LYP) =  -879.834184000     A.U. after   15 cycles
 Normal termination of Gaussian 16 at Sun Dec 13 20:59:40 2020.

 ----------------------------------------------------------------------
 # B3LYP/6-311++G(d,p) empiricaldispersion=gd3bj scf=xqc pop=npa geom=c
 heck
 ----------------------------------------------------------------------

 ------------------------------------
 CID_79600122_JID_9219_Energie_kation
 ------------------------------------
 Structure from the checkpoint file:  "JID_9219.chk"
 Charge =  1 Multiplicity = 2

 SCF Done:  E(UB3LYP) =  -879.552899731     A.U. after   27 cycles
 Normal termination of Gaussian 16 at Sun Dec 13 21:20:45 2020.
 Gaussian 16:  ES64L-G16RevA.03 25-Dec-2016

 ----------------------------------------------------------------------
 # B3LYP/6-311++G(d,p) empiricaldispersion=gd3bj scf=xqc pop=npa geom=c
 heck
 ----------------------------------------------------------------------

 -----------------------------------
 CID_79600122_JID_9219_Energie_anion
 -----------------------------------
 Structure from the checkpoint file:  "JID_9219.chk"
 Charge = -1 Multiplicity = 2

                         Standard orientation:
 ---------------------------------------------------------------------
 Center     Atomic      Atomic             Coordinates (Angstroms)
 Number     Number       Type             X           Y           Z
 ---------------------------------------------------------------------
      1          6           0        5.782188    0.747542    0.233621
      2          6           0        4.841153   -0.445770    0.093279
      3          8           0        5.334448   -1.564949    0.017074
      4          6           0        3.369373   -0.258369    0.035970
      5          6           0        2.648713    0.951048    0.160377
      6          6           0        1.254548    0.971837    0.051702
      7          6           0        0.520354   -0.194133   -0.190261
      8          6           0        1.233118   -1.413408   -0.306852
      9          6           0        2.603913   -1.424396   -0.192573
     10          7           0       -0.868710   -0.172232   -0.353160
     11          6           0       -1.552159    1.119066   -0.397164
     12          6           0       -2.932192    0.969052   -1.038403
     13          7           0       -3.708408   -0.062846   -0.365638
     14          6           0       -3.032928   -1.348728   -0.318063
     15          6           0       -1.657539   -1.198005    0.333832
     16          6           0       -4.887233    0.266559    0.263585
     17          8           0       -5.334410    1.407635    0.238265
     18          6           0       -5.623811   -0.851139    0.988431
     19          8           0        3.197448    2.175097    0.407830
     20          1           0        6.807075    0.384399    0.140447
     21          1           0        5.687118    1.215714    1.224628
     22          1           0        5.606944    1.503782   -0.542171
     23          1           0        0.772895    1.929329    0.199221
     24          1           0        0.709664   -2.334784   -0.534195
     25          1           0        3.155620   -2.351752   -0.300053
     26          1           0       -1.659301    1.552999    0.612049
     27          1           0       -0.959831    1.808263   -1.003266
     28          1           0       -2.810304    0.694305   -2.094959
     29          1           0       -3.492392    1.901368   -0.972657
     30          1           0       -2.906050   -1.729394   -1.341507
     31          1           0       -3.625995   -2.071635    0.241309
     32          1           0       -1.133487   -2.152900    0.299113
     33          1           0       -1.791917   -0.927298    1.396050
     34          1           0       -5.855468   -1.689521    0.322456
     35          1           0       -5.040717   -1.240815    1.830616
     36          1           0       -6.554564   -0.431369    1.370085
     37          1           0        4.145657    2.095655    0.574195
 ---------------------------------------------------------------------

 SCF Done:  E(UB3LYP) =  -879.841786336     A.U. after   32 cycles

 The electronic state is 2-A.
 Alpha  occ. eigenvalues --  -19.04354 -18.99987 -18.95079 -14.25624 -14.22677
 Alpha  occ. eigenvalues --  -10.18845 -10.12447 -10.11802 -10.11568 -10.11179
 Alpha  occ. eigenvalues --  -10.11156 -10.10407 -10.09053 -10.09007 -10.06789
 Alpha  occ. eigenvalues --  -10.04671 -10.04566 -10.04411 -10.04361  -0.95676
 Alpha  occ. eigenvalues --   -0.95343  -0.89130  -0.87205  -0.83300  -0.72722
 Alpha  occ. eigenvalues --   -0.69411  -0.67044  -0.64711  -0.63232  -0.62647
 Alpha  occ. eigenvalues --   -0.59872  -0.57004  -0.53790  -0.50695  -0.48896
 Alpha  occ. eigenvalues --   -0.46494  -0.44934  -0.42252  -0.40576  -0.39434
 Alpha  occ. eigenvalues --   -0.39026  -0.38514  -0.37537  -0.36976  -0.35440
 Alpha  occ. eigenvalues --   -0.34538  -0.33792  -0.33693  -0.32680  -0.32221
 Alpha  occ. eigenvalues --   -0.31653  -0.30720  -0.30105  -0.29684  -0.28773
 Alpha  occ. eigenvalues --   -0.28421  -0.28075  -0.27526  -0.27043  -0.26475
 Alpha  occ. eigenvalues --   -0.24963  -0.24447  -0.22847  -0.22335  -0.17272
 Alpha  occ. eigenvalues --   -0.17144  -0.15636  -0.12035  -0.11640  -0.09719
 Alpha  occ. eigenvalues --    0.03536
 Alpha virt. eigenvalues --    0.05190   0.07378   0.07495   0.07821   0.08081
 Alpha virt. eigenvalues --    0.09397   0.09964   0.10218   0.10484   0.10852
 Alpha virt. eigenvalues --    0.11139   0.11347   0.11509   0.11966   0.12539

  Beta  occ. eigenvalues --  -19.04319 -18.99984 -18.94692 -14.25624 -14.22670
  Beta  occ. eigenvalues --  -10.18843 -10.12428 -10.11669 -10.11562 -10.11155
  Beta  occ. eigenvalues --  -10.11140 -10.10101 -10.09019 -10.08730 -10.06813
  Beta  occ. eigenvalues --  -10.04757 -10.04609 -10.04375 -10.04216  -0.95581
  Beta  occ. eigenvalues --   -0.95336  -0.88407  -0.87159  -0.83207  -0.72519
  Beta  occ. eigenvalues --   -0.69384  -0.66948  -0.64451  -0.63074  -0.62475
  Beta  occ. eigenvalues --   -0.59786  -0.56935  -0.53643  -0.50549  -0.48776
  Beta  occ. eigenvalues --   -0.46390  -0.44575  -0.42074  -0.40484  -0.39364
  Beta  occ. eigenvalues --   -0.38980  -0.38452  -0.37477  -0.36882  -0.35252
  Beta  occ. eigenvalues --   -0.34461  -0.33668  -0.33250  -0.32657  -0.32179
  Beta  occ. eigenvalues --   -0.31596  -0.30649  -0.29993  -0.29375  -0.28527
  Beta  occ. eigenvalues --   -0.28284  -0.28001  -0.27472  -0.26991  -0.26371
  Beta  occ. eigenvalues --   -0.24737  -0.23447  -0.22241  -0.21646  -0.17250
  Beta  occ. eigenvalues --   -0.16700  -0.15311  -0.11624  -0.11301  -0.09073
  Beta virt. eigenvalues --    0.05791   0.07388   0.07573   0.07998   0.08161
  Beta virt. eigenvalues --    0.08857   0.09496   0.10022   0.10299   0.10472
  Beta virt. eigenvalues --    0.10864   0.11259   0.11522   0.11608   0.12079

 Mulliken charges and spin densities:
               1          2
     1  C   -0.487724  -0.011112
     2  C   -0.380164   0.170604
     3  O   -0.381250   0.141296
     4  C    1.804702  -0.017461
     5  C   -1.204846   0.078002
     6  C   -0.674000  -0.039287
     7  C   -0.115877   0.049972
     8  C   -0.069596  -0.037269
     9  C   -0.108106   0.221297
    10  N    0.234028   0.053656
    11  C    0.271868  -0.063387
    12  C   -0.804756  -0.040007
    13  N    0.100899   0.056157
    14  C   -0.290215  -0.177292
    15  C    0.051365  -0.454432
    16  C   -0.342496   0.496847
    17  O   -0.352715  -0.000009
    18  C    0.715120  -1.215524
    19  O   -0.252031   0.008101
    20  H    0.179489  -0.000099
    21  H    0.121919   0.010036
    22  H    0.133333   0.009420
    23  H    0.142572   0.029428
    24  H    0.061412   0.063813
    25  H    0.178376  -0.009513
    26  H    0.110428   0.039046
    27  H    0.171440  -0.013153
    28  H    0.116567   0.036969
    29  H    0.182632   0.047533
    30  H    0.015243   0.147060
    31  H   -0.211620   0.392735
    32  H    0.060783   0.052257
    33  H    0.000984   0.184355
    34  H   -0.193694   0.358223
    35  H   -0.228712   0.394763
    36  H    0.147942   0.033793
    37  H    0.296701   0.003182
 Sum of Mulliken charges =  -1.00000   1.00000

 Dipole moment (field-independent basis, Debye):
    X=             -2.0297    Y=              2.6512    Z=             -1.5139  Tot=              3.6661
 Quadrupole moment (field-independent basis, Debye-Ang):
   XX=           -230.3886   YY=           -142.9365   ZZ=           -129.5497
   XY=             21.4600   XZ=              8.5778   YZ=              1.2634

 Summary of Natural Population Analysis:

                                       Natural Population
                Natural  -----------------------------------------------
    Atom  No    Charge         Core      Valence    Rydberg      Total
 -----------------------------------------------------------------------
      C    1   -0.34280      0.99964     2.33834    0.00482     3.34280
      C    2    0.30333      0.99965     1.67637    0.02065     2.69667
      O    3   -0.27199      0.99988     3.26513    0.00698     4.27199
      C    4   -0.12406      0.99943     2.11550    0.00913     3.12406
      C    5    0.20230      0.99938     1.78573    0.01259     2.79770
      C    6   -0.17508      0.99950     2.16741    0.00817     3.17508
      C    7    0.14992      0.99949     1.83974    0.01085     2.85008
      C    8   -0.15813      0.99953     2.15048    0.00812     3.15813
      C    9   -0.02755      0.99956     2.01929    0.00870     3.02755
      N   10   -0.26037      0.99965     2.75022    0.01050     3.76037
      C   11   -0.08843      0.99962     2.08015    0.00866     3.08843
      C   12   -0.08993      0.99961     2.08077    0.00955     3.08993
      N   13   -0.25854      0.99964     2.74822    0.01067     3.75854
      C   14   -0.08832      0.99960     2.07730    0.01142     3.08832
      C   15   -0.08360      0.99960     2.07204    0.01195     3.08360
      C   16    0.34525      0.99966     1.63228    0.02280     2.65475
      O   17   -0.32933      0.99988     3.32374    0.00571     4.32933
      C   18   -0.33280      0.99963     2.32807    0.00509     3.33280
      O   19   -0.34690      0.99987     3.34052    0.00651     4.34690
      H   20    0.11148      0.00000     0.38697    0.00155     0.38852
      H   21    0.09805      0.00000     0.40070    0.00126     0.40195
      H   22    0.10034      0.00000     0.39831    0.00135     0.39966
      H   23    0.10104      0.00000     0.39652    0.00244     0.39896
      H   24    0.09560      0.00000     0.40327    0.00113     0.40440
      H   25    0.10855      0.00000     0.39030    0.00116     0.39145
      H   26    0.08736      0.00000     0.41078    0.00186     0.41264
      H   27    0.10368      0.00000     0.39481    0.00152     0.39632
      H   28    0.09256      0.00000     0.40613    0.00132     0.40744
      H   29    0.11739      0.00000     0.38138    0.00123     0.38261
      H   30    0.09362      0.00000     0.40480    0.00158     0.40638
      H   31    0.10601      0.00000     0.39257    0.00142     0.39399
      H   32    0.10464      0.00000     0.39403    0.00134     0.39536
      H   33    0.08616      0.00000     0.41210    0.00175     0.41384
      H   34    0.10766      0.00000     0.39133    0.00102     0.39234
      H   35    0.11157      0.00000     0.38701    0.00142     0.38843
      H   36    0.11253      0.00000     0.38667    0.00080     0.38747
      H   37    0.23877      0.00000     0.25866    0.00257     0.26123
 =======================================================================
   * Total *    0.00000     18.99282    50.78758    0.21960    70.00000

 Normal termination of Gaussian 16 at Sun Dec 13 21:45:06 2020.
