 Gaussian 16, Revision A.03,

 -----------------------------------------------------------
 # opt freq B3LYP/6-31G(d) empiricaldispersion=gd3bj scf=xqc
 -----------------------------------------------------------

 --------------------------------
 CID_115375807_JID_10553_neutraal
 --------------------------------
 Symbolic Z-matrix:
 Charge =  0 Multiplicity = 1

 SCF Done:  E(RB3LYP) =  -860.707019880     A.U. after   15 cycles
 SCF Done:  E(RB3LYP) =  -860.704463635     A.U. after   14 cycles
 SCF Done:  E(RB3LYP) =  -860.713527820     A.U. after   12 cycles
 SCF Done:  E(RB3LYP) =  -860.714601792     A.U. after   13 cycles
 SCF Done:  E(RB3LYP) =  -860.715607183     A.U. after   13 cycles
 SCF Done:  E(RB3LYP) =  -860.716585234     A.U. after   12 cycles
 SCF Done:  E(RB3LYP) =  -860.717040699     A.U. after   12 cycles
 SCF Done:  E(RB3LYP) =  -860.717223567     A.U. after   11 cycles
 SCF Done:  E(RB3LYP) =  -860.717252619     A.U. after   11 cycles
 SCF Done:  E(RB3LYP) =  -860.717293070     A.U. after   10 cycles
 SCF Done:  E(RB3LYP) =  -860.717300414     A.U. after    9 cycles
 SCF Done:  E(RB3LYP) =  -860.717301768     A.U. after    8 cycles
 SCF Done:  E(RB3LYP) =  -860.717302292     A.U. after    8 cycles
 SCF Done:  E(RB3LYP) =  -860.717302439     A.U. after    8 cycles
 Optimization completed.
    -- Stationary point found.
 Normal termination of Gaussian 16 at Sat Dec 12 15:59:04 2020.

 --------------------------------------------------------------------
 #N Geom=AllCheck Guess=TCheck SCRF=Check GenChk RB3LYP/6-31G(d) Freq
 --------------------------------------------------------------------

 Structure from the checkpoint file:  "JID_10553.chk"
 --------------------------------
 CID_115375807_JID_10553_neutraal
 --------------------------------
 Charge =  0 Multiplicity = 1

 SCF Done:  E(RB3LYP) =  -860.717302439     A.U. after    1 cycles

  Exact polarizability: 202.568  10.153 210.827 -31.029  -6.055 147.521
 Approx polarizability: 292.230  10.858 353.105 -72.794 -10.129 256.084

                      1                      2                      3
                      A                      A                      A
 Frequencies --     30.8069                45.3176                52.4528
 Red. masses --      4.1792                 4.5109                 4.6815
 Frc consts  --      0.0023                 0.0055                 0.0076
 IR Inten    --      0.3915                 1.8252                 0.2374

                      4                      5                      6
                      A                      A                      A
 Frequencies --     80.1290                87.5003               109.8667
 Red. masses --      4.9238                 3.5524                 3.9978
 Frc consts  --      0.0186                 0.0160                 0.0284
 IR Inten    --      2.2048                 0.5279                 0.2583

                      7                      8                      9
                      A                      A                      A
 Frequencies --    132.3793               163.9634               187.1906
 Red. masses --      3.3113                 2.1751                 2.8877
 Frc consts  --      0.0342                 0.0345                 0.0596
 IR Inten    --      2.3110                 1.7933                 2.9036

                     10                     11                     12
                      A                      A                      A
 Frequencies --    204.8354               207.3043               223.8120
 Red. masses --      2.6226                 1.1092                 1.8525
 Frc consts  --      0.0648                 0.0281                 0.0547
 IR Inten    --      1.1809                 0.5352                 1.2438

                     13                     14                     15
                      A                      A                      A
 Frequencies --    258.9974               286.0489               307.3459
 Red. masses --      2.6116                 2.5916                 1.3653
 Frc consts  --      0.1032                 0.1249                 0.0760
 IR Inten    --      4.6316                 5.7098                 3.7164

                     16                     17                     18
                      A                      A                      A
 Frequencies --    309.0126               321.4715               335.8949
 Red. masses --      1.6590                 2.1599                 4.1492
 Frc consts  --      0.0933                 0.1315                 0.2758
 IR Inten    --     20.6906                 1.7172                 2.5661

                     19                     20                     21
                      A                      A                      A
 Frequencies --    345.8361               372.2022               385.2193
 Red. masses --      3.3913                 3.0964                 2.9827
 Frc consts  --      0.2390                 0.2527                 0.2608
 IR Inten    --      1.8278                 4.2383                 0.2125

                     22                     23                     24
                      A                      A                      A
 Frequencies --    391.4956               444.2606               469.0291
 Red. masses --      4.6459                 3.3626                 3.8016
 Frc consts  --      0.4195                 0.3910                 0.4927
 IR Inten    --      0.5435                 1.7625                 3.7938

                     25                     26                     27
                      A                      A                      A
 Frequencies --    488.0485               506.2353               533.4973
 Red. masses --      3.2331                 3.3579                 3.1930
 Frc consts  --      0.4537                 0.5070                 0.5354
 IR Inten    --     10.2198                19.2971                30.7575

                     28                     29                     30
                      A                      A                      A
 Frequencies --    556.8651               560.9796               579.6226
 Red. masses --      3.8091                 4.2755                 1.6247
 Frc consts  --      0.6959                 0.7927                 0.3216
 IR Inten    --      0.9661                 2.4565                29.8479

                     31                     32                     33
                      A                      A                      A
 Frequencies --    610.7461               621.2831               637.0087
 Red. masses --      2.6292                 4.5748                 1.7444
 Frc consts  --      0.5778                 1.0404                 0.4171
 IR Inten    --     89.5799                23.6621               255.0104

                     34                     35                     36
                      A                      A                      A
 Frequencies --    665.7763               712.8891               726.8018
 Red. masses --      4.5777                 4.8958                 4.2024
 Frc consts  --      1.1955                 1.4659                 1.3079
 IR Inten    --     15.6665                 3.2622                32.4257

                     37                     38                     39
                      A                      A                      A
 Frequencies --    741.3315               762.9047               762.9300
 Red. masses --      3.4890                 2.4274                 2.2227
 Frc consts  --      1.1297                 0.8324                 0.7622
 IR Inten    --      0.9980                33.1200                52.0925

                     40                     41                     42
                      A                      A                      A
 Frequencies --    794.9526               812.1758               829.2484
 Red. masses --      3.2444                 1.9645                 2.1770
 Frc consts  --      1.2080                 0.7635                 0.8820
 IR Inten    --      7.6161                 8.8232                14.1993

                     43                     44                     45
                      A                      A                      A
 Frequencies --    859.0919               867.5118               893.5796
 Red. masses --      1.6988                 3.7907                 1.5022
 Frc consts  --      0.7387                 1.6808                 0.7067
 IR Inten    --      1.6085                15.8553                13.5032

                     46                     47                     48
                      A                      A                      A
 Frequencies --    938.2954               944.3729               949.7465
 Red. masses --      1.3793                 2.9416                 1.4178
 Frc consts  --      0.7155                 1.5457                 0.7535
 IR Inten    --      3.1242                19.5595                 5.5532

                     49                     50                     51
                      A                      A                      A
 Frequencies --    971.3519              1015.6424              1035.2275
 Red. masses --      1.2463                 1.5856                 2.4428
 Frc consts  --      0.6928                 0.9636                 1.5425
 IR Inten    --      0.1813                 1.3296                25.5304

                     52                     53                     54
                      A                      A                      A
 Frequencies --   1061.4841              1076.1927              1084.0391
 Red. masses --      2.6070                 1.4790                 1.5477
 Frc consts  --      1.7307                 1.0092                 1.0716
 IR Inten    --      4.4534                 4.8358                13.3084

                     55                     56                     57
                      A                      A                      A
 Frequencies --   1093.8182              1132.1750              1137.3126
 Red. masses --      1.8403                 1.2571                 2.5293
 Frc consts  --      1.2973                 0.9494                 1.9276
 IR Inten    --      3.5112                13.2068                41.2010

                     58                     59                     60
                      A                      A                      A
 Frequencies --   1144.1943              1178.8309              1186.2026
 Red. masses --      2.2520                 1.2554                 1.4288
 Frc consts  --      1.7370                 1.0279                 1.1845
 IR Inten    --     47.9670                 7.9821                16.8221

                     61                     62                     63
                      A                      A                      A
 Frequencies --   1189.5326              1197.2763              1235.0736
 Red. masses --      1.4410                 1.1090                 2.4369
 Frc consts  --      1.2014                 0.9366                 2.1901
 IR Inten    --      2.5393                 7.4717                11.9076

                     64                     65                     66
                      A                      A                      A
 Frequencies --   1245.5320              1263.2716              1303.8915
 Red. masses --      2.7408                 2.7149                 2.4214
 Frc consts  --      2.5052                 2.5527                 2.4255
 IR Inten    --     23.6297                13.9552                17.8898

                     67                     68                     69
                      A                      A                      A
 Frequencies --   1322.0149              1332.7928              1350.6085
 Red. masses --      1.8510                 2.2810                 3.7848
 Frc consts  --      1.9060                 2.3872                 4.0677
 IR Inten    --     98.5190               114.5135                 0.6168

                     70                     71                     72
                      A                      A                      A
 Frequencies --   1359.4370              1366.7700              1377.5356
 Red. masses --      2.3294                 3.0967                 4.0002
 Frc consts  --      2.5364                 3.4083                 4.4723
 IR Inten    --     61.0857                94.2441                61.0913

                     73                     74                     75
                      A                      A                      A
 Frequencies --   1434.5918              1450.1525              1469.6534
 Red. masses --      1.4234                 2.1077                 1.1638
 Frc consts  --      1.7260                 2.6114                 1.4810
 IR Inten    --      5.9232                31.2055                 3.6269

                     76                     77                     78
                      A                      A                      A
 Frequencies --   1483.8317              1500.4051              1508.1609
 Red. masses --      1.7103                 1.2920                 2.3532
 Frc consts  --      2.2186                 1.7136                 3.1535
 IR Inten    --     22.9736                 0.4300                68.3850

                     79                     80                     81
                      A                      A                      A
 Frequencies --   1511.5710              1515.7683              1523.9753
 Red. masses --      1.1683                 1.0677                 1.0703
 Frc consts  --      1.5727                 1.4454                 1.4646
 IR Inten    --      0.1813                 4.4610                22.2631

                     82                     83                     84
                      A                      A                      A
 Frequencies --   1529.3097              1539.6491              1542.5444
 Red. masses --      1.0787                 1.1067                 2.4979
 Frc consts  --      1.4864                 1.5457                 3.5018
 IR Inten    --     26.4339                 5.0890                33.4103

                     85                     86                     87
                      A                      A                      A
 Frequencies --   1552.9315              1560.7221              1631.0871
 Red. masses --      1.1702                 2.1847                 5.7496
 Frc consts  --      1.6627                 3.1355                 9.0124
 IR Inten    --     10.8203                75.0850                19.7338

                     88                     89                     90
                      A                      A                      A
 Frequencies --   1632.9342              1664.5480              1669.4529
 Red. masses --      5.3871                 4.4039                 5.5490
 Frc consts  --      8.4633                 7.1891                 9.1120
 IR Inten    --     32.8822                22.9069                96.9506

                     91                     92                     93
                      A                      A                      A
 Frequencies --   1694.3775              1768.6513              2969.4359
 Red. masses --      1.2806                 8.5641                 1.0586
 Frc consts  --      2.1662                15.7840                 5.4995
 IR Inten    --    100.8489               427.6346                30.6862

                     94                     95                     96
                      A                      A                      A
 Frequencies --   2976.6821              3036.8811              3083.3038
 Red. masses --      1.0605                 1.0442                 1.0779
 Frc consts  --      5.5364                 5.6742                 6.0375
 IR Inten    --    111.0103                42.2883                24.6492

                     97                     98                     99
                      A                      A                      A
 Frequencies --   3088.9342              3095.2498              3132.3604
 Red. masses --      1.0798                 1.0906                 1.1028
 Frc consts  --      6.0700                 6.1560                 6.3754
 IR Inten    --     55.0835                22.7187                10.7476

                    100                    101                    102
                      A                      A                      A
 Frequencies --   3150.0883              3167.6517              3174.8382
 Red. masses --      1.1007                 1.0961                 1.0870
 Frc consts  --      6.4353                 6.4800                 6.4556
 IR Inten    --     10.4384                15.7572                 8.5837

                    103                    104                    105
                      A                      A                      A
 Frequencies --   3177.5014              3193.6953              3196.0029
 Red. masses --      1.0872                 1.0901                 1.0944
 Frc consts  --      6.4674                 6.5510                 6.5865
 IR Inten    --     15.6326                13.6058                17.8628

                    106                    107                    108
                      A                      A                      A
 Frequencies --   3206.2011              3219.9086              3259.9309
 Red. masses --      1.0905                 1.0964                 1.0897
 Frc consts  --      6.6047                 6.6971                 6.8229
 IR Inten    --     11.3873                15.7035                 1.0247

                    109                    110                    111
                      A                      A                      A
 Frequencies --   3573.2927              3573.7826              3675.4649
 Red. masses --      1.0744                 1.0490                 1.0979
 Frc consts  --      8.0827                 7.8936                 8.7382
 IR Inten    --     35.9737                19.7636                26.4629

 - Thermochemistry -
 -------------------
 Temperature   298.150 Kelvin.  Pressure   1.00000 Atm.
 Atom     1 has atomic number  6 and mass  12.00000

 Molecular mass:   269.15281 amu.
 Principal axes and moments of inertia in atomic units:
                           1         2         3
     Eigenvalues --  3608.805556443.189838001.82255
           X            1.00000   0.00190   0.00197
           Y           -0.00184   0.99947  -0.03262
           Z           -0.00203   0.03262   0.99947
 This molecule is an asymmetric top.
 Rotational symmetry number  1.
 Warning -- assumption of classical behavior for rotation
           may cause significant error
 Rotational temperatures (Kelvin)      0.02400     0.01344     0.01082
 Rotational constants (GHZ):           0.50009     0.28010     0.22554
 Zero-point vibrational energy     860737.1 (Joules/Mol)
                                  205.72109 (Kcal/Mol)
 Warning -- explicit consideration of  31 degrees of freedom as
           vibrations may cause significant error
 Vibrational temperatures:     44.32    65.20    75.47   115.29   125.89
          (Kelvin)            158.07   190.46   235.91   269.33   294.71
                              298.26   322.02   372.64   411.56   442.20
                              444.60   462.53   483.28   497.58   535.52
                              554.24   563.27   639.19   674.83   702.19
                              728.36   767.58   801.20   807.12   833.95
                              878.73   893.89   916.51   957.90  1025.69
                             1045.71  1066.61  1097.65  1097.69  1143.76
                             1168.54  1193.10  1236.04  1248.16  1285.66
                             1350.00  1358.74  1366.47  1397.56  1461.28
                             1489.46  1527.24  1548.40  1559.69  1573.76
                             1628.95  1636.34  1646.24  1696.07  1706.68
                             1711.47  1722.61  1777.00  1792.04  1817.57
                             1876.01  1902.08  1917.59  1943.22  1955.93
                             1966.48  1981.97  2064.06  2086.45  2114.50
                             2134.90  2158.75  2169.91  2174.81  2180.85
                             2192.66  2200.34  2215.21  2219.38  2234.32
                             2245.53  2346.77  2349.43  2394.91  2401.97
                             2437.83  2544.69  4272.36  4282.78  4369.39
                             4436.19  4444.29  4453.37  4506.77  4532.27
                             4557.54  4567.88  4571.72  4595.02  4598.34
                             4613.01  4632.73  4690.31  5141.17  5141.88
                             5288.17

 Zero-point correction=                           0.327837 (Hartree/Particle)
 Thermal correction to Energy=                    0.346666
 Thermal correction to Enthalpy=                  0.347611
 Thermal correction to Gibbs Free Energy=         0.281210
 Sum of electronic and zero-point Energies=           -860.389465
 Sum of electronic and thermal Energies=              -860.370636
 Sum of electronic and thermal Enthalpies=            -860.369692
 Sum of electronic and thermal Free Energies=         -860.436092

                     E (Thermal)             CV                S
                      KCal/Mol        Cal/Mol-Kelvin    Cal/Mol-Kelvin
 Total                  217.536             73.735            139.751
 Electronic               0.000              0.000              0.000
 Translational            0.889              2.981             42.669
 Rotational               0.889              2.981             33.586
 Vibrational            215.759             67.773             63.496
 Vibration     1          0.594              1.984              5.777
 Vibration     2          0.595              1.979              5.012
 Vibration     3          0.596              1.977              4.723
 Vibration     4          0.600              1.963              3.888
 Vibration     5          0.601              1.958              3.715
 Vibration     6          0.606              1.941              3.271
 Vibration     7          0.612              1.921              2.911
 Vibration     8          0.623              1.887              2.504
 Vibration     9          0.632              1.857              2.255
 Vibration    10          0.640              1.833              2.089
 Vibration    11          0.641              1.829              2.067
 Vibration    12          0.649              1.805              1.928
 Vibration    13          0.668              1.748              1.669
 Vibration    14          0.684              1.700              1.497
 Vibration    15          0.697              1.660              1.377
 Vibration    16          0.698              1.657              1.368
 Vibration    17          0.707              1.632              1.303
 Vibration    18          0.717              1.604              1.232
 Vibration    19          0.724              1.584              1.185
 Vibration    20          0.744              1.529              1.071
 Vibration    21          0.754              1.502              1.019
 Vibration    22          0.759              1.488              0.994
 Vibration    23          0.804              1.374              0.813
 Vibration    24          0.826              1.319              0.740
 Vibration    25          0.844              1.277              0.689
 Vibration    26          0.861              1.236              0.643
 Vibration    27          0.888              1.176              0.579
 Vibration    28          0.912              1.125              0.530
 Vibration    29          0.917              1.116              0.522
 Vibration    30          0.936              1.075              0.486
 Vibration    31          0.970              1.009              0.432

                           ! Non-Optimized Parameters !
 Normal termination of Gaussian 16 at Sat Dec 12 16:23:21 2020.

 ----------------------------------------------------------------------
 # B3LYP/6-311++G(d,p) empiricaldispersion=gd3bj scf=xqc pop=npa geom=c
 heck
 ----------------------------------------------------------------------

 ----------------------------------------
 CID_115375807_JID_10553_Energie_neutraal
 ----------------------------------------
 Structure from the checkpoint file:  "JID_10553.chk"
 Charge =  0 Multiplicity = 1

 SCF Done:  E(RB3LYP) =  -860.955192267     A.U. after   16 cycles
 Normal termination of Gaussian 16 at Sat Dec 12 16:34:51 2020.

 ----------------------------------------------------------------------
 # B3LYP/6-311++G(d,p) empiricaldispersion=gd3bj scf=xqc pop=npa geom=c
 heck
 ----------------------------------------------------------------------

 --------------------------------------
 CID_115375807_JID_10553_Energie_kation
 --------------------------------------
 Structure from the checkpoint file:  "JID_10553.chk"
 Charge =  1 Multiplicity = 2

 SCF Done:  E(UB3LYP) =  -860.687472787     A.U. after   25 cycles
 Normal termination of Gaussian 16 at Sat Dec 12 16:59:57 2020.
 Gaussian 16:  ES64L-G16RevA.03 25-Dec-2016

 ----------------------------------------------------------------------
 # B3LYP/6-311++G(d,p) empiricaldispersion=gd3bj scf=xqc pop=npa geom=c
 heck
 ----------------------------------------------------------------------

 -------------------------------------
 CID_115375807_JID_10553_Energie_anion
 -------------------------------------
 Structure from the checkpoint file:  "JID_10553.chk"
 Charge = -1 Multiplicity = 2

                         Standard orientation:
 ---------------------------------------------------------------------
 Center     Atomic      Atomic             Coordinates (Angstroms)
 Number     Number       Type             X           Y           Z
 ---------------------------------------------------------------------
      1          6           0       -4.200059   -0.045066    0.933927
      2          6           0       -2.896920   -0.588564    0.407548
      3          6           0       -1.939258    0.247487   -0.215152
      4          6           0       -0.715136   -0.289545   -0.629452
      5          6           0       -0.395517   -1.628197   -0.391653
      6          6           0       -1.344048   -2.465414    0.201103
      7          6           0       -2.578072   -1.938001    0.576669
      8          7           0        0.873364   -2.162460   -0.736446
      9          6           0        2.090703   -1.504166   -0.875056
     10          8           0        2.965687   -1.993475   -1.577892
     11          6           0        2.282628   -0.212455   -0.146010
     12          6           0        2.888640    0.822574   -0.870289
     13          6           0        3.073986    2.085162   -0.319877
     14          6           0        2.672751    2.307701    1.001033
     15          6           0        2.114734    1.281328    1.752787
     16          6           0        1.916677   -0.000287    1.204916
     17          7           0        1.446473   -1.019796    2.020459
     18          7           0       -2.212733    1.631032   -0.379178
     19          6           0       -1.057096    2.512273   -0.481874
     20          6           0       -3.223870    1.952666   -1.383388
     21          1           0       -4.072994    0.987255    1.274610
     22          1           0       -4.992862   -0.041539    0.173810
     23          1           0       -4.562129   -0.652316    1.769685
     24          1           0        0.003389    0.341511   -1.131702
     25          1           0       -1.106831   -3.508737    0.390788
     26          1           0       -3.303384   -2.587875    1.060198
     27          1           0        0.879268   -3.064426   -1.200285
     28          1           0        3.193061    0.611555   -1.890573
     29          1           0        3.526736    2.879991   -0.903688
     30          1           0        2.805297    3.286282    1.454592
     31          1           0        1.837114    1.454064    2.789905
     32          1           0        0.881533   -0.714889    2.802129
     33          1           0        1.046414   -1.819595    1.550262
     34          1           0       -0.552920    2.468258   -1.463622
     35          1           0       -1.392214    3.543899   -0.328613
     36          1           0       -0.325018    2.263744    0.289953
     37          1           0       -2.839700    1.829755   -2.411474
     38          1           0       -4.098386    1.311189   -1.270198
     39          1           0       -3.542454    2.993257   -1.257863
 ---------------------------------------------------------------------

 SCF Done:  E(UB3LYP) =  -860.952571218     A.U. after   33 cycles
 SCF Done:  E(UB3LYP) =  -860.952571218     a.u. after    1 cycles

 The electronic state is 2-A.
 Alpha  occ. eigenvalues --  -18.95254 -14.22107 -14.21492 -14.20604 -10.13275
 Alpha  occ. eigenvalues --  -10.09884 -10.09682 -10.09492 -10.09285 -10.08565
 Alpha  occ. eigenvalues --  -10.06411 -10.06255 -10.06070 -10.05816 -10.05240
 Alpha  occ. eigenvalues --  -10.05207 -10.05139 -10.05002 -10.04947 -10.04846
 Alpha  occ. eigenvalues --   -0.90895  -0.83548  -0.81680  -0.80387  -0.73180
 Alpha  occ. eigenvalues --   -0.72264  -0.65909  -0.64103  -0.63462  -0.61333
 Alpha  occ. eigenvalues --   -0.60823  -0.58258  -0.54987  -0.52193  -0.49189
 Alpha  occ. eigenvalues --   -0.49038  -0.47671  -0.45393  -0.42431  -0.40957
 Alpha  occ. eigenvalues --   -0.40228  -0.38238  -0.36892  -0.36197  -0.35964
 Alpha  occ. eigenvalues --   -0.35358  -0.33766  -0.32886  -0.32343  -0.31763
 Alpha  occ. eigenvalues --   -0.31507  -0.30789  -0.29751  -0.29333  -0.28859
 Alpha  occ. eigenvalues --   -0.28309  -0.28048  -0.27681  -0.26691  -0.25310
 Alpha  occ. eigenvalues --   -0.24960  -0.23995  -0.23603  -0.23247  -0.20280
 Alpha  occ. eigenvalues --   -0.17903  -0.16179  -0.14638  -0.12564  -0.11844
 Alpha  occ. eigenvalues --   -0.10072  -0.09571   0.04466
 Alpha virt. eigenvalues --    0.06303   0.07331   0.07665   0.08340   0.08780
 Alpha virt. eigenvalues --    0.09106   0.09376   0.09913   0.10126   0.10283
 Alpha virt. eigenvalues --    0.11100   0.11148   0.11744   0.12009   0.12423

  Beta  occ. eigenvalues --  -18.94970 -14.22161 -14.21493 -14.20598 -10.13053
  Beta  occ. eigenvalues --  -10.09819 -10.09567 -10.09497 -10.09260 -10.08561
  Beta  occ. eigenvalues --  -10.06428 -10.06254 -10.05928 -10.05775 -10.05215
  Beta  occ. eigenvalues --  -10.05162 -10.04998 -10.04926 -10.04901 -10.04820
  Beta  occ. eigenvalues --   -0.90424  -0.83522  -0.81542  -0.80289  -0.73056
  Beta  occ. eigenvalues --   -0.72083  -0.65733  -0.63931  -0.63240  -0.61188
  Beta  occ. eigenvalues --   -0.60792  -0.58164  -0.54878  -0.51798  -0.49032
  Beta  occ. eigenvalues --   -0.48950  -0.47561  -0.45219  -0.42370  -0.40846
  Beta  occ. eigenvalues --   -0.40158  -0.38127  -0.36820  -0.36148  -0.35874
  Beta  occ. eigenvalues --   -0.35274  -0.33611  -0.32783  -0.32238  -0.31593
  Beta  occ. eigenvalues --   -0.31396  -0.30685  -0.29633  -0.29146  -0.28630
  Beta  occ. eigenvalues --   -0.28214  -0.27555  -0.27445  -0.26564  -0.25223
  Beta  occ. eigenvalues --   -0.24766  -0.23900  -0.23198  -0.23062  -0.19896
  Beta  occ. eigenvalues --   -0.17336  -0.16001  -0.14070  -0.12025  -0.11558
  Beta  occ. eigenvalues --   -0.09691  -0.09188
  Beta virt. eigenvalues --    0.06532   0.07424   0.07725   0.08208   0.08805
  Beta virt. eigenvalues --    0.09018   0.09113   0.09468   0.10102   0.10141
  Beta virt. eigenvalues --    0.10643   0.11257   0.11402   0.11836   0.12094

 Mulliken charges and spin densities:
               1          2
     1  C    0.095653  -0.766666
     2  C    0.489949   0.213818
     3  C   -1.824306   0.770947
     4  C   -0.243874   0.124856
     5  C    0.728296  -0.265171
     6  C   -0.495967   0.203448
     7  C    0.213917  -0.496095
     8  N   -0.274780  -0.052152
     9  C   -0.405058   0.077980
    10  O   -0.351721   0.097546
    11  C    0.574128   0.043462
    12  C   -0.054816   0.098157
    13  C   -0.354117  -0.056536
    14  C   -0.353292   0.185881
    15  C    0.090079  -0.023911
    16  C   -0.468164   0.033365
    17  N   -0.302421   0.009958
    18  N    0.183637   0.053751
    19  C   -0.308045  -0.059844
    20  C    0.267142  -0.610609
    21  H    0.136726   0.030314
    22  H   -0.105426   0.280418
    23  H    0.102551   0.015426
    24  H    0.304049  -0.008108
    25  H   -0.022179   0.155661
    26  H   -0.015413   0.157083
    27  H    0.225530   0.087442
    28  H    0.180393  -0.006784
    29  H    0.126323   0.007299
    30  H    0.113210  -0.001671
    31  H    0.102217   0.013685
    32  H    0.218767   0.000407
    33  H    0.280844  -0.007090
    34  H    0.079512   0.008090
    35  H    0.034903   0.102269
    36  H    0.221044   0.006792
    37  H   -0.094642   0.226552
    38  H   -0.081133   0.195404
    39  H   -0.013515   0.154626
 Sum of Mulliken charges =  -1.00000   1.00000

 Dipole moment (field-independent basis, Debye):
    X=             -1.9188    Y=              1.6665    Z=              3.0838  Tot=              3.9961
 Quadrupole moment (field-independent basis, Debye-Ang):
   XX=           -194.1156   YY=           -148.4741   ZZ=           -138.2822
   XY=             11.5843   XZ=             -1.5005   YZ=             -5.0311

 Summary of Natural Population Analysis:

                                       Natural Population
                Natural  -----------------------------------------------
    Atom  No    Charge         Core      Valence    Rydberg      Total
 -----------------------------------------------------------------------
      C    1   -0.29640      0.99964     2.29087    0.00588     3.29640
      C    2   -0.01364      0.99948     2.00543    0.00874     3.01364
      C    3    0.09250      0.99943     1.89622    0.01184     2.90750
      C    4   -0.12362      0.99947     2.11607    0.00808     3.12362
      C    5    0.08831      0.99947     1.90112    0.01110     2.91169
      C    6   -0.12111      0.99952     2.11146    0.01013     3.12111
      C    7   -0.10019      0.99953     2.09124    0.00942     3.10019
      N    8   -0.33221      0.99965     2.82321    0.00935     3.83221
      C    9    0.36735      0.99963     1.61044    0.02259     2.63265
      O   10   -0.29416      0.99988     3.28884    0.00544     4.29416
      C   11   -0.08199      0.99943     2.07010    0.01246     3.08199
      C   12   -0.05521      0.99954     2.04751    0.00817     3.05521
      C   13   -0.14101      0.99957     2.13214    0.00931     3.14101
      C   14   -0.06052      0.99958     2.05187    0.00907     3.06052
      C   15   -0.13501      0.99953     2.12736    0.00811     3.13501
      C   16    0.10475      0.99947     1.88295    0.01283     2.89525
      N   17   -0.39319      0.99971     2.88600    0.00748     3.89319
      N   18   -0.27054      0.99968     2.75986    0.01100     3.77054
      C   19   -0.17846      0.99965     2.17179    0.00702     3.17846
      C   20   -0.17227      0.99963     2.16444    0.00820     3.17227
      H   21    0.10665      0.00000     0.39204    0.00131     0.39335
      H   22    0.10164      0.00000     0.39691    0.00145     0.39836
      H   23    0.09773      0.00000     0.40151    0.00076     0.40227
      H   24    0.11205      0.00000     0.38549    0.00245     0.38795
      H   25    0.09786      0.00000     0.40105    0.00108     0.40214
      H   26    0.09450      0.00000     0.40462    0.00088     0.40550
      H   27    0.19516      0.00000     0.30190    0.00293     0.30484
      H   28    0.10300      0.00000     0.39600    0.00100     0.39700
      H   29    0.09427      0.00000     0.40473    0.00099     0.40573
      H   30    0.09093      0.00000     0.40809    0.00098     0.40907
      H   31    0.09146      0.00000     0.40708    0.00146     0.40854
      H   32    0.18094      0.00000     0.31741    0.00165     0.31906
      H   33    0.19440      0.00000     0.30356    0.00204     0.30560
      H   34    0.08246      0.00000     0.41607    0.00147     0.41754
      H   35    0.09113      0.00000     0.40787    0.00100     0.40887
      H   36    0.10909      0.00000     0.38962    0.00129     0.39091
      H   37    0.08279      0.00000     0.41581    0.00140     0.41721
      H   38    0.09958      0.00000     0.39937    0.00105     0.40042
      H   39    0.09096      0.00000     0.40808    0.00097     0.40904
 =======================================================================
   * Total *   -0.00000     19.99149    51.78613    0.22239    72.00000

 Normal termination of Gaussian 16 at Sat Dec 12 17:32:00 2020.
