 Gaussian 16, Revision A.03,

 -----------------------------------------------------------
 # opt freq B3LYP/6-31G(d) empiricaldispersion=gd3bj scf=xqc
 -----------------------------------------------------------

 -----------------------------
 CID_2286866_JID_8925_neutraal
 -----------------------------
 Symbolic Z-matrix:
 Charge =  0 Multiplicity = 1

 SCF Done:  E(RB3LYP) =  -790.732946217     A.U. after   15 cycles
 SCF Done:  E(RB3LYP) =  -790.738939482     A.U. after   13 cycles
 SCF Done:  E(RB3LYP) =  -790.739244221     A.U. after   12 cycles
 SCF Done:  E(RB3LYP) =  -790.739640057     A.U. after   12 cycles
 SCF Done:  E(RB3LYP) =  -790.739639435     A.U. after   12 cycles
 SCF Done:  E(RB3LYP) =  -790.739756152     A.U. after   11 cycles
 SCF Done:  E(RB3LYP) =  -790.739777852     A.U. after    9 cycles
 SCF Done:  E(RB3LYP) =  -790.739779635     A.U. after   10 cycles
 SCF Done:  E(RB3LYP) =  -790.739782366     A.U. after    9 cycles
 SCF Done:  E(RB3LYP) =  -790.739783112     A.U. after    9 cycles
 SCF Done:  E(RB3LYP) =  -790.739783582     A.U. after    9 cycles
 SCF Done:  E(RB3LYP) =  -790.739784501     A.U. after    9 cycles
 SCF Done:  E(RB3LYP) =  -790.739784886     A.U. after    8 cycles
 SCF Done:  E(RB3LYP) =  -790.739785030     A.U. after    7 cycles
 Optimization completed.
    -- Stationary point found.
 Normal termination of Gaussian 16 at Fri Dec 11 23:06:37 2020.

 --------------------------------------------------------------------
 #N Geom=AllCheck Guess=TCheck SCRF=Check GenChk RB3LYP/6-31G(d) Freq
 --------------------------------------------------------------------

 Structure from the checkpoint file:  "JID_8925.chk"
 -----------------------------
 CID_2286866_JID_8925_neutraal
 -----------------------------
 Charge =  0 Multiplicity = 1

 SCF Done:  E(RB3LYP) =  -790.739785030     A.U. after    1 cycles

  Exact polarizability: 193.038   9.452 174.933  -1.741   0.539 132.844
 Approx polarizability: 265.028   9.694 260.721  -5.044  -3.094 202.069

                      1                      2                      3
                      A                      A                      A
 Frequencies --     20.3424                25.5210                37.7633
 Red. masses --      3.4150                 3.3107                 3.8720
 Frc consts  --      0.0008                 0.0013                 0.0033
 IR Inten    --      0.0558                 0.2230                 2.1190

                      4                      5                      6
                      A                      A                      A
 Frequencies --     44.6698                71.1710                85.0566
 Red. masses --      3.4934                 3.9608                 2.6506
 Frc consts  --      0.0041                 0.0118                 0.0113
 IR Inten    --      0.1362                 0.5962                 0.4307

                      7                      8                      9
                      A                      A                      A
 Frequencies --     89.5585               111.1191               122.4312
 Red. masses --      3.7896                 2.4843                 2.3272
 Frc consts  --      0.0179                 0.0181                 0.0206
 IR Inten    --      1.1699                 2.8224                 0.4198

                     10                     11                     12
                      A                      A                      A
 Frequencies --    133.3121               170.6669               186.2489
 Red. masses --      2.7614                 3.6763                 2.6150
 Frc consts  --      0.0289                 0.0631                 0.0534
 IR Inten    --      5.3570                 1.5655                 4.1427

                     13                     14                     15
                      A                      A                      A
 Frequencies --    215.6643               225.6507               253.6444
 Red. masses --      2.1253                 1.3652                 1.5786
 Frc consts  --      0.0582                 0.0410                 0.0598
 IR Inten    --      0.4000                 0.3334                 1.9506

                     16                     17                     18
                      A                      A                      A
 Frequencies --    264.6220               273.4205               288.2258
 Red. masses --      1.7334                 1.5857                 3.1645
 Frc consts  --      0.0715                 0.0698                 0.1549
 IR Inten    --      0.0280                 1.5579                 1.2109

                     19                     20                     21
                      A                      A                      A
 Frequencies --    333.6843               361.9633               368.2662
 Red. masses --      3.0530                 2.9555                 2.1236
 Frc consts  --      0.2003                 0.2281                 0.1697
 IR Inten    --      0.8281                 5.6180                 0.2421

                     22                     23                     24
                      A                      A                      A
 Frequencies --    389.5167               431.9656               441.3892
 Red. masses --      3.6863                 2.1465                 3.1643
 Frc consts  --      0.3295                 0.2360                 0.3632
 IR Inten    --      4.8745                 3.9338                 2.6954

                     25                     26                     27
                      A                      A                      A
 Frequencies --    456.1292               525.9584               548.6485
 Red. masses --      4.1755                 3.6009                 3.0540
 Frc consts  --      0.5118                 0.5869                 0.5416
 IR Inten    --     11.3043                 9.1305                 5.5821

                     28                     29                     30
                      A                      A                      A
 Frequencies --    591.6536               611.3552               641.2592
 Red. masses --      3.4457                 4.7979                 5.4410
 Frc consts  --      0.7107                 1.0566                 1.3182
 IR Inten    --      2.2289                 3.3541                11.6088

                     31                     32                     33
                      A                      A                      A
 Frequencies --    701.5529               748.4706               760.0059
 Red. masses --      3.7374                 1.9955                 2.8658
 Frc consts  --      1.0838                 0.6586                 0.9753
 IR Inten    --      2.5032                15.7857                 2.3688

                     34                     35                     36
                      A                      A                      A
 Frequencies --    775.0320               780.2554               806.3721
 Red. masses --      1.3792                 4.0894                 1.2119
 Frc consts  --      0.4881                 1.4668                 0.4643
 IR Inten    --     35.1469                 6.1340                11.5016

                     37                     38                     39
                      A                      A                      A
 Frequencies --    818.2778               824.6262               836.6596
 Red. masses --      2.3553                 2.1146                 1.2474
 Frc consts  --      0.9292                 0.8472                 0.5145
 IR Inten    --      4.3934                 6.4224                 2.7072

                     40                     41                     42
                      A                      A                      A
 Frequencies --    869.1311               891.0611               924.7482
 Red. masses --      1.7285                 1.6427                 2.0149
 Frc consts  --      0.7693                 0.7685                 1.0152
 IR Inten    --      3.0867                 1.5990                11.0805

                     43                     44                     45
                      A                      A                      A
 Frequencies --    932.5468               948.2768               956.9931
 Red. masses --      2.5511                 1.4285                 1.8769
 Frc consts  --      1.3071                 0.7568                 1.0128
 IR Inten    --     15.1061                 5.2150                 2.7587

                     46                     47                     48
                      A                      A                      A
 Frequencies --    980.2456               985.6824              1013.6326
 Red. masses --      1.2506                 2.1704                 1.7861
 Frc consts  --      0.7080                 1.2424                 1.0812
 IR Inten    --      0.0201                 5.9969                 5.3631

                     49                     50                     51
                      A                      A                      A
 Frequencies --   1059.5876              1067.3258              1077.4060
 Red. masses --      3.0910                 2.4422                 2.0213
 Frc consts  --      2.0446                 1.6392                 1.3824
 IR Inten    --     47.6138                39.2047                 3.7415

                     52                     53                     54
                      A                      A                      A
 Frequencies --   1107.8942              1112.8605              1134.6230
 Red. masses --      2.1882                 2.0573                 1.7606
 Frc consts  --      1.5825                 1.5012                 1.3354
 IR Inten    --     56.7752                 8.5348                16.2043

                     55                     56                     57
                      A                      A                      A
 Frequencies --   1140.4640              1146.0416              1149.1163
 Red. masses --      1.7308                 2.0874                 1.6858
 Frc consts  --      1.3263                 1.6153                 1.3116
 IR Inten    --      7.1706                16.1527                22.8066

                     58                     59                     60
                      A                      A                      A
 Frequencies --   1190.2220              1197.9699              1208.6035
 Red. masses --      1.1200                 1.4987                 1.9389
 Frc consts  --      0.9348                 1.2672                 1.6686
 IR Inten    --      2.2130                 6.1750                 7.7650

                     61                     62                     63
                      A                      A                      A
 Frequencies --   1229.1846              1272.1038              1281.7116
 Red. masses --      2.4993                 3.1115                 1.3452
 Frc consts  --      2.2249                 2.9667                 1.3020
 IR Inten    --     12.8689               123.8204                 5.3333

                     64                     65                     66
                      A                      A                      A
 Frequencies --   1292.1180              1313.9248              1319.9707
 Red. masses --      1.6843                 1.7169                 1.1427
 Frc consts  --      1.6569                 1.7464                 1.1731
 IR Inten    --     50.2025                84.6681                 1.5407

                     67                     68                     69
                      A                      A                      A
 Frequencies --   1333.9524              1343.4893              1345.2719
 Red. masses --      1.4166                 5.9586                 1.2042
 Frc consts  --      1.4851                 6.3367                 1.2841
 IR Inten    --     25.9716                 4.4364                 8.9768

                     70                     71                     72
                      A                      A                      A
 Frequencies --   1384.5034              1406.2514              1406.6954
 Red. masses --      1.3351                 1.3638                 1.4379
 Frc consts  --      1.5079                 1.5891                 1.6764
 IR Inten    --      7.9913                13.7993                11.9727

                     73                     74                     75
                      A                      A                      A
 Frequencies --   1421.4628              1424.9450              1444.9014
 Red. masses --      1.2285                 1.3466                 1.2451
 Frc consts  --      1.4625                 1.6110                 1.5316
 IR Inten    --      2.9651                 9.2490                10.8752

                     76                     77                     78
                      A                      A                      A
 Frequencies --   1447.8732              1451.6852              1480.3053
 Red. masses --      1.2519                 1.3629                 2.1715
 Frc consts  --      1.5462                 1.6922                 2.8035
 IR Inten    --      9.3552                48.6224               114.0625

                     79                     80                     81
                      A                      A                      A
 Frequencies --   1498.6730              1510.5749              1513.5488
 Red. masses --      2.2137                 1.1179                 1.0418
 Frc consts  --      2.9294                 1.5029                 1.4062
 IR Inten    --     39.4372                10.7562                 4.8835

                     82                     83                     84
                      A                      A                      A
 Frequencies --   1514.3230              1520.3976              1524.5030
 Red. masses --      1.0860                 1.0695                 1.0646
 Frc consts  --      1.4673                 1.4566                 1.4577
 IR Inten    --      8.1962                 3.0723                 1.0767

                     85                     86                     87
                      A                      A                      A
 Frequencies --   1529.9658              1530.6967              1533.0989
 Red. masses --      1.0596                 1.1335                 1.0913
 Frc consts  --      1.4613                 1.5648                 1.5113
 IR Inten    --      1.9493                30.4401                14.5227

                     88                     89                     90
                      A                      A                      A
 Frequencies --   1535.8236              1544.0197              1554.3190
 Red. masses --      2.2503                 1.0901                 1.1381
 Frc consts  --      3.1274                 1.5312                 1.6200
 IR Inten    --     25.5792                11.8990                 9.8779

                     91                     92                     93
                      A                      A                      A
 Frequencies --   1554.9624              1635.3039              1660.7590
 Red. masses --      1.0528                 6.2020                 6.1082
 Frc consts  --      1.4998                 9.7719                 9.9260
 IR Inten    --      2.0275                 7.1246                18.6165

                     94                     95                     96
                      A                      A                      A
 Frequencies --   1722.8358              3027.0947              3027.2942
 Red. masses --     10.1293                 1.0610                 1.0667
 Frc consts  --     17.7141                 5.7282                 5.7599
 IR Inten    --    292.6213                31.4315                47.4736

                     97                     98                     99
                      A                      A                      A
 Frequencies --   3036.6754              3042.8250              3054.7179
 Red. masses --      1.0627                 1.0420                 1.0454
 Frc consts  --      5.7737                 5.6843                 5.7475
 IR Inten    --     22.9157                33.0585                 3.0081

                    100                    101                    102
                      A                      A                      A
 Frequencies --   3059.5326              3059.8136              3062.2010
 Red. masses --      1.0744                 1.0386                 1.0830
 Frc consts  --      5.9257                 5.7289                 5.9833
 IR Inten    --     26.3367                21.8812                49.9110

                    103                    104                    105
                      A                      A                      A
 Frequencies --   3071.5740              3074.5964              3104.6928
 Red. masses --      1.0986                 1.0702                 1.1002
 Frc consts  --      6.1069                 5.9604                 6.2485
 IR Inten    --     84.9446                45.4020                44.0407

                    106                    107                    108
                      A                      A                      A
 Frequencies --   3106.9702              3115.5145              3132.5200
 Red. masses --      1.0986                 1.1015                 1.1018
 Frc consts  --      6.2481                 6.2994                 6.3701
 IR Inten    --      0.4841                20.4078                26.7550

                    109                    110                    111
                      A                      A                      A
 Frequencies --   3138.6988              3142.4986              3143.4042
 Red. masses --      1.1043                 1.1003                 1.0951
 Frc consts  --      6.4094                 6.4018                 6.3754
 IR Inten    --     29.3296                13.3619                16.6368

                    112                    113                    114
                      A                      A                      A
 Frequencies --   3155.9683              3160.3135              3185.7975
 Red. masses --      1.1024                 1.0934                 1.0859
 Frc consts  --      6.4690                 6.4340                 6.4937
 IR Inten    --     15.3864                 4.8423                 1.0955

                    115                    116                    117
                      A                      A                      A
 Frequencies --   3194.2244              3207.6672              3216.1705
 Red. masses --      1.0894                 1.0930                 1.0970
 Frc consts  --      6.5491                 6.6260                 6.6853
 IR Inten    --     10.4647                22.2737                16.1403

 - Thermochemistry -
 -------------------
 Temperature   298.150 Kelvin.  Pressure   1.00000 Atm.
 Atom     1 has atomic number  6 and mass  12.00000

 Molecular mass:   249.17288 amu.
 Principal axes and moments of inertia in atomic units:
                           1         2         3
     Eigenvalues --  3311.235206058.103266978.94750
           X            0.99980  -0.02003  -0.00207
           Y            0.02003   0.99980   0.00102
           Z            0.00205  -0.00106   1.00000
 This molecule is an asymmetric top.
 Rotational symmetry number  1.
 Warning -- assumption of classical behavior for rotation
           may cause significant error
 Rotational temperatures (Kelvin)      0.02616     0.01430     0.01241
 Rotational constants (GHZ):           0.54504     0.29791     0.25860
 Zero-point vibrational energy     947870.0 (Joules/Mol)
                                  226.54636 (Kcal/Mol)
 Warning -- explicit consideration of  29 degrees of freedom as
           vibrations may cause significant error
 Vibrational temperatures:     29.27    36.72    54.33    64.27   102.40
          (Kelvin)            122.38   128.85   159.88   176.15   191.81
                              245.55   267.97   310.29   324.66   364.94
                              380.73   393.39   414.69   480.10   520.78
                              529.85   560.43   621.50   635.06   656.27
                              756.74   789.38   851.26   879.60   922.63
                             1009.38  1076.88  1093.48  1115.10  1122.61
                             1160.19  1177.32  1186.45  1203.77  1250.49
                             1282.04  1330.51  1341.73  1364.36  1376.90
                             1410.35  1418.18  1458.39  1524.51  1535.64
                             1550.15  1594.01  1601.16  1632.47  1640.87
                             1648.90  1653.32  1712.46  1723.61  1738.91
                             1768.52  1830.27  1844.10  1859.07  1890.44
                             1899.14  1919.26  1932.98  1935.55  1991.99
                             2023.28  2023.92  2045.17  2050.18  2078.89
                             2083.17  2088.65  2129.83  2156.26  2173.38
                             2177.66  2178.77  2187.51  2193.42  2201.28
                             2202.33  2205.79  2209.71  2221.50  2236.32
                             2237.24  2352.84  2389.46  2478.78  4355.31
                             4355.60  4369.10  4377.95  4395.06  4401.98
                             4402.39  4405.82  4419.31  4423.66  4466.96
                             4470.24  4482.53  4507.00  4515.89  4521.35
                             4522.66  4540.73  4546.99  4583.65  4595.78
                             4615.12  4627.35

 Zero-point correction=                           0.361025 (Hartree/Particle)
 Thermal correction to Energy=                    0.380541
 Thermal correction to Enthalpy=                  0.381485
 Thermal correction to Gibbs Free Energy=         0.311031
 Sum of electronic and zero-point Energies=           -790.378760
 Sum of electronic and thermal Energies=              -790.359244
 Sum of electronic and thermal Enthalpies=            -790.358300
 Sum of electronic and thermal Free Energies=         -790.428754

                     E (Thermal)             CV                S
                      KCal/Mol        Cal/Mol-Kelvin    Cal/Mol-Kelvin
 Total                  238.793             71.882            148.283
 Electronic               0.000              0.000              0.000
 Translational            0.889              2.981             42.439
 Rotational               0.889              2.981             33.304
 Vibrational            237.016             65.920             72.540
 Vibration     1          0.593              1.986              6.600
 Vibration     2          0.593              1.985              6.150
 Vibration     3          0.594              1.982              5.373
 Vibration     4          0.595              1.980              5.040
 Vibration     5          0.598              1.968              4.121
 Vibration     6          0.601              1.960              3.771
 Vibration     7          0.602              1.957              3.670
 Vibration     8          0.607              1.940              3.249
 Vibration     9          0.610              1.930              3.062
 Vibration    10          0.613              1.920              2.898
 Vibration    11          0.626              1.879              2.428
 Vibration    12          0.632              1.859              2.265
 Vibration    13          0.645              1.817              1.995
 Vibration    14          0.650              1.802              1.913
 Vibration    15          0.665              1.757              1.705
 Vibration    16          0.671              1.738              1.631
 Vibration    17          0.676              1.722              1.574
 Vibration    18          0.685              1.696              1.484
 Vibration    19          0.715              1.608              1.242
 Vibration    20          0.736              1.551              1.114
 Vibration    21          0.741              1.537              1.087
 Vibration    22          0.757              1.493              1.002
 Vibration    23          0.793              1.401              0.852
 Vibration    24          0.801              1.380              0.822
 Vibration    25          0.814              1.347              0.777
 Vibration    26          0.881              1.193              0.596
 Vibration    27          0.904              1.143              0.547
 Vibration    28          0.949              1.050              0.464
 Vibration    29          0.970              1.008              0.431

                           ! Non-Optimized Parameters !
 Normal termination of Gaussian 16 at Fri Dec 11 23:27:12 2020.

 ----------------------------------------------------------------------
 # B3LYP/6-311++G(d,p) empiricaldispersion=gd3bj scf=xqc pop=npa geom=c
 heck
 ----------------------------------------------------------------------

 -------------------------------------
 CID_2286866_JID_8925_Energie_neutraal
 -------------------------------------
 Structure from the checkpoint file:  "JID_8925.chk"
 Charge =  0 Multiplicity = 1

 SCF Done:  E(RB3LYP) =  -790.956923144     A.U. after   17 cycles
 Normal termination of Gaussian 16 at Fri Dec 11 23:38:01 2020.

 ----------------------------------------------------------------------
 # B3LYP/6-311++G(d,p) empiricaldispersion=gd3bj scf=xqc pop=npa geom=c
 heck
 ----------------------------------------------------------------------

 -----------------------------------
 CID_2286866_JID_8925_Energie_kation
 -----------------------------------
 Structure from the checkpoint file:  "JID_8925.chk"
 Charge =  1 Multiplicity = 2

 SCF Done:  E(UB3LYP) =  -790.652763803     A.U. after   33 cycles
 SCF Done:  E(UB3LYP) =  -790.652763803     a.u. after    1 cycles
 Normal termination of Gaussian 16 at Sat Dec 12 00:07:17 2020.
 Gaussian 16:  ES64L-G16RevA.03 25-Dec-2016

 ----------------------------------------------------------------------
 # B3LYP/6-311++G(d,p) empiricaldispersion=gd3bj scf=xqc pop=npa geom=c
 heck
 ----------------------------------------------------------------------

 ----------------------------------
 CID_2286866_JID_8925_Energie_anion
 ----------------------------------
 Structure from the checkpoint file:  "JID_8925.chk"
 Charge = -1 Multiplicity = 2

                         Standard orientation:
 ---------------------------------------------------------------------
 Center     Atomic      Atomic             Coordinates (Angstroms)
 Number     Number       Type             X           Y           Z
 ---------------------------------------------------------------------
      1          6           0        3.872161   -0.472739   -1.872935
      2          6           0        3.774605   -0.982825   -0.432001
      3          6           0        3.677192    0.128510    0.620956
      4          6           0        2.411373    0.992980    0.526796
      5          7           0        1.178864    0.216920    0.679242
      6          6           0        0.771901   -0.137492    2.041028
      7          6           0        0.049563    1.005268    2.759361
      8          6           0        0.381384    0.025565   -0.410857
      9          8           0        0.647457    0.470528   -1.529799
     10          6           0       -0.862169   -0.805884   -0.215840
     11          6           0       -0.813614   -2.200132   -0.299723
     12          6           0       -1.980442   -2.956571   -0.187762
     13          6           0       -3.206194   -2.318592    0.010579
     14          6           0       -3.265788   -0.927163    0.090198
     15          6           0       -2.097525   -0.174210   -0.026158
     16          8           0       -2.144753    1.196018    0.102425
     17          6           0       -2.254565    1.911937   -1.148144
     18          6           0       -2.007321    3.377703   -0.854821
     19          1           0        2.956496    0.045382   -2.171140
     20          1           0        4.026898   -1.304414   -2.569628
     21          1           0        4.717312    0.218156   -1.988060
     22          1           0        2.902785   -1.643629   -0.335140
     23          1           0        4.652447   -1.599696   -0.198893
     24          1           0        3.738944   -0.316127    1.623660
     25          1           0        4.543218    0.799203    0.531378
     26          1           0        2.433983    1.765369    1.304813
     27          1           0        2.352334    1.494497   -0.439298
     28          1           0        0.129539   -1.017962    1.995241
     29          1           0        1.673591   -0.429573    2.590276
     30          1           0       -0.848910    1.294209    2.207735
     31          1           0       -0.237815    0.694987    3.770375
     32          1           0        0.693093    1.887349    2.849567
     33          1           0        0.144760   -2.689488   -0.451292
     34          1           0       -1.931990   -4.039433   -0.253132
     35          1           0       -4.116666   -2.903569    0.104169
     36          1           0       -4.205877   -0.408971    0.252241
     37          1           0       -1.513941    1.518140   -1.850964
     38          1           0       -3.259421    1.747682   -1.562276
     39          1           0       -0.992678    3.518574   -0.469418
     40          1           0       -2.116978    3.969676   -1.769767
     41          1           0       -2.718161    3.750694   -0.110194
 ---------------------------------------------------------------------

 SCF Done:  E(UB3LYP) =  -790.943091936     A.U. after   33 cycles
 SCF Done:  E(UB3LYP) =  -790.943091936     a.u. after    1 cycles

 The electronic state is 2-A.
 Alpha  occ. eigenvalues --  -19.05124 -18.99857 -14.25326 -10.18500 -10.14488
 Alpha  occ. eigenvalues --  -10.13405 -10.11486 -10.10811 -10.09919 -10.09417
 Alpha  occ. eigenvalues --  -10.09115 -10.08913 -10.08847 -10.08163 -10.07620
 Alpha  occ. eigenvalues --  -10.07237 -10.06861 -10.06069  -0.96903  -0.94809
 Alpha  occ. eigenvalues --   -0.84909  -0.77303  -0.70713  -0.68926  -0.67763
 Alpha  occ. eigenvalues --   -0.66574  -0.64539  -0.62963  -0.57025  -0.55481
 Alpha  occ. eigenvalues --   -0.54642  -0.53366  -0.51097  -0.48844  -0.45574
 Alpha  occ. eigenvalues --   -0.43938  -0.42325  -0.40860  -0.39810  -0.38315
 Alpha  occ. eigenvalues --   -0.37616  -0.36950  -0.35954  -0.35513  -0.34852
 Alpha  occ. eigenvalues --   -0.34243  -0.33639  -0.32340  -0.31265  -0.30113
 Alpha  occ. eigenvalues --   -0.30075  -0.29413  -0.29090  -0.29035  -0.28759
 Alpha  occ. eigenvalues --   -0.27725  -0.27389  -0.27254  -0.26460  -0.25162
 Alpha  occ. eigenvalues --   -0.24199  -0.23769  -0.23497  -0.19254  -0.18328
 Alpha  occ. eigenvalues --   -0.16644  -0.15575  -0.15364   0.04070
 Alpha virt. eigenvalues --    0.05588   0.06128   0.06548   0.06920   0.07315
 Alpha virt. eigenvalues --    0.07463   0.07648   0.08409   0.09020   0.09184
 Alpha virt. eigenvalues --    0.09628   0.10081   0.10267   0.10637   0.11506

  Beta  occ. eigenvalues --  -19.05120 -18.99856 -14.25326 -10.18500 -10.14488
  Beta  occ. eigenvalues --  -10.13400 -10.11467 -10.10799 -10.09916 -10.09408
  Beta  occ. eigenvalues --  -10.09096 -10.08899 -10.08833 -10.08153 -10.07597
  Beta  occ. eigenvalues --  -10.07223 -10.06839 -10.06060  -0.96896  -0.94805
  Beta  occ. eigenvalues --   -0.84901  -0.77282  -0.70683  -0.68911  -0.67738
  Beta  occ. eigenvalues --   -0.66544  -0.64515  -0.62937  -0.56993  -0.55435
  Beta  occ. eigenvalues --   -0.54618  -0.53332  -0.51070  -0.48802  -0.45539
  Beta  occ. eigenvalues --   -0.43905  -0.42299  -0.40842  -0.39782  -0.38279
  Beta  occ. eigenvalues --   -0.37588  -0.36930  -0.35921  -0.35492  -0.34829
  Beta  occ. eigenvalues --   -0.34221  -0.33613  -0.32318  -0.31248  -0.30087
  Beta  occ. eigenvalues --   -0.30052  -0.29388  -0.29062  -0.29016  -0.28737
  Beta  occ. eigenvalues --   -0.27699  -0.27367  -0.27229  -0.26436  -0.25137
  Beta  occ. eigenvalues --   -0.24172  -0.23740  -0.23466  -0.19245  -0.18312
  Beta  occ. eigenvalues --   -0.16624  -0.15564  -0.15350
  Beta virt. eigenvalues --    0.05982   0.06479   0.06593   0.06695   0.07332
  Beta virt. eigenvalues --    0.07385   0.07981   0.08197   0.08647   0.09087
  Beta virt. eigenvalues --    0.09605   0.09938   0.10265   0.10515   0.10907

 Mulliken charges and spin densities:
               1          2
     1  C   -0.094751  -0.467035
     2  C   -0.392580   0.366774
     3  C    0.867582  -1.302506
     4  C   -0.090996  -0.032169
     5  N    0.323728   0.048174
     6  C   -0.400059   0.178283
     7  C    0.295904  -0.810270
     8  C   -0.142966  -1.558459
     9  O   -0.149767  -0.004809
    10  C    0.696477   0.721406
    11  C   -0.727883   0.461882
    12  C    0.278814  -0.692479
    13  C    2.086415  -2.395242
    14  C   -0.194153   0.121488
    15  C   -1.502560   1.436765
    16  O    0.014290  -0.014681
    17  C   -0.224034   0.169618
    18  C    0.002622  -0.547662
    19  H    0.105625   0.077104
    20  H    0.044607   0.076972
    21  H    0.046643   0.073324
    22  H   -0.042117   0.172679
    23  H   -0.317618   0.504527
    24  H   -0.073515   0.205377
    25  H   -0.185567   0.334072
    26  H   -0.132280   0.294837
    27  H    0.233208  -0.058945
    28  H    0.222369  -0.057805
    29  H   -0.284073   0.453574
    30  H    0.308153  -0.077651
    31  H   -0.232985   0.378625
    32  H   -0.062901   0.184140
    33  H    0.044070   0.118954
    34  H   -0.702532   0.899235
    35  H   -0.543148   0.723745
    36  H   -0.414814   0.601391
    37  H    0.214471  -0.036296
    38  H   -0.003868   0.154815
    39  H    0.044747   0.109197
    40  H    0.044773   0.083035
    41  H    0.040669   0.106015
 Sum of Mulliken charges =  -1.00000   1.00000

 Dipole moment (field-independent basis, Debye):
    X=             -0.0605    Y=              4.1270    Z=             -2.3085  Tot=              4.7292
 Quadrupole moment (field-independent basis, Debye-Ang):
   XX=           -195.8757   YY=           -165.0588   ZZ=           -156.3201
   XY=            -11.6621   XZ=             -3.2806   YZ=             -2.6304

 Summary of Natural Population Analysis:

                                       Natural Population
                Natural  -----------------------------------------------
    Atom  No    Charge         Core      Valence    Rydberg      Total
 -----------------------------------------------------------------------
      C    1   -0.29207      0.99966     2.28802    0.00439     3.29207
      C    2   -0.19190      0.99964     2.18435    0.00791     3.19190
      C    3   -0.19166      0.99962     2.18349    0.00856     3.19166
      C    4   -0.08999      0.99959     2.07885    0.01155     3.08999
      N    5   -0.25020      0.99963     2.73770    0.01287     3.75020
      C    6   -0.08585      0.99961     2.07615    0.01010     3.08585
      C    7   -0.29366      0.99965     2.28908    0.00494     3.29366
      C    8    0.34594      0.99957     1.62931    0.02518     2.65406
      O    9   -0.32802      0.99988     3.32310    0.00503     4.32802
      C   10   -0.07563      0.99940     2.06404    0.01219     3.07563
      C   11   -0.08979      0.99952     2.08050    0.00977     3.08979
      C   12   -0.10307      0.99956     2.09313    0.01038     3.10307
      C   13   -0.09450      0.99957     2.08475    0.01018     3.09450
      C   14   -0.11378      0.99950     2.10404    0.01023     3.11378
      C   15    0.15836      0.99932     1.82801    0.01431     2.84164
      O   16   -0.29993      0.99986     3.29003    0.01004     4.29993
      C   17   -0.01189      0.99957     2.00277    0.00955     3.01189
      C   18   -0.29290      0.99966     2.28879    0.00445     3.29290
      H   19    0.11084      0.00000     0.38802    0.00114     0.38916
      H   20    0.09636      0.00000     0.40286    0.00079     0.40364
      H   21    0.09106      0.00000     0.40798    0.00096     0.40894
      H   22    0.09476      0.00000     0.40365    0.00159     0.40524
      H   23    0.09568      0.00000     0.40316    0.00116     0.40432
      H   24    0.09831      0.00000     0.39991    0.00178     0.40169
      H   25    0.09700      0.00000     0.40192    0.00109     0.40300
      H   26    0.09713      0.00000     0.40167    0.00120     0.40287
      H   27    0.11183      0.00000     0.38679    0.00138     0.38817
      H   28    0.10538      0.00000     0.39302    0.00160     0.39462
      H   29    0.09789      0.00000     0.40049    0.00162     0.40211
      H   30    0.10875      0.00000     0.38946    0.00179     0.39125
      H   31    0.10035      0.00000     0.39875    0.00091     0.39965
      H   32    0.09656      0.00000     0.40235    0.00109     0.40344
      H   33    0.10494      0.00000     0.39363    0.00143     0.39506
      H   34    0.10486      0.00000     0.39359    0.00155     0.39514
      H   35    0.10452      0.00000     0.39347    0.00201     0.39548
      H   36    0.10721      0.00000     0.39150    0.00128     0.39279
      H   37    0.09785      0.00000     0.40053    0.00162     0.40215
      H   38    0.07814      0.00000     0.42041    0.00145     0.42186
      H   39    0.10319      0.00000     0.39561    0.00120     0.39681
      H   40    0.09861      0.00000     0.40054    0.00086     0.40139
      H   41    0.09933      0.00000     0.39948    0.00119     0.40067
 =======================================================================
   * Total *   -0.00000     17.99281    49.79492    0.21227    68.00000

 Normal termination of Gaussian 16 at Sat Dec 12 00:36:44 2020.
