 Gaussian 16, Revision A.03,

 -----------------------------------------------------------
 # opt freq B3LYP/6-31G(d) empiricaldispersion=gd3bj scf=xqc
 -----------------------------------------------------------

 ------------------------------
 CID_47098626_JID_9151_neutraal
 ------------------------------
 Symbolic Z-matrix:
 Charge =  0 Multiplicity = 1

 SCF Done:  E(RB3LYP) =  -1218.75639129     A.U. after   16 cycles
 SCF Done:  E(RB3LYP) =  -1218.76137985     A.U. after   15 cycles
 SCF Done:  E(RB3LYP) =  -1218.76267147     A.U. after   15 cycles
 SCF Done:  E(RB3LYP) =  -1218.76319438     A.U. after   15 cycles
 SCF Done:  E(RB3LYP) =  -1218.76366829     A.U. after   13 cycles
 SCF Done:  E(RB3LYP) =  -1218.76409078     A.U. after   12 cycles
 SCF Done:  E(RB3LYP) =  -1218.76440816     A.U. after   13 cycles
 SCF Done:  E(RB3LYP) =  -1218.76440563     A.U. after   13 cycles
 SCF Done:  E(RB3LYP) =  -1218.76518087     A.U. after   12 cycles
 SCF Done:  E(RB3LYP) =  -1218.76610371     A.U. after   15 cycles
 SCF Done:  E(RB3LYP) =  -1218.76649662     A.U. after   11 cycles
 SCF Done:  E(RB3LYP) =  -1218.76649939     A.U. after   11 cycles
 SCF Done:  E(RB3LYP) =  -1218.76650135     A.U. after   11 cycles
 SCF Done:  E(RB3LYP) =  -1218.76650176     A.U. after    9 cycles
 SCF Done:  E(RB3LYP) =  -1218.76650177     A.U. after    7 cycles
 SCF Done:  E(RB3LYP) =  -1218.76650176     A.U. after    7 cycles
 Optimization completed.
    -- Stationary point found.
 Normal termination of Gaussian 16 at Sun Dec 13 16:20:34 2020.

 --------------------------------------------------------------------
 #N Geom=AllCheck Guess=TCheck SCRF=Check GenChk RB3LYP/6-31G(d) Freq
 --------------------------------------------------------------------

 Structure from the checkpoint file:  "JID_9151.chk"
 ------------------------------
 CID_47098626_JID_9151_neutraal
 ------------------------------
 Charge =  0 Multiplicity = 1

 SCF Done:  E(RB3LYP) =  -1218.76650176     A.U. after    2 cycles

  Exact polarizability: 272.405   7.372 150.665  13.841 -11.648 112.475
 Approx polarizability: 390.335   0.688 241.220  30.871 -33.549 207.101

                      1                      2                      3
                      A                      A                      A
 Frequencies --     16.4260                23.9701                37.7437
 Red. masses --      4.4987                 5.9751                 8.0993
 Frc consts  --      0.0007                 0.0020                 0.0068
 IR Inten    --      2.1676                 1.5659                 0.2512

                      4                      5                      6
                      A                      A                      A
 Frequencies --     52.6120                78.5401               104.2475
 Red. masses --      5.8700                 2.1504                 5.3827
 Frc consts  --      0.0096                 0.0078                 0.0345
 IR Inten    --      0.4776                 1.1849                 4.1918

                      7                      8                      9
                      A                      A                      A
 Frequencies --    106.9228               122.0995               157.9527
 Red. masses --      5.8244                 4.5353                 7.1024
 Frc consts  --      0.0392                 0.0398                 0.1044
 IR Inten    --      5.1626                 0.2358                 1.5672

                     10                     11                     12
                      A                      A                      A
 Frequencies --    175.4581               179.3317               219.9599
 Red. masses --      7.1057                 5.9298                 4.3286
 Frc consts  --      0.1289                 0.1124                 0.1234
 IR Inten    --      2.6650                 1.6031                 1.0426

                     13                     14                     15
                      A                      A                      A
 Frequencies --    249.2186               274.1225               316.0437
 Red. masses --      3.3338                 1.6807                 7.4911
 Frc consts  --      0.1220                 0.0744                 0.4408
 IR Inten    --      2.5369                 1.7077                 6.1176

                     16                     17                     18
                      A                      A                      A
 Frequencies --    335.6622               346.9810               434.5510
 Red. masses --      5.9724                 3.6356                 8.7603
 Frc consts  --      0.3965                 0.2579                 0.9746
 IR Inten    --      1.2726                 0.6924                 0.2581

                     19                     20                     21
                      A                      A                      A
 Frequencies --    457.4633               468.4323               475.6275
 Red. masses --      6.0785                 6.2217                 5.9641
 Frc consts  --      0.7495                 0.8044                 0.7949
 IR Inten    --      0.3896                 0.7593                 5.1795

                     22                     23                     24
                      A                      A                      A
 Frequencies --    489.5438               506.3750               574.6113
 Red. masses --      6.1462                 7.2277                 3.2097
 Frc consts  --      0.8678                 1.0919                 0.6244
 IR Inten    --      1.6392                 2.5028                 0.2273

                     25                     26                     27
                      A                      A                      A
 Frequencies --    590.2191               609.2834               641.8302
 Red. masses --      5.9607                 6.0367                 5.3305
 Frc consts  --      1.2234                 1.3203                 1.2938
 IR Inten    --      3.2218                 3.9926                 8.3059

                     28                     29                     30
                      A                      A                      A
 Frequencies --    671.2169               703.8097               719.3119
 Red. masses --      8.3248                 6.6777                 5.4533
 Frc consts  --      2.2098                 1.9489                 1.6624
 IR Inten    --      5.4496                 1.8123                 0.6741

                     31                     32                     33
                      A                      A                      A
 Frequencies --    727.9676               738.3788               761.0376
 Red. masses --      1.6830                 2.5235                 6.4630
 Frc consts  --      0.5255                 0.8106                 2.2054
 IR Inten    --     15.6888                67.0580                 9.1750

                     34                     35                     36
                      A                      A                      A
 Frequencies --    804.0840               818.3069               839.5745
 Red. masses --      4.1196                 2.1384                 1.1372
 Frc consts  --      1.5693                 0.8437                 0.4723
 IR Inten    --     11.4998                 5.9650                 3.2553

                     37                     38                     39
                      A                      A                      A
 Frequencies --    862.7338               867.8519               876.4348
 Red. masses --      2.0849                 1.5575                 4.0179
 Frc consts  --      0.9143                 0.6912                 1.8184
 IR Inten    --      4.7862                 0.6176                20.1243

                     40                     41                     42
                      A                      A                      A
 Frequencies --    878.3324               910.2526               930.7055
 Red. masses --      1.5659                 2.6644                 1.3599
 Frc consts  --      0.7118                 1.3007                 0.6940
 IR Inten    --     29.8233                 5.1043                 0.4893

                     43                     44                     45
                      A                      A                      A
 Frequencies --    948.8977               996.0126              1027.0001
 Red. masses --      1.3140                 3.1882                 4.9720
 Frc consts  --      0.6971                 1.8635                 3.0897
 IR Inten    --      0.6761                31.1767               173.1971

                     46                     47                     48
                      A                      A                      A
 Frequencies --   1072.4937              1090.2001              1120.2705
 Red. masses --      3.2874                 1.8458                 1.1595
 Frc consts  --      2.2279                 1.2926                 0.8574
 IR Inten    --     69.7998               140.4731                29.6438

                     49                     50                     51
                      A                      A                      A
 Frequencies --   1146.4214              1158.0011              1186.8578
 Red. masses --      1.9386                 1.6608                 2.2609
 Frc consts  --      1.5011                 1.3121                 1.8764
 IR Inten    --      7.6268                89.7388                57.1514

                     52                     53                     54
                      A                      A                      A
 Frequencies --   1197.1548              1241.5690              1266.2263
 Red. masses --      1.6886                 3.0293                 1.5709
 Frc consts  --      1.4259                 2.7512                 1.4840
 IR Inten    --     16.3574               345.6230                 8.2978

                     55                     56                     57
                      A                      A                      A
 Frequencies --   1294.0557              1308.1179              1318.2525
 Red. masses --      3.6458                 1.9343                 1.1749
 Frc consts  --      3.5971                 1.9502                 1.2030
 IR Inten    --    414.1849                 9.0884                22.5269

                     58                     59                     60
                      A                      A                      A
 Frequencies --   1334.1362              1364.0127              1403.1760
 Red. masses --      3.1495                 7.4369                 2.5257
 Frc consts  --      3.3029                 8.1523                 2.9299
 IR Inten    --    289.6739                29.7624                13.9758

                     61                     62                     63
                      A                      A                      A
 Frequencies --   1420.5669              1450.1437              1465.3715
 Red. masses --      1.2813                 1.4637                 3.4848
 Frc consts  --      1.5235                 1.8135                 4.4088
 IR Inten    --     17.2154                59.8724                23.9377

                     64                     65                     66
                      A                      A                      A
 Frequencies --   1475.5821              1514.3445              1530.4788
 Red. masses --      5.5887                 1.0395                 1.0589
 Frc consts  --      7.1695                 1.4045                 1.4614
 IR Inten    --    135.8470                 7.0724                 7.6771

                     67                     68                     69
                      A                      A                      A
 Frequencies --   1546.4844              1560.3409              1586.6529
 Red. masses --      1.2859                 2.2519                 5.2927
 Frc consts  --      1.8120                 3.2302                 7.8505
 IR Inten    --     71.0947               117.6668                18.5005

                     70                     71                     72
                      A                      A                      A
 Frequencies --   1635.2776              1659.4030              1815.3587
 Red. masses --      7.1897                 6.2730                12.9942
 Frc consts  --     11.3278                10.1772                25.2305
 IR Inten    --     15.9316                35.6364               260.3119

                     73                     74                     75
                      A                      A                      A
 Frequencies --   2351.0309              3031.4600              3065.5488
 Red. masses --     12.6797                 1.0581                 1.0352
 Frc consts  --     41.2929                 5.7291                 5.7318
 IR Inten    --     45.0735                35.6846                14.3784

                     76                     77                     78
                      A                      A                      A
 Frequencies --   3079.0013              3137.9819              3148.1943
 Red. masses --      1.1067                 1.1026                 1.1044
 Frc consts  --      6.1817                 6.3970                 6.4493
 IR Inten    --     21.8267                22.9052                20.8088

                     79                     80                     81
                      A                      A                      A
 Frequencies --   3220.9612              3230.4867              3235.6711
 Red. masses --      1.0890                 1.0895                 1.0954
 Frc consts  --      6.6566                 6.6993                 6.7571
 IR Inten    --      2.7764                 6.9463                 2.3784

                     82                     83                     84
                      A                      A                      A
 Frequencies --   3241.3139              3253.5942              3269.7953
 Red. masses --      1.0912                 1.0949                 1.0974
 Frc consts  --      6.7543                 6.8292                 6.9131
 IR Inten    --      1.4555                 0.2802                 0.5264

 - Thermochemistry -
 -------------------
 Temperature   298.150 Kelvin.  Pressure   1.00000 Atm.
 Atom     1 has atomic number  6 and mass  12.00000

 Molecular mass:   273.04597 amu.
 Principal axes and moments of inertia in atomic units:
                           1         2         3
     Eigenvalues --  2315.13908********************
           X            0.99998  -0.00274   0.00546
           Y            0.00274   1.00000   0.00077
           Z           -0.00546  -0.00075   0.99998
 This molecule is an asymmetric top.
 Rotational symmetry number  1.
 Warning -- assumption of classical behavior for rotation
           may cause significant error
 Rotational temperatures (Kelvin)      0.03741     0.00851     0.00750
 Rotational constants (GHZ):           0.77954     0.17732     0.15619
 Zero-point vibrational energy     583497.3 (Joules/Mol)
                                  139.45920 (Kcal/Mol)
 Warning -- explicit consideration of  26 degrees of freedom as
           vibrations may cause significant error
 Vibrational temperatures:     23.63    34.49    54.30    75.70   113.00
          (Kelvin)            149.99   153.84   175.67   227.26   252.45
                              258.02   316.47   358.57   394.40   454.72
                              482.94   499.23   625.22   658.19   673.97
                              684.32   704.34   728.56   826.74   849.19
                              876.62   923.45   965.73  1012.63  1034.93
                             1047.38  1062.36  1094.96  1156.90  1177.36
                             1207.96  1241.28  1248.65  1260.99  1263.72
                             1309.65  1339.08  1365.25  1433.04  1477.62
                             1543.08  1568.55  1611.82  1649.44  1666.11
                             1707.62  1722.44  1786.34  1821.82  1861.86
                             1882.09  1896.67  1919.52  1962.51  2018.86
                             2043.88  2086.43  2108.34  2123.03  2178.80
                             2202.02  2225.05  2244.98  2282.84  2352.80
                             2387.51  2611.90  3382.61  4361.59  4410.64
                             4430.00  4514.86  4529.55  4634.24  4647.95
                             4655.41  4663.53  4681.20  4704.51

 Zero-point correction=                           0.222242 (Hartree/Particle)
 Thermal correction to Energy=                    0.239623
 Thermal correction to Enthalpy=                  0.240567
 Thermal correction to Gibbs Free Energy=         0.173854
 Sum of electronic and zero-point Energies=          -1218.544259
 Sum of electronic and thermal Energies=             -1218.526879
 Sum of electronic and thermal Enthalpies=           -1218.525935
 Sum of electronic and thermal Free Energies=        -1218.592647

                     E (Thermal)             CV                S
                      KCal/Mol        Cal/Mol-Kelvin    Cal/Mol-Kelvin
 Total                  150.366             63.956            140.408
 Electronic               0.000              0.000              0.000
 Translational            0.889              2.981             42.712
 Rotational               0.889              2.981             33.964
 Vibrational            148.588             57.995             63.732
 Vibration     1          0.593              1.986              7.025
 Vibration     2          0.593              1.985              6.275
 Vibration     3          0.594              1.982              5.374
 Vibration     4          0.596              1.977              4.717
 Vibration     5          0.600              1.964              3.927
 Vibration     6          0.605              1.946              3.373
 Vibration     7          0.606              1.944              3.324
 Vibration     8          0.610              1.931              3.067
 Vibration     9          0.621              1.894              2.574
 Vibration    10          0.627              1.873              2.376
 Vibration    11          0.629              1.868              2.335
 Vibration    12          0.647              1.811              1.959
 Vibration    13          0.662              1.764              1.736
 Vibration    14          0.676              1.721              1.570
 Vibration    15          0.703              1.643              1.330
 Vibration    16          0.717              1.604              1.233
 Vibration    17          0.725              1.581              1.180
 Vibration    18          0.795              1.395              0.844
 Vibration    19          0.816              1.344              0.774
 Vibration    20          0.826              1.320              0.742
 Vibration    21          0.832              1.304              0.722
 Vibration    22          0.845              1.273              0.685
 Vibration    23          0.862              1.236              0.642
 Vibration    24          0.931              1.086              0.495
 Vibration    25          0.948              1.053              0.467
 Vibration    26          0.968              1.012              0.434

 Optimization completed.
    -- Stationary point found.
 Normal termination of Gaussian 16 at Sun Dec 13 16:34:07 2020.

 ----------------------------------------------------------------------
 # B3LYP/6-311++G(d,p) empiricaldispersion=gd3bj scf=xqc pop=npa geom=c
 heck
 ----------------------------------------------------------------------

 --------------------------------------
 CID_47098626_JID_9151_Energie_neutraal
 --------------------------------------
 Structure from the checkpoint file:  "JID_9151.chk"
 Charge =  0 Multiplicity = 1

 SCF Done:  E(RB3LYP) =  -1219.01534966     A.U. after   17 cycles
 Normal termination of Gaussian 16 at Sun Dec 13 16:40:28 2020.

 ----------------------------------------------------------------------
 # B3LYP/6-311++G(d,p) empiricaldispersion=gd3bj scf=xqc pop=npa geom=c
 heck
 ----------------------------------------------------------------------

 ------------------------------------
 CID_47098626_JID_9151_Energie_kation
 ------------------------------------
 Structure from the checkpoint file:  "JID_9151.chk"
 Charge =  1 Multiplicity = 2

 SCF Done:  E(UB3LYP) =  -1218.70746872     A.U. after   31 cycles
 Normal termination of Gaussian 16 at Sun Dec 13 16:56:58 2020.
 Gaussian 16:  ES64L-G16RevA.03 25-Dec-2016

 ----------------------------------------------------------------------
 # B3LYP/6-311++G(d,p) empiricaldispersion=gd3bj scf=xqc pop=npa geom=c
 heck
 ----------------------------------------------------------------------

 -----------------------------------
 CID_47098626_JID_9151_Energie_anion
 -----------------------------------
 Structure from the checkpoint file:  "JID_9151.chk"
 Charge = -1 Multiplicity = 2

                         Standard orientation:
 ---------------------------------------------------------------------
 Center     Atomic      Atomic             Coordinates (Angstroms)
 Number     Number       Type             X           Y           Z
 ---------------------------------------------------------------------
      1          6           0        0.226974    3.519862    0.275675
      2          6           0       -1.052592    2.706159    0.276689
      3          8           0       -0.692980    1.362997    0.626391
      4          6           0       -1.568127    0.368794    0.358406
      5          6           0       -1.019232   -0.922136    0.230972
      6          6           0       -1.823228   -2.027702    0.003134
      7          6           0       -3.202633   -1.873086   -0.122560
      8          6           0       -3.758425   -0.591675   -0.023989
      9          6           0       -2.944344    0.529876    0.215928
     10          6           0       -5.172994   -0.412237   -0.160126
     11          7           0       -6.321556   -0.263898   -0.269019
     12          8           0        0.342697   -1.102233    0.400588
     13          6           0        1.180246   -0.460948   -0.489071
     14          8           0        0.800462    0.078970   -1.502635
     15          6           0        2.566667   -0.550123   -0.041548
     16          6           0        3.082129   -1.104740    1.108764
     17          6           0        4.494152   -0.980343    1.189578
     18          6           0        5.025075   -0.332300    0.101115
     19         16           0        3.818117    0.137450   -1.041032
     20          1           0        0.700570    3.493712    1.261913
     21          1           0        0.010736    4.562491    0.020493
     22          1           0        0.927468    3.112481   -0.459082
     23          1           0       -1.775996    3.095439    1.005824
     24          1           0       -1.524433    2.704578   -0.713566
     25          1           0       -1.355609   -3.002132   -0.086384
     26          1           0       -3.841481   -2.729004   -0.306274
     27          1           0       -3.397670    1.509360    0.301974
     28          1           0        2.458244   -1.576234    1.857759
     29          1           0        5.090360   -1.351550    2.015130
     30          1           0        6.065390   -0.105333   -0.090703
 ---------------------------------------------------------------------

 SCF Done:  E(UB3LYP) =  -1219.04203429     A.U. after   24 cycles

 The electronic state is 2-A.
 Alpha  occ. eigenvalues --  -88.74679 -19.05100 -19.04469 -18.96308 -14.19504
 Alpha  occ. eigenvalues --  -10.15423 -10.13686 -10.13324 -10.11915 -10.09646
 Alpha  occ. eigenvalues --  -10.09452 -10.07799 -10.07704 -10.07594 -10.07252
 Alpha  occ. eigenvalues --  -10.07053 -10.06817 -10.05793 -10.04781  -7.83321
 Alpha  occ. eigenvalues --   -5.79607  -5.79247  -5.78945  -0.98621  -0.96445
 Alpha  occ. eigenvalues --   -0.89010  -0.79693  -0.75970  -0.75543  -0.68943
 Alpha  occ. eigenvalues --   -0.66584  -0.63841  -0.61861  -0.61380  -0.55923
 Alpha  occ. eigenvalues --   -0.55214  -0.50143  -0.49389  -0.46021  -0.44215
 Alpha  occ. eigenvalues --   -0.43362  -0.40276  -0.39943  -0.39452  -0.39304
 Alpha  occ. eigenvalues --   -0.35804  -0.34012  -0.33036  -0.32474  -0.31458
 Alpha  occ. eigenvalues --   -0.30792  -0.30627  -0.29846  -0.28294  -0.27863
 Alpha  occ. eigenvalues --   -0.27537  -0.26893  -0.26361  -0.25842  -0.25046
 Alpha  occ. eigenvalues --   -0.24585  -0.23888  -0.22464  -0.22410  -0.21153
 Alpha  occ. eigenvalues --   -0.19378  -0.15374  -0.14725  -0.13761  -0.12771
 Alpha  occ. eigenvalues --   -0.12105   0.02521
 Alpha virt. eigenvalues --    0.05628   0.07119   0.07816   0.08513   0.09217
 Alpha virt. eigenvalues --    0.09493   0.09614   0.10406   0.11074   0.11478
 Alpha virt. eigenvalues --    0.12409   0.12867   0.13259   0.13455   0.13723

  Beta  occ. eigenvalues --  -88.74631 -19.05106 -19.04481 -18.96026 -14.19363
  Beta  occ. eigenvalues --  -10.15171 -10.13682 -10.13354 -10.11708 -10.09644
  Beta  occ. eigenvalues --  -10.09311 -10.07766 -10.07614 -10.07593 -10.07251
  Beta  occ. eigenvalues --  -10.06757 -10.06743 -10.05882 -10.04576  -7.83279
  Beta  occ. eigenvalues --   -5.79587  -5.79227  -5.78787  -0.98484  -0.96379
  Beta  occ. eigenvalues --   -0.88583  -0.79475  -0.75735  -0.75313  -0.68881
  Beta  occ. eigenvalues --   -0.66273  -0.63670  -0.61513  -0.61036  -0.55782
  Beta  occ. eigenvalues --   -0.54893  -0.50084  -0.48951  -0.45948  -0.44008
  Beta  occ. eigenvalues --   -0.43044  -0.40135  -0.39796  -0.39351  -0.39261
  Beta  occ. eigenvalues --   -0.35548  -0.33886  -0.32784  -0.32305  -0.31004
  Beta  occ. eigenvalues --   -0.30654  -0.30377  -0.29741  -0.27963  -0.27677
  Beta  occ. eigenvalues --   -0.27182  -0.26566  -0.26170  -0.25633  -0.24451
  Beta  occ. eigenvalues --   -0.24326  -0.23668  -0.22331  -0.22227  -0.20839
  Beta  occ. eigenvalues --   -0.18575  -0.14862  -0.14314  -0.12930  -0.11962
  Beta  occ. eigenvalues --   -0.10935
  Beta virt. eigenvalues --    0.06822   0.07056   0.07789   0.08125   0.08506
  Beta virt. eigenvalues --    0.09295   0.09474   0.09595   0.10395   0.11038
  Beta virt. eigenvalues --    0.11456   0.12393   0.12844   0.13251   0.13569

 Mulliken charges and spin densities:
               1          2
     1  C   -0.683108  -0.010709
     2  C   -0.032784  -0.005667
     3  O   -0.055703  -0.002357
     4  C   -0.106183   0.002158
     5  C   -0.548587   0.078280
     6  C    0.344883   0.032082
     7  C   -0.634002   0.036942
     8  C    2.072174   0.101070
     9  C    0.229515   0.086102
    10  C   -1.720520  -0.044031
    11  N   -0.258317   0.076172
    12  O    0.056901  -0.013447
    13  C   -1.441001   0.152053
    14  O   -0.249706   0.100711
    15  C    0.492645  -0.006931
    16  C    0.987487   0.191944
    17  C   -0.888738  -0.053604
    18  C    0.237979   0.192095
    19  S   -0.461707   0.088868
    20  H    0.139815   0.001315
    21  H    0.117700   0.001530
    22  H    0.170722   0.008766
    23  H    0.128683  -0.000451
    24  H    0.147446   0.009566
    25  H    0.144502   0.003811
    26  H    0.154568  -0.001281
    27  H    0.176520  -0.004553
    28  H    0.168810  -0.009462
    29  H    0.102066   0.003821
    30  H    0.207940  -0.014790
 Sum of Mulliken charges =  -1.00000   1.00000

 Dipole moment (field-independent basis, Debye):
    X=              3.6466    Y=              2.1660    Z=              2.2719  Tot=              4.8115
 Quadrupole moment (field-independent basis, Debye-Ang):
   XX=           -216.4800   YY=           -118.4341   ZZ=           -131.0502
   XY=             -1.3654   XZ=             -0.2052   YZ=              0.4256

 Summary of Natural Population Analysis:

                                       Natural Population
                Natural  -----------------------------------------------
    Atom  No    Charge         Core      Valence    Rydberg      Total
 -----------------------------------------------------------------------
      C    1   -0.29385      0.99966     2.28967    0.00452     3.29385
      C    2   -0.00955      0.99960     2.00039    0.00956     3.00955
      O    3   -0.27504      0.99984     3.26399    0.01121     4.27504
      C    4    0.14713      0.99935     1.84234    0.01118     2.85287
      C    5    0.18433      0.99933     1.80397    0.01238     2.81567
      C    6   -0.11502      0.99952     2.10709    0.00841     3.11502
      C    7   -0.08132      0.99955     2.07404    0.00772     3.08132
      C    8   -0.07781      0.99944     2.06786    0.01052     3.07781
      C    9   -0.09946      0.99951     2.09319    0.00676     3.09946
      C   10    0.15273      0.99964     1.82957    0.01806     2.84727
      N   11   -0.17953      0.99979     2.66879    0.01095     3.67953
      O   12   -0.28343      0.99985     3.27323    0.01035     4.28343
      C   13    0.41619      0.99955     1.56030    0.02397     2.58381
      O   14   -0.28172      0.99987     3.27651    0.00534     4.28172
      C   15   -0.14425      0.99944     2.13317    0.01164     3.14425
      C   16   -0.06712      0.99950     2.05871    0.00891     3.06712
      C   17   -0.16149      0.99955     2.15200    0.00994     3.16149
      C   18   -0.14116      0.99956     2.13006    0.01154     3.14116
      S   19    0.22784      4.99943     2.74926    0.02347     7.77216
      H   20    0.10039      0.00000     0.39867    0.00094     0.39961
      H   21    0.09396      0.00000     0.40529    0.00076     0.40604
      H   22    0.11217      0.00000     0.38662    0.00121     0.38783
      H   23    0.07702      0.00000     0.42156    0.00142     0.42298
      H   24    0.08719      0.00000     0.41136    0.00145     0.41281
      H   25    0.10555      0.00000     0.39348    0.00096     0.39445
      H   26    0.10090      0.00000     0.39825    0.00086     0.39910
      H   27    0.10373      0.00000     0.39537    0.00090     0.39627
      H   28    0.10615      0.00000     0.39289    0.00096     0.39385
      H   29    0.09815      0.00000     0.40076    0.00109     0.40185
      H   30    0.09731      0.00000     0.40171    0.00099     0.40269
 =======================================================================
   * Total *   -0.00000     22.99198    47.78006    0.22796    71.00000

 Normal termination of Gaussian 16 at Sun Dec 13 17:09:46 2020.
