 Gaussian 16, Revision A.03,

 -----------------------------------------------------------
 # opt freq B3LYP/6-31G(d) empiricaldispersion=gd3bj scf=xqc
 -----------------------------------------------------------

 ------------------------------
 CID_65229375_JID_6864_neutraal
 ------------------------------
 Symbolic Z-matrix:
 Charge =  0 Multiplicity = 1

 SCF Done:  E(RB3LYP) =  -767.664859481     A.U. after   14 cycles
 SCF Done:  E(RB3LYP) =  -767.668883870     A.U. after   12 cycles
 SCF Done:  E(RB3LYP) =  -767.666093356     A.U. after   12 cycles
 SCF Done:  E(RB3LYP) =  -767.668393857     A.U. after   12 cycles
 SCF Done:  E(RB3LYP) =  -767.670475131     A.U. after   10 cycles
 SCF Done:  E(RB3LYP) =  -767.672252465     A.U. after   12 cycles
 SCF Done:  E(RB3LYP) =  -767.674400702     A.U. after   13 cycles
 SCF Done:  E(RB3LYP) =  -767.675418490     A.U. after   12 cycles
 SCF Done:  E(RB3LYP) =  -767.675776208     A.U. after   12 cycles
 SCF Done:  E(RB3LYP) =  -767.676050712     A.U. after   12 cycles
 SCF Done:  E(RB3LYP) =  -767.676235306     A.U. after   10 cycles
 SCF Done:  E(RB3LYP) =  -767.676237437     A.U. after    9 cycles
 SCF Done:  E(RB3LYP) =  -767.676240302     A.U. after   10 cycles
 SCF Done:  E(RB3LYP) =  -767.676240630     A.U. after    8 cycles
 SCF Done:  E(RB3LYP) =  -767.676240740     A.U. after    7 cycles
 Optimization completed.
    -- Stationary point found.
 Normal termination of Gaussian 16 at Fri Dec 11 01:05:29 2020.

 --------------------------------------------------------------------
 #N Geom=AllCheck Guess=TCheck SCRF=Check GenChk RB3LYP/6-31G(d) Freq
 --------------------------------------------------------------------

 Structure from the checkpoint file:  "JID_6864.chk"
 ------------------------------
 CID_65229375_JID_6864_neutraal
 ------------------------------
 Charge =  0 Multiplicity = 1

 SCF Done:  E(RB3LYP) =  -767.676240740     A.U. after    1 cycles

  Exact polarizability: 155.682  -1.042 131.127   4.947   5.339 122.383
 Approx polarizability: 191.784   5.275 186.640  15.802  21.759 191.444

                      1                      2                      3
                      A                      A                      A
 Frequencies --     34.4580                36.7452                41.6504
 Red. masses --      4.8880                 4.0578                 6.0039
 Frc consts  --      0.0034                 0.0032                 0.0061
 IR Inten    --      1.4342                 0.2781                 3.1036

                      4                      5                      6
                      A                      A                      A
 Frequencies --     52.7677                65.4660                86.3573
 Red. masses --      4.6638                 4.6114                 3.9068
 Frc consts  --      0.0077                 0.0116                 0.0172
 IR Inten    --      0.6909                 0.1759                 0.4683

                      7                      8                      9
                      A                      A                      A
 Frequencies --    101.4205               132.0065               141.5005
 Red. masses --      2.6947                 1.1275                 3.1745
 Frc consts  --      0.0163                 0.0116                 0.0374
 IR Inten    --      0.2878                 0.3012                 0.4240

                     10                     11                     12
                      A                      A                      A
 Frequencies --    162.3259               166.4677               181.0117
 Red. masses --      2.9586                 4.1767                 3.3961
 Frc consts  --      0.0459                 0.0682                 0.0656
 IR Inten    --      1.3556                 0.3844                 2.3764

                     13                     14                     15
                      A                      A                      A
 Frequencies --    220.6047               228.8090               240.2250
 Red. masses --      1.4617                 1.6039                 1.3901
 Frc consts  --      0.0419                 0.0495                 0.0473
 IR Inten    --      4.5856                 5.8381                16.5652

                     16                     17                     18
                      A                      A                      A
 Frequencies --    262.8451               284.3278               293.6774
 Red. masses --      1.5095                 2.4581                 1.7808
 Frc consts  --      0.0614                 0.1171                 0.0905
 IR Inten    --      4.4470                14.7579                11.2757

                     19                     20                     21
                      A                      A                      A
 Frequencies --    297.3911               335.9269               351.8038
 Red. masses --      2.9405                 2.7286                 2.6310
 Frc consts  --      0.1532                 0.1814                 0.1919
 IR Inten    --      9.1885                 6.0712                 5.3354

                     22                     23                     24
                      A                      A                      A
 Frequencies --    384.5610               418.3719               428.4962
 Red. masses --      2.4243                 2.5137                 2.9116
 Frc consts  --      0.2112                 0.2592                 0.3150
 IR Inten    --      0.9145                 3.4122                 6.9003

                     25                     26                     27
                      A                      A                      A
 Frequencies --    470.7967               496.9346               569.4350
 Red. masses --      3.1245                 2.7967                 3.3658
 Frc consts  --      0.4080                 0.4069                 0.6430
 IR Inten    --      3.3385                 4.0129                 5.0084

                     28                     29                     30
                      A                      A                      A
 Frequencies --    624.4884               632.9589               693.7297
 Red. masses --      4.4582                 3.7527                 1.6425
 Frc consts  --      1.0244                 0.8858                 0.4657
 IR Inten    --      3.5512                16.9032                26.4702

                     31                     32                     33
                      A                      A                      A
 Frequencies --    746.5491               760.4856               777.7206
 Red. masses --      1.7102                 2.8823                 3.0477
 Frc consts  --      0.5616                 0.9821                 1.0861
 IR Inten    --     27.4835                 8.2892                30.3150

                     34                     35                     36
                      A                      A                      A
 Frequencies --    820.5083               847.6724               855.5490
 Red. masses --      1.9424                 1.9819                 3.6496
 Frc consts  --      0.7705                 0.8391                 1.5739
 IR Inten    --     21.0437                41.7744                 3.9282

                     37                     38                     39
                      A                      A                      A
 Frequencies --    888.0189               898.2364               929.4275
 Red. masses --      2.9490                 1.5643                 2.1235
 Frc consts  --      1.3702                 0.7436                 1.0808
 IR Inten    --     34.4875                52.7337                 8.5488

                     40                     41                     42
                      A                      A                      A
 Frequencies --    947.4225               968.9946               977.3135
 Red. masses --      1.2198                 1.9267                 1.6282
 Frc consts  --      0.6451                 1.0659                 0.9163
 IR Inten    --     10.7081                 1.9025                 6.5769

                     43                     44                     45
                      A                      A                      A
 Frequencies --    991.6283              1025.4806              1038.8876
 Red. masses --      1.9234                 2.3707                 1.7912
 Frc consts  --      1.1144                 1.4688                 1.1390
 IR Inten    --      4.8926                 7.6305                 1.6422

                     46                     47                     48
                      A                      A                      A
 Frequencies --   1076.0313              1095.4764              1112.7547
 Red. masses --      2.3817                 2.5871                 2.7463
 Frc consts  --      1.6248                 1.8292                 2.0035
 IR Inten    --     17.4800                11.5806                 2.4028

                     49                     50                     51
                      A                      A                      A
 Frequencies --   1121.1143              1146.9006              1169.9768
 Red. masses --      1.4586                 2.8433                 2.1241
 Frc consts  --      1.0802                 2.2035                 1.7131
 IR Inten    --      8.3990                47.3274                61.0999

                     52                     53                     54
                      A                      A                      A
 Frequencies --   1185.5810              1187.2196              1205.4081
 Red. masses --      1.8956                 1.3070                 1.7672
 Frc consts  --      1.5698                 1.0854                 1.5129
 IR Inten    --     48.7001                 6.2526                 3.5694

                     55                     56                     57
                      A                      A                      A
 Frequencies --   1219.2238              1238.0642              1245.7110
 Red. masses --      1.4619                 1.6009                 1.4067
 Frc consts  --      1.2803                 1.4457                 1.2861
 IR Inten    --      4.3037                45.0827                30.7423

                     58                     59                     60
                      A                      A                      A
 Frequencies --   1283.2917              1317.2258              1319.0305
 Red. masses --      1.8820                 1.3723                 1.4043
 Frc consts  --      1.8260                 1.4029                 1.4395
 IR Inten    --    138.2657                 3.8902                68.7831

                     61                     62                     63
                      A                      A                      A
 Frequencies --   1337.4345              1372.0064              1373.7455
 Red. masses --      1.1983                 1.2926                 1.3916
 Frc consts  --      1.2629                 1.4336                 1.5473
 IR Inten    --      8.3277                 4.5577                33.0100

                     64                     65                     66
                      A                      A                      A
 Frequencies --   1381.5426              1392.8258              1401.0844
 Red. masses --      1.3771                 1.4540                 1.4237
 Frc consts  --      1.5486                 1.6619                 1.6466
 IR Inten    --      3.8290                50.7150                 7.8233

                     67                     68                     69
                      A                      A                      A
 Frequencies --   1405.1013              1432.0017              1439.0971
 Red. masses --      1.5245                 1.2548                 1.3348
 Frc consts  --      1.7733                 1.5161                 1.6287
 IR Inten    --     27.2458                 4.2291                14.7006

                     70                     71                     72
                      A                      A                      A
 Frequencies --   1446.5701              1453.7098              1490.3884
 Red. masses --      1.4972                 1.2640                 1.1907
 Frc consts  --      1.8459                 1.5738                 1.5582
 IR Inten    --     20.0135                20.9879                 2.5551

                     73                     74                     75
                      A                      A                      A
 Frequencies --   1507.1186              1512.6679              1516.8538
 Red. masses --      1.1010                 1.0481                 1.1040
 Frc consts  --      1.4734                 1.4130                 1.4966
 IR Inten    --      2.8148                 6.1874                 8.7410

                     76                     77                     78
                      A                      A                      A
 Frequencies --   1519.8578              1520.8276              1521.8446
 Red. masses --      1.0757                 1.5634                 1.0712
 Frc consts  --      1.4641                 2.1305                 1.4618
 IR Inten    --     12.7564                76.7688                 2.4935

                     79                     80                     81
                      A                      A                      A
 Frequencies --   1525.4061              1535.2637              1537.2639
 Red. masses --      1.1082                 1.0564                 1.0636
 Frc consts  --      1.5193                 1.4671                 1.4809
 IR Inten    --     17.8547                 6.0901                 3.9733

                     82                     83                     84
                      A                      A                      A
 Frequencies --   1546.0720              1552.8548              1696.3466
 Red. masses --      1.0606                 1.0801                 1.0876
 Frc consts  --      1.4936                 1.5345                 1.8440
 IR Inten    --      3.4637                 7.7203                34.5773

                     85                     86                     87
                      A                      A                      A
 Frequencies --   1757.5576              1834.4471              2990.1383
 Red. masses --      6.9334                10.7923                 1.0732
 Frc consts  --     12.6188                21.3982                 5.6532
 IR Inten    --    377.5048               203.5347                72.0615

                     88                     89                     90
                      A                      A                      A
 Frequencies --   3038.8751              3042.8640              3049.0060
 Red. masses --      1.0724                 1.0358                 1.0375
 Frc consts  --      5.8348                 5.6508                 5.6828
 IR Inten    --     44.2385                32.2191                17.9573

                     91                     92                     93
                      A                      A                      A
 Frequencies --   3057.6941              3061.0946              3071.9116
 Red. masses --      1.0809                 1.0620                 1.0843
 Frc consts  --      5.9544                 5.8633                 6.0287
 IR Inten    --      1.7867                23.2968                29.1443

                     94                     95                     96
                      A                      A                      A
 Frequencies --   3078.3931              3089.1488              3091.9422
 Red. masses --      1.0297                 1.0612                 1.0907
 Frc consts  --      5.7489                 5.9665                 6.1436
 IR Inten    --     27.0598                 7.3663                23.9642

                     97                     98                     99
                      A                      A                      A
 Frequencies --   3106.2391              3108.2742              3110.7153
 Red. masses --      1.1020                 1.0996                 1.1015
 Frc consts  --      6.2649                 6.2592                 6.2800
 IR Inten    --      9.6195                46.5448                33.3913

                    100                    101                    102
                      A                      A                      A
 Frequencies --   3115.5873              3130.6260              3137.3007
 Red. masses --      1.1012                 1.1000                 1.0947
 Frc consts  --      6.2977                 6.3519                 6.3480
 IR Inten    --     56.4868                26.5921                39.9299

                    103                    104                    105
                      A                      A                      A
 Frequencies --   3141.6071              3154.0208              3187.4904
 Red. masses --      1.1066                 1.1074                 1.1074
 Frc consts  --      6.4351                 6.4904                 6.6290
 IR Inten    --     14.2613                20.7557                12.8029

                    106                    107                    108
                      A                      A                      A
 Frequencies --   3477.8029              3560.6178              3577.1943
 Red. masses --      1.0499                 1.0926                 1.0752
 Frc consts  --      7.4817                 8.1616                 8.1060
 IR Inten    --      0.4327                 0.1241                55.3628

 - Thermochemistry -
 -------------------
 Temperature   298.150 Kelvin.  Pressure   1.00000 Atm.
 Atom     1 has atomic number  6 and mass  12.00000

 Molecular mass:   230.16304 amu.
 Principal axes and moments of inertia in atomic units:
                           1         2         3
     Eigenvalues --  2089.252566739.546477078.58257
           X            0.99979  -0.01988  -0.00429
           Y            0.01912   0.99067  -0.13495
           Z            0.00693   0.13484   0.99084
 This molecule is an asymmetric top.
 Rotational symmetry number  1.
 Warning -- assumption of classical behavior for rotation
           may cause significant error
 Rotational temperatures (Kelvin)      0.04146     0.01285     0.01224
 Rotational constants (GHZ):           0.86382     0.26778     0.25496
 Zero-point vibrational energy     886569.8 (Joules/Mol)
                                  211.89527 (Kcal/Mol)
 Warning -- explicit consideration of  27 degrees of freedom as
           vibrations may cause significant error
 Vibrational temperatures:     49.58    52.87    59.93    75.92    94.19
          (Kelvin)            124.25   145.92   189.93   203.59   233.55
                              239.51   260.44   317.40   329.21   345.63
                              378.18   409.08   422.54   427.88   483.32
                              506.17   553.30   601.94   616.51   677.37
                              714.98   819.29   898.50   910.69   998.12
                             1074.12  1094.17  1118.97  1180.53  1219.61
                             1230.94  1277.66  1292.36  1337.24  1363.13
                             1394.17  1406.14  1426.73  1475.44  1494.73
                             1548.17  1576.15  1601.01  1613.03  1650.13
                             1683.34  1705.79  1708.14  1734.31  1754.19
                             1781.30  1792.30  1846.37  1895.19  1897.79
                             1924.27  1974.01  1976.51  1987.73  2003.97
                             2015.85  2021.63  2060.33  2070.54  2081.29
                             2091.56  2144.34  2168.41  2176.39  2182.41
                             2186.74  2188.13  2189.59  2194.72  2208.90
                             2211.78  2224.45  2234.21  2440.66  2528.73
                             2639.36  4302.14  4372.26  4378.00  4386.84
                             4399.34  4404.23  4419.80  4429.12  4444.60
                             4448.62  4469.19  4472.11  4475.63  4482.64
                             4504.27  4513.88  4520.07  4537.93  4586.09
                             5003.78  5122.93  5146.78

 Zero-point correction=                           0.337677 (Hartree/Particle)
 Thermal correction to Energy=                    0.356647
 Thermal correction to Enthalpy=                  0.357591
 Thermal correction to Gibbs Free Energy=         0.289346
 Sum of electronic and zero-point Energies=           -767.338564
 Sum of electronic and thermal Energies=              -767.319594
 Sum of electronic and thermal Enthalpies=            -767.318650
 Sum of electronic and thermal Free Energies=         -767.386895

                     E (Thermal)             CV                S
                      KCal/Mol        Cal/Mol-Kelvin    Cal/Mol-Kelvin
 Total                  223.799             68.386            143.634
 Electronic               0.000              0.000              0.000
 Translational            0.889              2.981             42.203
 Rotational               0.889              2.981             32.966
 Vibrational            222.022             62.424             68.465
 Vibration     1          0.594              1.983              5.555
 Vibration     2          0.594              1.982              5.427
 Vibration     3          0.594              1.981              5.179
 Vibration     4          0.596              1.977              4.711
 Vibration     5          0.597              1.971              4.285
 Vibration     6          0.601              1.959              3.741
 Vibration     7          0.604              1.948              3.427
 Vibration     8          0.612              1.921              2.917
 Vibration     9          0.615              1.912              2.783
 Vibration    10          0.622              1.889              2.523
 Vibration    11          0.624              1.884              2.475
 Vibration    12          0.630              1.866              2.318
 Vibration    13          0.647              1.810              1.954
 Vibration    14          0.651              1.797              1.888
 Vibration    15          0.657              1.779              1.801
 Vibration    16          0.670              1.741              1.643
 Vibration    17          0.683              1.703              1.507
 Vibration    18          0.688              1.686              1.453
 Vibration    19          0.691              1.679              1.432
 Vibration    20          0.717              1.604              1.231
 Vibration    21          0.728              1.572              1.158
 Vibration    22          0.753              1.503              1.021
 Vibration    23          0.781              1.430              0.898
 Vibration    24          0.790              1.408              0.864
 Vibration    25          0.828              1.315              0.735
 Vibration    26          0.852              1.257              0.666
 Vibration    27          0.925              1.097              0.505

                           ! Non-Optimized Parameters !
 Normal termination of Gaussian 16 at Fri Dec 11 01:18:21 2020.

 ----------------------------------------------------------------------
 # B3LYP/6-311++G(d,p) empiricaldispersion=gd3bj scf=xqc pop=npa geom=c
 heck
 ----------------------------------------------------------------------

 --------------------------------------
 CID_65229375_JID_6864_Energie_neutraal
 --------------------------------------
 Structure from the checkpoint file:  "JID_6864.chk"
 Charge =  0 Multiplicity = 1

 SCF Done:  E(RB3LYP) =  -767.913818859     A.U. after   14 cycles
 Normal termination of Gaussian 16 at Fri Dec 11 01:23:51 2020.

 ----------------------------------------------------------------------
 # B3LYP/6-311++G(d,p) empiricaldispersion=gd3bj scf=xqc pop=npa geom=c
 heck
 ----------------------------------------------------------------------

 ------------------------------------
 CID_65229375_JID_6864_Energie_kation
 ------------------------------------
 Structure from the checkpoint file:  "JID_6864.chk"
 Charge =  1 Multiplicity = 2

 SCF Done:  E(UB3LYP) =  -767.600752040     A.U. after   33 cycles
 SCF Done:  E(UB3LYP) =  -767.600752040     a.u. after    1 cycles
 Normal termination of Gaussian 16 at Fri Dec 11 01:41:02 2020.
 Gaussian 16:  ES64L-G16RevA.03 25-Dec-2016

 ----------------------------------------------------------------------
 # B3LYP/6-311++G(d,p) empiricaldispersion=gd3bj scf=xqc pop=npa geom=c
 heck
 ----------------------------------------------------------------------

 -----------------------------------
 CID_65229375_JID_6864_Energie_anion
 -----------------------------------
 Structure from the checkpoint file:  "JID_6864.chk"
 Charge = -1 Multiplicity = 2

                         Standard orientation:
 ---------------------------------------------------------------------
 Center     Atomic      Atomic             Coordinates (Angstroms)
 Number     Number       Type             X           Y           Z
 ---------------------------------------------------------------------
      1          6           0        4.000984   -1.266292   -0.076211
      2          6           0        2.538392   -0.903868    0.222955
      3          6           0        2.080889   -1.609485    1.506879
      4          6           0        2.360596    0.627210    0.344319
      5          6           0        2.821236    1.425207   -0.898970
      6          7           0        2.317103    0.884849   -2.168497
      7          6           0        0.992970    1.092573    0.876145
      8          8           0        0.964276    1.826231    1.863154
      9          7           0       -0.182841    0.705838    0.294316
     10          6           0       -0.477605   -0.026695   -0.929003
     11          6           0       -0.985498   -1.456654   -0.687014
     12          6           0       -2.133649   -1.544963    0.340259
     13          6           0       -3.295607   -0.670276   -0.071134
     14          8           0       -4.151714   -0.964508   -0.875041
     15          8           0       -3.236047    0.544652    0.536507
     16          6           0       -4.258482    1.476924    0.145949
     17          1           0        4.661642   -0.896195    0.717603
     18          1           0        4.356791   -0.845205   -1.023333
     19          1           0        4.124980   -2.353517   -0.132470
     20          1           0        1.925112   -1.271672   -0.607740
     21          1           0        2.676836   -1.274433    2.364354
     22          1           0        1.031215   -1.400091    1.733079
     23          1           0        2.199669   -2.695487    1.417897
     24          1           0        3.020927    0.955525    1.155202
     25          1           0        2.453824    2.452121   -0.800817
     26          1           0        3.920799    1.485960   -0.871486
     27          1           0        2.456828    1.566706   -2.911015
     28          1           0        2.856545    0.062803   -2.433207
     29          1           0       -0.986852    1.080951    0.785369
     30          1           0       -1.247642    0.538641   -1.470438
     31          1           0        0.406279   -0.015715   -1.568750
     32          1           0       -1.326473   -1.869143   -1.644364
     33          1           0       -0.166987   -2.091459   -0.331242
     34          1           0       -2.494864   -2.575257    0.399866
     35          1           0       -1.773731   -1.239421    1.326153
     36          1           0       -4.200044    1.679924   -0.926583
     37          1           0       -5.247713    1.075178    0.377759
     38          1           0       -4.064445    2.381880    0.721419
 ---------------------------------------------------------------------

 SCF Done:  E(UB3LYP) =  -767.905065425     A.U. after   32 cycles

 The electronic state is 2-A.
 Alpha  occ. eigenvalues --  -19.09283 -19.03287 -18.98279 -14.23279 -14.19579
 Alpha  occ. eigenvalues --  -10.21980 -10.16978 -10.14620 -10.10483 -10.10029
 Alpha  occ. eigenvalues --  -10.09940 -10.08918 -10.08457 -10.08255 -10.06621
 Alpha  occ. eigenvalues --  -10.06447  -1.02974  -0.94261  -0.93459  -0.82028
 Alpha  occ. eigenvalues --   -0.78930  -0.71879  -0.71532  -0.65646  -0.63616
 Alpha  occ. eigenvalues --   -0.61063  -0.59379  -0.54136  -0.53121  -0.49422
 Alpha  occ. eigenvalues --   -0.48349  -0.46365  -0.43193  -0.40972  -0.40566
 Alpha  occ. eigenvalues --   -0.40353  -0.39228  -0.38052  -0.36635  -0.36222
 Alpha  occ. eigenvalues --   -0.35947  -0.34849  -0.33935  -0.33428  -0.31739
 Alpha  occ. eigenvalues --   -0.31238  -0.30463  -0.29683  -0.29148  -0.28443
 Alpha  occ. eigenvalues --   -0.28353  -0.27117  -0.27081  -0.26445  -0.26018
 Alpha  occ. eigenvalues --   -0.24553  -0.23364  -0.23120  -0.22892  -0.20067
 Alpha  occ. eigenvalues --   -0.15846  -0.15255  -0.14459   0.03944
 Alpha virt. eigenvalues --    0.05481   0.06267   0.07323   0.07960   0.08021
 Alpha virt. eigenvalues --    0.08688   0.09124   0.09517   0.09744   0.10221
 Alpha virt. eigenvalues --    0.10392   0.10912   0.11554   0.12035   0.12496

  Beta  occ. eigenvalues --  -19.09276 -19.03265 -18.98274 -14.23278 -14.19519
  Beta  occ. eigenvalues --  -10.21958 -10.16973 -10.14592 -10.10471 -10.10008
  Beta  occ. eigenvalues --  -10.09933 -10.08901 -10.08446 -10.08254 -10.06606
  Beta  occ. eigenvalues --  -10.06405  -1.02948  -0.94230  -0.93448  -0.82020
  Beta  occ. eigenvalues --   -0.78842  -0.71843  -0.71500  -0.65607  -0.63564
  Beta  occ. eigenvalues --   -0.61030  -0.59319  -0.54077  -0.53064  -0.49380
  Beta  occ. eigenvalues --   -0.48306  -0.46332  -0.43159  -0.40926  -0.40537
  Beta  occ. eigenvalues --   -0.40301  -0.39195  -0.38020  -0.36604  -0.36167
  Beta  occ. eigenvalues --   -0.35891  -0.34804  -0.33896  -0.33395  -0.31710
  Beta  occ. eigenvalues --   -0.31185  -0.30423  -0.29656  -0.29119  -0.28410
  Beta  occ. eigenvalues --   -0.28323  -0.27095  -0.27050  -0.26410  -0.25991
  Beta  occ. eigenvalues --   -0.24522  -0.23308  -0.23084  -0.22868  -0.20045
  Beta  occ. eigenvalues --   -0.15822  -0.15238  -0.14420
  Beta virt. eigenvalues --    0.05827   0.06397   0.07083   0.07786   0.08167
  Beta virt. eigenvalues --    0.08411   0.09038   0.09434   0.09793   0.10007
  Beta virt. eigenvalues --    0.10449   0.10770   0.11128   0.11813   0.12255

 Mulliken charges and spin densities:
               1          2
     1  C    1.037108  -1.542705
     2  C   -1.276009   1.292623
     3  C    0.217083  -0.805900
     4  C    0.430567   0.356996
     5  C    0.879980  -1.642657
     6  N   -0.526224   0.064454
     7  C   -0.560427   0.089880
     8  O   -0.291422   0.000985
     9  N   -0.244305  -0.008092
    10  C   -0.026952  -0.395920
    11  C   -0.102265   0.017264
    12  C    0.101663  -0.446006
    13  C   -0.428120   0.108547
    14  O   -0.247941   0.025044
    15  O   -0.096042   0.034505
    16  C    0.369018  -0.629177
    17  H    0.044226   0.098160
    18  H   -0.494972   0.643796
    19  H   -0.282610   0.431098
    20  H    0.165910  -0.068027
    21  H    0.058292   0.072569
    22  H    0.274080  -0.120937
    23  H   -0.096030   0.254295
    24  H    0.262006  -0.014296
    25  H    0.065745   0.132307
    26  H   -0.161251   0.315395
    27  H   -0.248008   0.509668
    28  H   -0.122864   0.357668
    29  H    0.456742  -0.056921
    30  H    0.115798   0.063998
    31  H    0.230950   0.125224
    32  H   -0.096367   0.279893
    33  H   -0.142179   0.320436
    34  H   -0.059020   0.256792
    35  H    0.060909   0.115955
    36  H   -0.084888   0.267583
    37  H   -0.110196   0.275768
    38  H   -0.071987   0.219737
 Sum of Mulliken charges =  -1.00000   1.00000

 Dipole moment (field-independent basis, Debye):
    X=             -3.9866    Y=             -0.2010    Z=              3.8040  Tot=              5.5139
 Quadrupole moment (field-independent basis, Debye-Ang):
   XX=           -183.0468   YY=           -141.8000   ZZ=           -148.2757
   XY=             -0.3996   XZ=              9.0887   YZ=             -5.0682

 Summary of Natural Population Analysis:

                                       Natural Population
                Natural  -----------------------------------------------
    Atom  No    Charge         Core      Valence    Rydberg      Total
 -----------------------------------------------------------------------
      C    1   -0.28358      0.99965     2.27733    0.00660     3.28358
      C    2   -0.11983      0.99959     2.11014    0.01010     3.11983
      C    3   -0.28478      0.99965     2.27923    0.00590     3.28478
      C    4   -0.14985      0.99952     2.13778    0.01254     3.14985
      C    5   -0.08492      0.99961     2.07262    0.01270     3.08492
      N    6   -0.43027      0.99977     2.91855    0.01195     3.93027
      C    7    0.35221      0.99962     1.62452    0.02365     2.64779
      O    8   -0.33311      0.99988     3.32787    0.00536     4.33311
      N    9   -0.32411      0.99965     2.81495    0.00951     3.82411
      C   10   -0.10633      0.99959     2.09535    0.01139     3.10633
      C   11   -0.18819      0.99961     2.18106    0.00752     3.18819
      C   12   -0.23866      0.99958     2.23057    0.00852     3.23866
      C   13    0.41287      0.99969     1.56270    0.02475     2.58713
      O   14   -0.30309      0.99987     3.29729    0.00593     4.30309
      O   15   -0.28636      0.99986     3.27828    0.00822     4.28636
      C   16   -0.10489      0.99960     2.09707    0.00822     3.10489
      H   17    0.09563      0.00000     0.40339    0.00099     0.40437
      H   18    0.10162      0.00000     0.39677    0.00160     0.39838
      H   19    0.10153      0.00000     0.39747    0.00101     0.39847
      H   20    0.09854      0.00000     0.39832    0.00313     0.40146
      H   21    0.09792      0.00000     0.40131    0.00077     0.40208
      H   22    0.10097      0.00000     0.39801    0.00102     0.39903
      H   23    0.09940      0.00000     0.39984    0.00075     0.40060
      H   24    0.11104      0.00000     0.38740    0.00157     0.38896
      H   25    0.09570      0.00000     0.40304    0.00127     0.40430
      H   26    0.08524      0.00000     0.41331    0.00145     0.41476
      H   27    0.18279      0.00000     0.31383    0.00338     0.31721
      H   28    0.17950      0.00000     0.31608    0.00443     0.32050
      H   29    0.19827      0.00000     0.29893    0.00280     0.30173
      H   30    0.09217      0.00000     0.40647    0.00136     0.40783
      H   31    0.12791      0.00000     0.36973    0.00236     0.37209
      H   32    0.10242      0.00000     0.39636    0.00122     0.39758
      H   33    0.10237      0.00000     0.39623    0.00140     0.39763
      H   34    0.11271      0.00000     0.38634    0.00095     0.38729
      H   35    0.10972      0.00000     0.38865    0.00163     0.39028
      H   36    0.09311      0.00000     0.40531    0.00158     0.40689
      H   37    0.09133      0.00000     0.40724    0.00143     0.40867
      H   38    0.09302      0.00000     0.40578    0.00120     0.40698
 =======================================================================
   * Total *    0.00000     15.99474    46.79510    0.21016    63.00000

 Normal termination of Gaussian 16 at Fri Dec 11 01:57:41 2020.
