 Gaussian 16, Revision A.03,

 -----------------------------------------------------------
 # opt freq B3LYP/6-31G(d) empiricaldispersion=gd3bj scf=xqc
 -----------------------------------------------------------

 ------------------------------
 CID_60728106_JID_6314_neutraal
 ------------------------------
 Symbolic Z-matrix:
 Charge =  0 Multiplicity = 1

 SCF Done:  E(RB3LYP) =  -709.652783237     A.U. after   15 cycles
 SCF Done:  E(RB3LYP) =  -709.650505084     A.U. after   13 cycles
 SCF Done:  E(RB3LYP) =  -709.655795597     A.U. after   13 cycles
 SCF Done:  E(RB3LYP) =  -709.656391230     A.U. after   12 cycles
 SCF Done:  E(RB3LYP) =  -709.656515471     A.U. after   11 cycles
 SCF Done:  E(RB3LYP) =  -709.656546046     A.U. after   11 cycles
 SCF Done:  E(RB3LYP) =  -709.656554768     A.U. after   11 cycles
 SCF Done:  E(RB3LYP) =  -709.656560756     A.U. after    9 cycles
 SCF Done:  E(RB3LYP) =  -709.656564262     A.U. after    9 cycles
 SCF Done:  E(RB3LYP) =  -709.656565302     A.U. after    8 cycles
 SCF Done:  E(RB3LYP) =  -709.656565937     A.U. after    8 cycles
 SCF Done:  E(RB3LYP) =  -709.656566079     A.U. after    7 cycles
 Optimization completed.
    -- Stationary point found.
 Normal termination of Gaussian 16 at Thu Dec 10 22:10:33 2020.

 --------------------------------------------------------------------
 #N Geom=AllCheck Guess=TCheck SCRF=Check GenChk RB3LYP/6-31G(d) Freq
 --------------------------------------------------------------------

 Structure from the checkpoint file:  "JID_6314.chk"
 ------------------------------
 CID_60728106_JID_6314_neutraal
 ------------------------------
 Charge =  0 Multiplicity = 1

 SCF Done:  E(RB3LYP) =  -709.656566079     A.U. after    1 cycles

  Exact polarizability: 164.544  14.217 157.656 -18.000   8.852  97.660
 Approx polarizability: 223.803  34.094 263.791 -41.630  17.913 162.786

                      1                      2                      3
                      A                      A                      A
 Frequencies --     29.4017                60.4217                96.9099
 Red. masses --      4.6846                 4.2109                 4.4576
 Frc consts  --      0.0024                 0.0091                 0.0247
 IR Inten    --      0.3953                 0.5420                 3.2255

                      4                      5                      6
                      A                      A                      A
 Frequencies --    125.6299               139.6644               156.9156
 Red. masses --      4.5654                 7.5614                 4.7580
 Frc consts  --      0.0425                 0.0869                 0.0690
 IR Inten    --      1.6196                 6.2063                 1.8275

                      7                      8                      9
                      A                      A                      A
 Frequencies --    191.0456               222.4663               251.9583
 Red. masses --      2.5303                 5.5549                 4.6114
 Frc consts  --      0.0544                 0.1620                 0.1725
 IR Inten    --      0.1441                 2.3978                 0.0145

                     10                     11                     12
                      A                      A                      A
 Frequencies --    325.4094               333.5382               348.3141
 Red. masses --      1.9799                 1.3911                 2.1734
 Frc consts  --      0.1235                 0.0912                 0.1554
 IR Inten    --     12.7225                55.2026                 9.0687

                     13                     14                     15
                      A                      A                      A
 Frequencies --    364.8893               405.6796               407.6972
 Red. masses --      3.7913                 4.2548                 3.6757
 Frc consts  --      0.2974                 0.4126                 0.3600
 IR Inten    --      3.7138                 4.5683                 0.7242

                     16                     17                     18
                      A                      A                      A
 Frequencies --    441.3299               449.1260               468.4927
 Red. masses --      4.5017                 3.9270                 5.1549
 Frc consts  --      0.5166                 0.4667                 0.6666
 IR Inten    --      7.3496                 5.6222                 0.3705

                     19                     20                     21
                      A                      A                      A
 Frequencies --    503.6617               557.0819               572.0925
 Red. masses --      4.0157                 3.5686                 3.2471
 Frc consts  --      0.6002                 0.6525                 0.6262
 IR Inten    --     13.2299                 4.8402                 2.4137

                     22                     23                     24
                      A                      A                      A
 Frequencies --    583.2853               606.7450               619.9099
 Red. masses --      4.4606                 6.4643                 3.8909
 Frc consts  --      0.8941                 1.4021                 0.8810
 IR Inten    --      3.9290                 0.8386                 0.8292

                     25                     26                     27
                      A                      A                      A
 Frequencies --    734.9179               764.9443               787.4320
 Red. masses --      5.0649                 2.2494                 1.7065
 Frc consts  --      1.6117                 0.7755                 0.6234
 IR Inten    --      2.0479                11.6404                31.3716

                     28                     29                     30
                      A                      A                      A
 Frequencies --    795.8440               827.3607               865.8707
 Red. masses --      2.0825                 3.6392                 2.0188
 Frc consts  --      0.7771                 1.4677                 0.8918
 IR Inten    --      4.0890                 5.8731                 5.7383

                     31                     32                     33
                      A                      A                      A
 Frequencies --    883.6649               889.3654               910.5476
 Red. masses --      1.7577                 1.4854                 1.9418
 Frc consts  --      0.8087                 0.6922                 0.9485
 IR Inten    --     16.3083                 0.9054                 4.8709

                     34                     35                     36
                      A                      A                      A
 Frequencies --    947.7799               959.4931               972.4221
 Red. masses --      2.0812                 1.3598                 2.2396
 Frc consts  --      1.1015                 0.7376                 1.2478
 IR Inten    --     37.3854                 1.2363                 0.8995

                     37                     38                     39
                      A                      A                      A
 Frequencies --    992.7969              1033.1055              1057.5045
 Red. masses --      1.2806                 3.8598                 1.5690
 Frc consts  --      0.7437                 2.4272                 1.0338
 IR Inten    --      0.2749               118.7600                 5.7835

                     40                     41                     42
                      A                      A                      A
 Frequencies --   1069.0858              1073.8909              1104.3591
 Red. masses --      1.7212                 1.8478                 2.4258
 Frc consts  --      1.1591                 1.2555                 1.7431
 IR Inten    --      1.8541                21.7164                 5.7455

                     43                     44                     45
                      A                      A                      A
 Frequencies --   1123.5130              1133.9394              1141.3297
 Red. masses --      4.6066                 2.1196                 1.5437
 Frc consts  --      3.4260                 1.6058                 1.1848
 IR Inten    --     72.8993                21.0052                16.4718

                     46                     47                     48
                      A                      A                      A
 Frequencies --   1172.9599              1194.6495              1222.5442
 Red. masses --      2.1572                 1.1122                 2.4395
 Frc consts  --      1.7487                 0.9352                 2.1483
 IR Inten    --      1.2012                 4.5178                 8.2610

                     49                     50                     51
                      A                      A                      A
 Frequencies --   1240.8291              1266.9622              1269.1415
 Red. masses --      1.4518                 2.4584                 1.2821
 Frc consts  --      1.3169                 2.3250                 1.2168
 IR Inten    --      0.4997               149.0012                26.1002

                     52                     53                     54
                      A                      A                      A
 Frequencies --   1286.4591              1303.8867              1325.6303
 Red. masses --      1.3350                 1.5583                 1.2353
 Frc consts  --      1.3018                 1.5610                 1.2790
 IR Inten    --     11.5993                23.4718                18.5340

                     55                     56                     57
                      A                      A                      A
 Frequencies --   1335.7121              1342.1088              1375.2159
 Red. masses --      1.3637                 7.0577                 1.3096
 Frc consts  --      1.4335                 7.4901                 1.4592
 IR Inten    --      6.8233                 3.3240                 5.5920

                     58                     59                     60
                      A                      A                      A
 Frequencies --   1380.4333              1390.9885              1398.9894
 Red. masses --      1.3348                 1.4439                 1.3911
 Frc consts  --      1.4987                 1.6460                 1.6042
 IR Inten    --     11.4580                 1.3270                 7.7474

                     61                     62                     63
                      A                      A                      A
 Frequencies --   1405.6861              1428.3722              1450.3238
 Red. masses --      1.5419                 1.3465                 1.4784
 Frc consts  --      1.7950                 1.6186                 1.8323
 IR Inten    --      7.0776                13.1052                 8.7621

                     64                     65                     66
                      A                      A                      A
 Frequencies --   1496.4946              1516.4559              1518.4484
 Red. masses --      2.3284                 1.0954                 1.0982
 Frc consts  --      3.0723                 1.4842                 1.4918
 IR Inten    --     33.5582                 0.5450                 2.2386

                     67                     68                     69
                      A                      A                      A
 Frequencies --   1523.5155              1529.0292              1535.6655
 Red. masses --      1.0840                 2.6981                 1.1004
 Frc consts  --      1.4824                 3.7165                 1.5290
 IR Inten    --     10.2079                88.2894                 0.9517

                     70                     71                     72
                      A                      A                      A
 Frequencies --   1624.0444              1656.2747              2343.1056
 Red. masses --      5.9360                 5.8028                12.6660
 Frc consts  --      9.2244                 9.3789                40.9706
 IR Inten    --     11.6436                37.6434                44.7183

                     73                     74                     75
                      A                      A                      A
 Frequencies --   2981.5843              3029.3267              3036.0934
 Red. masses --      1.0823                 1.0698                 1.0641
 Frc consts  --      5.6689                 5.7841                 5.7793
 IR Inten    --     29.0108                16.4952                24.6952

                     76                     77                     78
                      A                      A                      A
 Frequencies --   3046.5422              3047.5843              3083.8519
 Red. masses --      1.0649                 1.0616                 1.0938
 Frc consts  --      5.8231                 5.8095                 6.1290
 IR Inten    --     28.6306                19.6406                50.6883

                     79                     80                     81
                      A                      A                      A
 Frequencies --   3085.6332              3086.9120              3102.1901
 Red. masses --      1.0970                 1.0952                 1.0968
 Frc consts  --      6.1538                 6.1486                 6.2188
 IR Inten    --     63.8491                 1.4626                20.1651

                     82                     83                     84
                      A                      A                      A
 Frequencies --   3105.1931              3198.5291              3211.9806
 Red. masses --      1.0987                 1.0871                 1.0904
 Frc consts  --      6.2419                 6.5528                 6.6278
 IR Inten    --     69.0853                 3.2441                 7.6969

                     85                     86                     87
                      A                      A                      A
 Frequencies --   3225.0389              3234.9321              3733.5232
 Red. masses --      1.0959                 1.0938                 1.0656
 Frc consts  --      6.7159                 6.7438                 8.7511
 IR Inten    --     12.9904                 4.8305               123.9748

 - Thermochemistry -
 -------------------
 Temperature   298.150 Kelvin.  Pressure   1.00000 Atm.
 Atom     1 has atomic number  6 and mass  12.00000

 Molecular mass:   217.11028 amu.
 Principal axes and moments of inertia in atomic units:
                           1         2         3
     Eigenvalues --  2147.303904367.574665721.89106
           X            0.99999  -0.00406   0.00269
           Y            0.00405   0.99999   0.00261
           Z           -0.00270  -0.00260   0.99999
 This molecule is an asymmetric top.
 Rotational symmetry number  1.
 Warning -- assumption of classical behavior for rotation
           may cause significant error
 Rotational temperatures (Kelvin)      0.04034     0.01983     0.01514
 Rotational constants (GHZ):           0.84047     0.41321     0.31541
 Zero-point vibrational energy     682312.1 (Joules/Mol)
                                  163.07651 (Kcal/Mol)
 Warning -- explicit consideration of  24 degrees of freedom as
           vibrations may cause significant error
 Vibrational temperatures:     42.30    86.93   139.43   180.75   200.95
          (Kelvin)            225.77   274.87   320.08   362.51   468.19
                              479.89   501.15   524.99   583.68   586.59
                              634.98   646.19   674.06   724.66   801.52
                              823.11   839.22   872.97   891.91  1057.38
                             1100.58  1132.94  1145.04  1190.39  1245.79
                             1271.40  1279.60  1310.07  1363.64  1380.50
                             1399.10  1428.41  1486.41  1521.51  1538.18
                             1545.09  1588.93  1616.48  1631.49  1642.12
                             1687.63  1718.83  1758.97  1785.28  1822.88
                             1826.01  1850.93  1876.00  1907.29  1921.79
                             1931.00  1978.63  1986.14  2001.32  2012.83
                             2022.47  2055.11  2086.69  2153.12  2181.84
                             2184.71  2192.00  2199.93  2209.48  2336.64
                             2383.01  3371.21  4289.83  4358.53  4368.26
                             4383.29  4384.79  4436.97  4439.54  4441.38
                             4463.36  4467.68  4601.97  4621.32  4640.11
                             4654.35  5371.71

 Zero-point correction=                           0.259879 (Hartree/Particle)
 Thermal correction to Energy=                    0.273884
 Thermal correction to Enthalpy=                  0.274828
 Thermal correction to Gibbs Free Energy=         0.218881
 Sum of electronic and zero-point Energies=           -709.396687
 Sum of electronic and thermal Energies=              -709.382682
 Sum of electronic and thermal Enthalpies=            -709.381738
 Sum of electronic and thermal Free Energies=         -709.437685

                     E (Thermal)             CV                S
                      KCal/Mol        Cal/Mol-Kelvin    Cal/Mol-Kelvin
 Total                  171.865             55.407            117.750
 Electronic               0.000              0.000              0.000
 Translational            0.889              2.981             42.029
 Rotational               0.889              2.981             32.351
 Vibrational            170.087             49.446             43.370
 Vibration     1          0.593              1.984              5.869
 Vibration     2          0.597              1.973              4.443
 Vibration     3          0.603              1.951              3.516
 Vibration     4          0.611              1.927              3.012
 Vibration     5          0.615              1.914              2.808
 Vibration     6          0.621              1.895              2.587
 Vibration     7          0.634              1.852              2.218
 Vibration     8          0.648              1.807              1.939
 Vibration     9          0.664              1.759              1.717
 Vibration    10          0.710              1.625              1.283
 Vibration    11          0.715              1.609              1.243
 Vibration    12          0.726              1.579              1.174
 Vibration    13          0.738              1.545              1.101
 Vibration    14          0.771              1.458              0.942
 Vibration    15          0.772              1.454              0.935
 Vibration    16          0.801              1.380              0.822
 Vibration    17          0.808              1.363              0.798
 Vibration    18          0.826              1.320              0.742
 Vibration    19          0.859              1.242              0.649
 Vibration    20          0.913              1.124              0.530
 Vibration    21          0.928              1.092              0.500
 Vibration    22          0.940              1.067              0.479
 Vibration    23          0.965              1.018              0.438
 Vibration    24          0.980              0.990              0.417

                           ! Non-Optimized Parameters !
 Normal termination of Gaussian 16 at Thu Dec 10 22:21:45 2020.

 ----------------------------------------------------------------------
 # B3LYP/6-311++G(d,p) empiricaldispersion=gd3bj scf=xqc pop=npa geom=c
 heck
 ----------------------------------------------------------------------

 --------------------------------------
 CID_60728106_JID_6314_Energie_neutraal
 --------------------------------------
 Structure from the checkpoint file:  "JID_6314.chk"
 Charge =  0 Multiplicity = 1

 SCF Done:  E(RB3LYP) =  -709.855199372     A.U. after   15 cycles
 Normal termination of Gaussian 16 at Thu Dec 10 22:26:21 2020.

 ----------------------------------------------------------------------
 # B3LYP/6-311++G(d,p) empiricaldispersion=gd3bj scf=xqc pop=npa geom=c
 heck
 ----------------------------------------------------------------------

 ------------------------------------
 CID_60728106_JID_6314_Energie_kation
 ------------------------------------
 Structure from the checkpoint file:  "JID_6314.chk"
 Charge =  1 Multiplicity = 2

 SCF Done:  E(UB3LYP) =  -709.534230415     A.U. after   25 cycles
 Normal termination of Gaussian 16 at Thu Dec 10 22:37:57 2020.
 Gaussian 16:  ES64L-G16RevA.03 25-Dec-2016

 ----------------------------------------------------------------------
 # B3LYP/6-311++G(d,p) empiricaldispersion=gd3bj scf=xqc pop=npa geom=c
 heck
 ----------------------------------------------------------------------

 -----------------------------------
 CID_60728106_JID_6314_Energie_anion
 -----------------------------------
 Structure from the checkpoint file:  "JID_6314.chk"
 Charge = -1 Multiplicity = 2

                         Standard orientation:
 ---------------------------------------------------------------------
 Center     Atomic      Atomic             Coordinates (Angstroms)
 Number     Number       Type             X           Y           Z
 ---------------------------------------------------------------------
      1          6           0        3.229353   -0.870625    1.183289
      2          6           0        2.689529   -1.958430    0.248704
      3          6           0        1.249772   -1.645215   -0.183726
      4          6           0        1.168651   -0.268992   -0.841764
      5          6           0        1.724343    0.846476    0.056908
      6          6           0        3.144849    0.503996    0.514964
      7          8           0        1.801068    2.077016   -0.633514
      8          8           0       -0.171670    0.083640   -1.314283
      9          6           0       -1.280810   -0.257034   -0.601197
     10          6           0       -1.848847   -1.531690   -0.693772
     11          6           0       -3.028009   -1.830755   -0.015511
     12          6           0       -3.674487   -0.860611    0.756025
     13          6           0       -3.141004    0.419546    0.836179
     14          6           0       -1.947527    0.726504    0.161766
     15          6           0       -1.410407    2.048444    0.212246
     16          7           0       -0.957642    3.120286    0.241920
     17          1           0        2.642766   -0.867816    2.113217
     18          1           0        4.265484   -1.089458    1.466614
     19          1           0        2.719718   -2.940645    0.734628
     20          1           0        3.331904   -2.025858   -0.640409
     21          1           0        0.596438   -1.672339    0.697778
     22          1           0        0.884833   -2.411642   -0.876310
     23          1           0        1.752678   -0.261999   -1.767116
     24          1           0        1.072493    0.931001    0.943208
     25          1           0        3.796182    0.531182   -0.369201
     26          1           0        3.489668    1.299775    1.183213
     27          1           0        0.908094    2.456152   -0.678522
     28          1           0       -1.361499   -2.274040   -1.314657
     29          1           0       -3.451684   -2.827353   -0.098404
     30          1           0       -4.595495   -1.098442    1.278109
     31          1           0       -3.635694    1.194547    1.412122
 ---------------------------------------------------------------------

 SCF Done:  E(UB3LYP) =  -709.862363859     A.U. after   32 cycles

 The electronic state is 2-A.
 Alpha  occ. eigenvalues --  -19.01185 -18.99421 -14.15102 -10.11227 -10.10509
 Alpha  occ. eigenvalues --  -10.09105 -10.07456 -10.07287 -10.06522 -10.06339
 Alpha  occ. eigenvalues --  -10.05608 -10.04318 -10.03785 -10.03704 -10.03359
 Alpha  occ. eigenvalues --  -10.02402  -0.92946  -0.89858  -0.75935  -0.73063
 Alpha  occ. eigenvalues --   -0.71616  -0.64662  -0.63509  -0.62584  -0.60145
 Alpha  occ. eigenvalues --   -0.52489  -0.50876  -0.49528  -0.47593  -0.45300
 Alpha  occ. eigenvalues --   -0.41157  -0.40505  -0.38937  -0.35933  -0.35515
 Alpha  occ. eigenvalues --   -0.34695  -0.33669  -0.32368  -0.31752  -0.30164
 Alpha  occ. eigenvalues --   -0.29109  -0.28738  -0.27184  -0.25440  -0.25134
 Alpha  occ. eigenvalues --   -0.24192  -0.23979  -0.23544  -0.22523  -0.22035
 Alpha  occ. eigenvalues --   -0.21409  -0.20989  -0.20107  -0.18570  -0.17093
 Alpha  occ. eigenvalues --   -0.14413  -0.12484  -0.11083   0.04817
 Alpha virt. eigenvalues --    0.06300   0.08207   0.08657   0.09046   0.10102
 Alpha virt. eigenvalues --    0.10456   0.11337   0.11776   0.11904   0.12353
 Alpha virt. eigenvalues --    0.12598   0.13087   0.14556   0.14650   0.15312

  Beta  occ. eigenvalues --  -19.01182 -18.99420 -14.14765 -10.11198 -10.10509
  Beta  occ. eigenvalues --  -10.08935 -10.07450 -10.07279 -10.06515 -10.06332
  Beta  occ. eigenvalues --  -10.05583 -10.04040 -10.03858 -10.03508 -10.03377
  Beta  occ. eigenvalues --  -10.01970  -0.92876  -0.89847  -0.75426  -0.73000
  Beta  occ. eigenvalues --   -0.71208  -0.64574  -0.63435  -0.61917  -0.59887
  Beta  occ. eigenvalues --   -0.52337  -0.50792  -0.48824  -0.47525  -0.45177
  Beta  occ. eigenvalues --   -0.41012  -0.40463  -0.38724  -0.35868  -0.35456
  Beta  occ. eigenvalues --   -0.34554  -0.33493  -0.32234  -0.31613  -0.30033
  Beta  occ. eigenvalues --   -0.29029  -0.28644  -0.26996  -0.25366  -0.24253
  Beta  occ. eigenvalues --   -0.24131  -0.23807  -0.23443  -0.22349  -0.21751
  Beta  occ. eigenvalues --   -0.21062  -0.20591  -0.18957  -0.18392  -0.17045
  Beta  occ. eigenvalues --   -0.14312  -0.10961  -0.09634
  Beta virt. eigenvalues --    0.06535   0.08231   0.08570   0.09049   0.10043
  Beta virt. eigenvalues --    0.10446   0.10760   0.11392   0.11739   0.12074
  Beta virt. eigenvalues --    0.12290   0.12557   0.13046   0.14455   0.14618

 Mulliken charges and spin densities:
               1          2
     1  C   -0.190607  -0.140281
     2  C   -0.262732  -0.345567
     3  C   -0.308477   0.137379
     4  C    0.244634  -0.108358
     5  C   -0.526392  -0.051673
     6  C   -0.234514   0.017387
     7  O   -0.180776   0.005868
     8  O   -0.119622   0.000395
     9  C   -0.941154   0.173444
    10  C    0.289498  -0.047637
    11  C   -0.151512   0.305729
    12  C   -0.392780  -0.061515
    13  C   -0.161319   0.218832
    14  C    1.670995   0.204695
    15  C   -1.151304  -0.093758
    16  N   -0.335965   0.185624
    17  H    0.149007  -0.032018
    18  H   -0.124889   0.291256
    19  H   -0.024835   0.183265
    20  H    0.090204   0.029575
    21  H    0.199238  -0.009230
    22  H    0.117039   0.009763
    23  H    0.175548   0.030812
    24  H    0.176007   0.018022
    25  H    0.138599   0.018892
    26  H    0.101342   0.063713
    27  H    0.301625  -0.008818
    28  H    0.095357   0.028636
    29  H    0.110646  -0.023199
    30  H    0.103868   0.006702
    31  H    0.143270  -0.007935
 Sum of Mulliken charges =  -1.00000   1.00000

 Dipole moment (field-independent basis, Debye):
    X=              2.7814    Y=             -5.0346    Z=              0.4230  Tot=              5.7674
 Quadrupole moment (field-independent basis, Debye-Ang):
   XX=           -136.0961   YY=           -133.7998   ZZ=           -108.8391
   XY=             -0.1793   XZ=             -2.7749   YZ=              2.3527

 Summary of Natural Population Analysis:

                                       Natural Population
                Natural  -----------------------------------------------
    Atom  No    Charge         Core      Valence    Rydberg      Total
 -----------------------------------------------------------------------
      C    1   -0.19313      0.99963     2.18472    0.00879     3.19313
      C    2   -0.18818      0.99963     2.17986    0.00870     3.18818
      C    3   -0.21028      0.99961     2.20069    0.00998     3.21028
      C    4    0.06785      0.99947     1.91814    0.01454     2.93215
      C    5    0.05130      0.99950     1.93642    0.01278     2.94870
      C    6   -0.19677      0.99961     2.18594    0.01122     3.19677
      O    7   -0.38114      0.99988     3.37510    0.00615     4.38114
      O    8   -0.29765      0.99985     3.28764    0.01015     4.29765
      C    9    0.20128      0.99935     1.78518    0.01419     2.79872
      C   10   -0.13730      0.99952     2.12968    0.00810     3.13730
      C   11   -0.01901      0.99958     2.01046    0.00897     3.01901
      C   12   -0.13664      0.99957     2.12788    0.00919     3.13664
      C   13   -0.03861      0.99955     2.03123    0.00783     3.03861
      C   14   -0.07757      0.99937     2.06766    0.01053     3.07757
      C   15    0.15928      0.99964     1.82135    0.01973     2.84072
      N   16   -0.17943      0.99978     2.66878    0.01087     3.67943
      H   17    0.09422      0.00000     0.40476    0.00102     0.40578
      H   18    0.09712      0.00000     0.40186    0.00103     0.40288
      H   19    0.09756      0.00000     0.40154    0.00090     0.40244
      H   20    0.09144      0.00000     0.40749    0.00106     0.40856
      H   21    0.10588      0.00000     0.39295    0.00117     0.39412
      H   22    0.10267      0.00000     0.39621    0.00112     0.39733
      H   23    0.08878      0.00000     0.40970    0.00152     0.41122
      H   24    0.08508      0.00000     0.41307    0.00185     0.41492
      H   25    0.09568      0.00000     0.40302    0.00130     0.40432
      H   26    0.10332      0.00000     0.39562    0.00106     0.39668
      H   27    0.24896      0.00000     0.24835    0.00269     0.25104
      H   28    0.09456      0.00000     0.40390    0.00154     0.40544
      H   29    0.08476      0.00000     0.41370    0.00154     0.41524
      H   30    0.09183      0.00000     0.40714    0.00103     0.40817
      H   31    0.09414      0.00000     0.40495    0.00092     0.40586
 =======================================================================
   * Total *   -0.00000     15.99355    41.81500    0.19145    58.00000

 Normal termination of Gaussian 16 at Thu Dec 10 22:52:24 2020.
