 Gaussian 16, Revision A.03,

 -----------------------------------------------------------
 # opt freq B3LYP/6-31G(d) empiricaldispersion=gd3bj scf=xqc
 -----------------------------------------------------------

 -------------------------------
 CID_154273361_JID_8174_neutraal
 -------------------------------
 Symbolic Z-matrix:
 Charge =  0 Multiplicity = 1

 SCF Done:  E(RB3LYP) =  -814.159974436     A.U. after   15 cycles
 SCF Done:  E(RB3LYP) =  -814.170014346     A.U. after   12 cycles
 SCF Done:  E(RB3LYP) =  -814.172052319     A.U. after   12 cycles
 SCF Done:  E(RB3LYP) =  -814.173042753     A.U. after   12 cycles
 SCF Done:  E(RB3LYP) =  -814.173353356     A.U. after   11 cycles
 SCF Done:  E(RB3LYP) =  -814.173471681     A.U. after   11 cycles
 SCF Done:  E(RB3LYP) =  -814.173510675     A.U. after   10 cycles
 SCF Done:  E(RB3LYP) =  -814.173518927     A.U. after   10 cycles
 SCF Done:  E(RB3LYP) =  -814.173522053     A.U. after    8 cycles
 SCF Done:  E(RB3LYP) =  -814.173524635     A.U. after    9 cycles
 SCF Done:  E(RB3LYP) =  -814.173526245     A.U. after    8 cycles
 SCF Done:  E(RB3LYP) =  -814.173527402     A.U. after    8 cycles
 SCF Done:  E(RB3LYP) =  -814.173527752     A.U. after    8 cycles
 SCF Done:  E(RB3LYP) =  -814.173527804     A.U. after    7 cycles
 Optimization completed.
    -- Stationary point found.
 Normal termination of Gaussian 16 at Fri Dec 11 19:16:20 2020.

 --------------------------------------------------------------------
 #N Geom=AllCheck Guess=TCheck SCRF=Check GenChk RB3LYP/6-31G(d) Freq
 --------------------------------------------------------------------

 Structure from the checkpoint file:  "JID_8174.chk"
 -------------------------------
 CID_154273361_JID_8174_neutraal
 -------------------------------
 Charge =  0 Multiplicity = 1

 SCF Done:  E(RB3LYP) =  -814.173527804     A.U. after    1 cycles

  Exact polarizability: 247.731   0.462 175.812   5.394  -1.453  73.090
 Approx polarizability: 347.447   6.057 319.405  12.377   0.388 111.584

                      1                      2                      3
                      A                      A                      A
 Frequencies --     30.9424                40.7974                67.4838
 Red. masses --      4.2616                 3.5518                 5.0295
 Frc consts  --      0.0024                 0.0035                 0.0135
 IR Inten    --      0.1457                 1.0397                 0.0563

                      4                      5                      6
                      A                      A                      A
 Frequencies --     84.1051               103.6486               154.9243
 Red. masses --      5.1368                 4.3070                 4.7948
 Frc consts  --      0.0214                 0.0273                 0.0678
 IR Inten    --      1.3551                 6.2002                 0.9961

                      7                      8                      9
                      A                      A                      A
 Frequencies --    195.2528               219.6091               236.4762
 Red. masses --      5.2471                 3.6187                 3.5778
 Frc consts  --      0.1179                 0.1028                 0.1179
 IR Inten    --      1.1634                 2.3614                 0.8755

                     10                     11                     12
                      A                      A                      A
 Frequencies --    258.9161               286.9962               346.5685
 Red. masses --      1.5458                 3.5739                 4.0607
 Frc consts  --      0.0611                 0.1734                 0.2874
 IR Inten    --      0.0115                 2.4193                 4.0665

                     13                     14                     15
                      A                      A                      A
 Frequencies --    352.7243               370.0406               386.3438
 Red. masses --      3.4222                 2.4573                 1.3933
 Frc consts  --      0.2509                 0.1982                 0.1225
 IR Inten    --     14.0408                 9.3542               134.4540

                     16                     17                     18
                      A                      A                      A
 Frequencies --    430.2516               438.9038               445.5408
 Red. masses --      2.2929                 2.6417                 1.2366
 Frc consts  --      0.2501                 0.2998                 0.1446
 IR Inten    --     80.7382                 1.6772                55.1776

                     19                     20                     21
                      A                      A                      A
 Frequencies --    500.1532               519.7450               529.4836
 Red. masses --      2.8695                 1.7863                 6.2972
 Frc consts  --      0.4229                 0.2843                 1.0402
 IR Inten    --     19.8649                14.3118                 6.6635

                     22                     23                     24
                      A                      A                      A
 Frequencies --    544.1806               558.6097               597.0115
 Red. masses --      5.6436                 2.5827                 6.3627
 Frc consts  --      0.9847                 0.4748                 1.3362
 IR Inten    --      9.6295                78.3552                 5.5776

                     25                     26                     27
                      A                      A                      A
 Frequencies --    606.3639               690.2859               710.8044
 Red. masses --      2.9444                 9.8747                 6.0953
 Frc consts  --      0.6378                 2.7723                 1.8145
 IR Inten    --      9.4557                11.8950                 8.3987

                     28                     29                     30
                      A                      A                      A
 Frequencies --    733.2920               746.6868               793.8852
 Red. masses --      5.4066                 3.9206                 5.4706
 Frc consts  --      1.7129                 1.2879                 2.0314
 IR Inten    --      9.5946                 2.0903                 0.4235

                     31                     32                     33
                      A                      A                      A
 Frequencies --    799.6413               805.6529               847.8487
 Red. masses --      5.9029                 2.8353                 3.7612
 Frc consts  --      2.2238                 1.0843                 1.5930
 IR Inten    --      8.2860                 1.4847                28.3420

                     34                     35                     36
                      A                      A                      A
 Frequencies --    850.3278               894.2006               923.9253
 Red. masses --      2.0752                 1.5225                 5.3605
 Frc consts  --      0.8841                 0.7173                 2.6961
 IR Inten    --     42.8752                10.6586                39.6269

                     37                     38                     39
                      A                      A                      A
 Frequencies --    932.4360               953.4606               969.0018
 Red. masses --      3.2635                 1.3787                 1.9298
 Frc consts  --      1.6717                 0.7384                 1.0676
 IR Inten    --      8.8522                 3.9270                 2.4283

                     40                     41                     42
                      A                      A                      A
 Frequencies --    969.2394               979.5342              1001.1541
 Red. masses --      2.3672                 1.4323                 3.9320
 Frc consts  --      1.3102                 0.8097                 2.3220
 IR Inten    --      3.3414                 2.7862                 0.6666

                     43                     44                     45
                      A                      A                      A
 Frequencies --   1045.5670              1070.8106              1094.9746
 Red. masses --      1.9116                 3.1684                 3.8594
 Frc consts  --      1.2313                 2.1405                 2.7263
 IR Inten    --     12.0695               224.1554                43.5335

                     46                     47                     48
                      A                      A                      A
 Frequencies --   1127.2212              1138.7240              1153.3787
 Red. masses --      1.6841                 2.4634                 1.7300
 Frc consts  --      1.2608                 1.8820                 1.3560
 IR Inten    --      7.9821                 2.4743                 7.0809

                     49                     50                     51
                      A                      A                      A
 Frequencies --   1166.6588              1243.1135              1245.5041
 Red. masses --      1.4416                 2.8786                 1.3106
 Frc consts  --      1.1560                 2.6209                 1.1979
 IR Inten    --      8.7157                 9.3958                 6.7109

                     52                     53                     54
                      A                      A                      A
 Frequencies --   1260.8763              1275.8945              1311.1819
 Red. masses --      2.6628                 2.1054                 1.5241
 Frc consts  --      2.4942                 2.0194                 1.5438
 IR Inten    --      8.9126                72.8046                 1.6659

                     55                     56                     57
                      A                      A                      A
 Frequencies --   1337.2594              1345.5237              1361.3207
 Red. masses --      2.4416                 1.5073                 1.6887
 Frc consts  --      2.5725                 1.6078                 1.8438
 IR Inten    --     18.8255                 2.9795               113.1023

                     58                     59                     60
                      A                      A                      A
 Frequencies --   1364.7190              1400.8243              1417.2593
 Red. masses --      2.4704                 1.3858                 5.4711
 Frc consts  --      2.7108                 1.6022                 6.4748
 IR Inten    --     58.8096                 3.4079                29.9197

                     61                     62                     63
                      A                      A                      A
 Frequencies --   1439.5463              1445.6296              1478.2587
 Red. masses --      1.3087                 2.5243                 2.4097
 Frc consts  --      1.5979                 3.1081                 3.1025
 IR Inten    --     19.5780                21.1829                27.0598

                     64                     65                     66
                      A                      A                      A
 Frequencies --   1503.0752              1516.3408              1524.9423
 Red. masses --      4.2701                 1.0469                 1.0510
 Frc consts  --      5.6839                 1.4182                 1.4400
 IR Inten    --    132.7909                 3.6840                 2.0039

                     67                     68                     69
                      A                      A                      A
 Frequencies --   1539.6014              1553.1825              1597.6403
 Red. masses --      1.1048                 2.8697                 3.1613
 Frc consts  --      1.5430                 4.0788                 4.7542
 IR Inten    --     17.7553                21.5024               691.4054

                     70                     71                     72
                      A                      A                      A
 Frequencies --   1622.7315              1628.5816              1678.1319
 Red. masses --      5.9722                 3.4904                 1.5119
 Frc consts  --      9.2656                 5.4544                 2.5086
 IR Inten    --    115.1536               158.3245               206.2628

                     73                     74                     75
                      A                      A                      A
 Frequencies --   1687.9472              1747.5509              3040.2723
 Red. masses --      4.9271                 8.6771                 1.0619
 Frc consts  --      8.2710                15.6129                 5.7833
 IR Inten    --    113.7373               414.0910                59.0767

                     76                     77                     78
                      A                      A                      A
 Frequencies --   3054.8486              3074.7518              3099.2323
 Red. masses --      1.0360                 1.1028                 1.0901
 Frc consts  --      5.6961                 6.1431                 6.1689
 IR Inten    --     12.5280                28.9554                29.9996

                     79                     80                     81
                      A                      A                      A
 Frequencies --   3127.0126              3137.4077              3173.7910
 Red. masses --      1.1016                 1.1031                 1.0894
 Frc consts  --      6.3464                 6.3977                 6.4651
 IR Inten    --     34.4667                27.8106                18.7443

                     82                     83                     84
                      A                      A                      A
 Frequencies --   3177.5184              3223.2725              3245.2846
 Red. masses --      1.0902                 1.0932                 1.0908
 Frc consts  --      6.4853                 6.6920                 6.7689
 IR Inten    --     48.6683                 6.8087                10.9233

                     85                     86                     87
                      A                      A                      A
 Frequencies --   3588.5558              3635.5681              3706.1182
 Red. masses --      1.0462                 1.0764                 1.1020
 Frc consts  --      7.9381                 8.3827                 8.9177
 IR Inten    --     49.7276                49.9610                35.3482

 - Thermochemistry -
 -------------------
 Temperature   298.150 Kelvin.  Pressure   1.00000 Atm.
 Atom     1 has atomic number  6 and mass  12.00000

 Molecular mass:   243.11201 amu.
 Principal axes and moments of inertia in atomic units:
                           1         2         3
     Eigenvalues --  1715.624928709.92532**********
           X            0.99997  -0.00623  -0.00506
           Y            0.00621   0.99997  -0.00450
           Z            0.00509   0.00446   0.99998
 This molecule is an asymmetric top.
 Rotational symmetry number  1.
 Warning -- assumption of classical behavior for rotation
           may cause significant error
 Rotational temperatures (Kelvin)      0.05049     0.00994     0.00848
 Rotational constants (GHZ):           1.05194     0.20721     0.17677
 Zero-point vibrational energy     655039.5 (Joules/Mol)
                                  156.55820 (Kcal/Mol)
 Warning -- explicit consideration of  25 degrees of freedom as
           vibrations may cause significant error
 Vibrational temperatures:     44.52    58.70    97.09   121.01   149.13
          (Kelvin)            222.90   280.93   315.97   340.24   372.52
                              412.92   498.63   507.49   532.41   555.86
                              619.04   631.48   641.03   719.61   747.80
                              761.81   782.95   803.71   858.97   872.42
                              993.17  1022.69  1055.04  1074.32  1142.22
                             1150.51  1159.15  1219.87  1223.43  1286.56
                             1329.32  1341.57  1371.82  1394.18  1394.52
                             1409.33  1440.44  1504.34  1540.66  1575.42
                             1621.82  1638.37  1659.45  1678.56  1788.56
                             1792.00  1814.12  1835.73  1886.50  1924.02
                             1935.91  1958.64  1963.53  2015.47  2039.12
                             2071.19  2079.94  2126.88  2162.59  2181.68
                             2194.05  2215.14  2234.68  2298.65  2334.75
                             2343.17  2414.46  2428.58  2514.34  4374.27
                             4395.25  4423.88  4459.10  4499.07  4514.03
                             4566.38  4571.74  4637.57  4669.24  5163.13
                             5230.77  5332.28

 Zero-point correction=                           0.249491 (Hartree/Particle)
 Thermal correction to Energy=                    0.264516
 Thermal correction to Enthalpy=                  0.265460
 Thermal correction to Gibbs Free Energy=         0.206312
 Sum of electronic and zero-point Energies=           -813.924036
 Sum of electronic and thermal Energies=              -813.909012
 Sum of electronic and thermal Enthalpies=            -813.908067
 Sum of electronic and thermal Free Energies=         -813.967216

                     E (Thermal)             CV                S
                      KCal/Mol        Cal/Mol-Kelvin    Cal/Mol-Kelvin
 Total                  165.986             58.919            124.488
 Electronic               0.000              0.000              0.000
 Translational            0.889              2.981             42.366
 Rotational               0.889              2.981             33.389
 Vibrational            164.209             52.957             48.733
 Vibration     1          0.594              1.984              5.768
 Vibration     2          0.594              1.981              5.220
 Vibration     3          0.598              1.970              4.225
 Vibration     4          0.601              1.960              3.793
 Vibration     5          0.605              1.946              3.385
 Vibration     6          0.620              1.897              2.611
 Vibration     7          0.636              1.846              2.177
 Vibration     8          0.647              1.811              1.962
 Vibration     9          0.655              1.785              1.829
 Vibration    10          0.668              1.748              1.669
 Vibration    11          0.684              1.698              1.492
 Vibration    12          0.725              1.582              1.182
 Vibration    13          0.729              1.570              1.154
 Vibration    14          0.742              1.534              1.080
 Vibration    15          0.755              1.499              1.014
 Vibration    16          0.791              1.404              0.858
 Vibration    17          0.799              1.385              0.830
 Vibration    18          0.805              1.371              0.809
 Vibration    19          0.856              1.250              0.658
 Vibration    20          0.875              1.206              0.611
 Vibration    21          0.884              1.185              0.588
 Vibration    22          0.899              1.152              0.556
 Vibration    23          0.914              1.121              0.527
 Vibration    24          0.955              1.038              0.455
 Vibration    25          0.965              1.018              0.439

 Optimization completed.
    -- Stationary point found.
 Normal termination of Gaussian 16 at Fri Dec 11 19:26:51 2020.

 ----------------------------------------------------------------------
 # B3LYP/6-311++G(d,p) empiricaldispersion=gd3bj scf=xqc pop=npa geom=c
 heck
 ----------------------------------------------------------------------

 ---------------------------------------
 CID_154273361_JID_8174_Energie_neutraal
 ---------------------------------------
 Structure from the checkpoint file:  "JID_8174.chk"
 Charge =  0 Multiplicity = 1

 SCF Done:  E(RB3LYP) =  -814.396677405     A.U. after   15 cycles
 Normal termination of Gaussian 16 at Fri Dec 11 19:31:53 2020.

 ----------------------------------------------------------------------
 # B3LYP/6-311++G(d,p) empiricaldispersion=gd3bj scf=xqc pop=npa geom=c
 heck
 ----------------------------------------------------------------------

 -------------------------------------
 CID_154273361_JID_8174_Energie_kation
 -------------------------------------
 Structure from the checkpoint file:  "JID_8174.chk"
 Charge =  1 Multiplicity = 2

 SCF Done:  E(UB3LYP) =  -814.122956933     A.U. after   22 cycles
 Normal termination of Gaussian 16 at Fri Dec 11 19:42:30 2020.
 Gaussian 16:  ES64L-G16RevA.03 25-Dec-2016

 ----------------------------------------------------------------------
 # B3LYP/6-311++G(d,p) empiricaldispersion=gd3bj scf=xqc pop=npa geom=c
 heck
 ----------------------------------------------------------------------

 ------------------------------------
 CID_154273361_JID_8174_Energie_anion
 ------------------------------------
 Structure from the checkpoint file:  "JID_8174.chk"
 Charge = -1 Multiplicity = 2

                         Standard orientation:
 ---------------------------------------------------------------------
 Center     Atomic      Atomic             Coordinates (Angstroms)
 Number     Number       Type             X           Y           Z
 ---------------------------------------------------------------------
      1          6           0       -5.282224    0.238579    1.067771
      2          6           0       -4.530313    0.280878   -0.251740
      3          6           0       -3.575488    1.497974   -0.402029
      4          7           0       -2.223485    0.953189   -0.240237
      5          6           0       -2.362569   -0.320617   -0.227117
      6          8           0       -3.618004   -0.854991   -0.318124
      7          7           0       -1.401231   -1.285207   -0.135016
      8          6           0       -0.009972   -1.118984   -0.076527
      9          6           0        0.601485    0.123007   -0.031434
     10          6           0        2.009173    0.203971    0.020014
     11          6           0        2.809240   -0.969028    0.050041
     12          6           0        2.153267   -2.224405    0.007938
     13          6           0        0.782867   -2.296713   -0.057450
     14          7           0        4.175212   -0.926265    0.122619
     15          6           0        4.700371    0.278770    0.157383
     16          7           0        4.063952    1.473422    0.110206
     17          6           0        2.739184    1.444466    0.040262
     18          7           0        2.087838    2.645522    0.022301
     19          1           0       -6.006393    1.059930    1.113529
     20          1           0       -4.584190    0.347596    1.905194
     21          1           0       -5.821573   -0.706539    1.182816
     22          1           0       -5.215417    0.175863   -1.097212
     23          1           0       -3.673248    1.979236   -1.383792
     24          1           0       -3.777134    2.261041    0.359284
     25          1           0       -1.755389   -2.230608   -0.125087
     26          1           0       -0.026491    1.003508   -0.019755
     27          1           0        2.766702   -3.118794    0.029385
     28          1           0        0.291167   -3.266690   -0.092497
     29          1           0        5.785544    0.338702    0.222286
     30          1           0        1.154086    2.695036   -0.356636
     31          1           0        2.680231    3.449629   -0.134306
 ---------------------------------------------------------------------

 SCF Done:  E(UB3LYP) =  -814.400148864     A.U. after   33 cycles
 SCF Done:  E(UB3LYP) =  -814.400148864     a.u. after    1 cycles

 The electronic state is 2-A.
 Alpha  occ. eigenvalues --  -19.06577 -14.25251 -14.21056 -14.18454 -14.17028
 Alpha  occ. eigenvalues --  -14.16498 -10.19188 -10.14474 -10.11479 -10.10632
 Alpha  occ. eigenvalues --  -10.10276 -10.09809 -10.08182 -10.08057 -10.05819
 Alpha  occ. eigenvalues --  -10.05478 -10.04093 -10.03923  -1.00371  -0.85975
 Alpha  occ. eigenvalues --   -0.85659  -0.80480  -0.80110  -0.74267  -0.71803
 Alpha  occ. eigenvalues --   -0.69189  -0.64180  -0.62536  -0.59836  -0.55020
 Alpha  occ. eigenvalues --   -0.53465  -0.51614  -0.50276  -0.46810  -0.44576
 Alpha  occ. eigenvalues --   -0.43209  -0.43089  -0.41120  -0.39756  -0.37957
 Alpha  occ. eigenvalues --   -0.36268  -0.34319  -0.33502  -0.32990  -0.32728
 Alpha  occ. eigenvalues --   -0.31708  -0.31168  -0.30765  -0.30229  -0.30190
 Alpha  occ. eigenvalues --   -0.29153  -0.27398  -0.26031  -0.25467  -0.23864
 Alpha  occ. eigenvalues --   -0.23364  -0.20029  -0.17835  -0.16724  -0.15664
 Alpha  occ. eigenvalues --   -0.14463  -0.13204  -0.12478  -0.09180   0.03755
 Alpha virt. eigenvalues --    0.05173   0.07461   0.07745   0.08024   0.08929
 Alpha virt. eigenvalues --    0.09511   0.09543   0.10272   0.10730   0.11128
 Alpha virt. eigenvalues --    0.11715   0.12598   0.13306   0.13529   0.13706

  Beta  occ. eigenvalues --  -19.06578 -14.25258 -14.21011 -14.18427 -14.16992
  Beta  occ. eigenvalues --  -14.16341 -10.19181 -10.14459 -10.11197 -10.10622
  Beta  occ. eigenvalues --  -10.10300 -10.09783 -10.08158 -10.08087 -10.05853
  Beta  occ. eigenvalues --  -10.05337 -10.03895 -10.03698  -1.00363  -0.85917
  Beta  occ. eigenvalues --   -0.85451  -0.80288  -0.80064  -0.74071  -0.71587
  Beta  occ. eigenvalues --   -0.69116  -0.63901  -0.62264  -0.59766  -0.54857
  Beta  occ. eigenvalues --   -0.53181  -0.51528  -0.50125  -0.46588  -0.44471
  Beta  occ. eigenvalues --   -0.43125  -0.42982  -0.41050  -0.39652  -0.37829
  Beta  occ. eigenvalues --   -0.36222  -0.34255  -0.33451  -0.32863  -0.32631
  Beta  occ. eigenvalues --   -0.31574  -0.31038  -0.30356  -0.30117  -0.29971
  Beta  occ. eigenvalues --   -0.29085  -0.27259  -0.26008  -0.25013  -0.23734
  Beta  occ. eigenvalues --   -0.22748  -0.19644  -0.17765  -0.16595  -0.15438
  Beta  occ. eigenvalues --   -0.13629  -0.12538  -0.12347  -0.08346
  Beta virt. eigenvalues --    0.05924   0.07684   0.07806   0.08171   0.08213
  Beta virt. eigenvalues --    0.09047   0.09603   0.09682   0.10383   0.10823
  Beta virt. eigenvalues --    0.11204   0.11703   0.12650   0.13483   0.13669

 Mulliken charges and spin densities:
               1          2
     1  C    0.585287  -1.153438
     2  C   -0.288766   0.680196
     3  C    0.345677  -0.825141
     4  N   -0.147216   0.022313
     5  C   -0.005825  -0.107520
     6  O   -0.060166  -0.004747
     7  N   -0.305850   0.020313
     8  C   -0.256943   0.019129
     9  C   -0.424263   0.208530
    10  C    0.482526   0.001801
    11  C   -0.665799  -0.030366
    12  C   -0.339813   0.128849
    13  C   -0.065938   0.092639
    14  N   -0.125505   0.067957
    15  C    0.016458   0.025385
    16  N   -0.225229   0.021600
    17  C    0.046483   0.154969
    18  N   -0.329599   0.023360
    19  H   -0.231068   0.366213
    20  H    0.032673   0.132144
    21  H   -0.012877   0.159428
    22  H   -0.412115   0.626487
    23  H   -0.126370   0.278016
    24  H    0.086182   0.081717
    25  H    0.291438   0.032482
    26  H    0.291921  -0.064389
    27  H    0.142995  -0.010274
    28  H    0.079233   0.003019
    29  H    0.169359  -0.002068
    30  H    0.193516   0.043352
    31  H    0.259593   0.008046
 Sum of Mulliken charges =  -1.00000   1.00000

 Dipole moment (field-independent basis, Debye):
    X=             -2.0488    Y=             -0.7028    Z=              0.0961  Tot=              2.1681
 Quadrupole moment (field-independent basis, Debye-Ang):
   XX=           -208.7314   YY=           -121.7767   ZZ=           -122.9764
   XY=              8.4029   XZ=             -5.0842   YZ=             -0.5526

 Summary of Natural Population Analysis:

                                       Natural Population
                Natural  -----------------------------------------------
    Atom  No    Charge         Core      Valence    Rydberg      Total
 -----------------------------------------------------------------------
      C    1   -0.29641      0.99964     2.29019    0.00658     3.29641
      C    2    0.05449      0.99958     1.93266    0.01327     2.94551
      C    3   -0.10293      0.99962     2.09085    0.01247     3.10293
      N    4   -0.30081      0.99966     2.79017    0.01099     3.80081
      C    5    0.36505      0.99958     1.61515    0.02022     2.63495
      O    6   -0.29163      0.99987     3.28360    0.00816     4.29163
      N    7   -0.29688      0.99962     2.78906    0.00820     3.79688
      C    8    0.07184      0.99948     1.91876    0.00991     2.92816
      C    9   -0.07746      0.99951     2.07025    0.00771     3.07746
      C   10   -0.07386      0.99946     2.06438    0.01003     3.07386
      C   11    0.08116      0.99948     1.90691    0.01245     2.91884
      C   12   -0.06511      0.99954     2.05586    0.00970     3.06511
      C   13   -0.08505      0.99954     2.07761    0.00791     3.08505
      N   14   -0.24749      0.99969     2.73668    0.01112     3.74749
      C   15    0.14050      0.99968     1.84066    0.01916     2.85950
      N   16   -0.29091      0.99967     2.77935    0.01188     3.79091
      C   17    0.26360      0.99955     1.72030    0.01655     2.73640
      N   18   -0.38825      0.99970     2.88022    0.00833     3.88825
      H   19    0.10312      0.00000     0.39544    0.00144     0.39688
      H   20    0.10113      0.00000     0.39786    0.00101     0.39887
      H   21    0.10301      0.00000     0.39598    0.00101     0.39699
      H   22    0.09152      0.00000     0.40645    0.00202     0.40848
      H   23    0.09399      0.00000     0.40432    0.00169     0.40601
      H   24    0.09204      0.00000     0.40663    0.00133     0.40796
      H   25    0.19671      0.00000     0.30116    0.00214     0.30329
      H   26    0.11525      0.00000     0.38324    0.00151     0.38475
      H   27    0.10074      0.00000     0.39813    0.00113     0.39926
      H   28    0.08863      0.00000     0.40999    0.00138     0.41137
      H   29    0.07286      0.00000     0.42587    0.00127     0.42714
      H   30    0.19211      0.00000     0.30628    0.00161     0.30789
      H   31    0.18906      0.00000     0.30878    0.00216     0.31094
 =======================================================================
   * Total *    0.00001     17.99287    45.78279    0.22433    63.99999

 Normal termination of Gaussian 16 at Fri Dec 11 19:59:19 2020.
