 Gaussian 16, Revision A.03,

 -----------------------------------------------------------
 # opt freq B3LYP/6-31G(d) empiricaldispersion=gd3bj scf=xqc
 -----------------------------------------------------------

 ------------------------------
 CID_151978554_JID_728_neutraal
 ------------------------------
 Symbolic Z-matrix:
 Charge =  0 Multiplicity = 1

 SCF Done:  E(RB3LYP) =  -456.036305651     A.U. after   15 cycles
 SCF Done:  E(RB3LYP) =  -456.039621465     A.U. after   15 cycles
 SCF Done:  E(RB3LYP) =  -456.041141384     A.U. after   13 cycles
 SCF Done:  E(RB3LYP) =  -456.042164179     A.U. after   14 cycles
 SCF Done:  E(RB3LYP) =  -456.042431510     A.U. after   14 cycles
 SCF Done:  E(RB3LYP) =  -456.042528751     A.U. after   12 cycles
 SCF Done:  E(RB3LYP) =  -456.042561566     A.U. after   11 cycles
 SCF Done:  E(RB3LYP) =  -456.042581818     A.U. after   11 cycles
 SCF Done:  E(RB3LYP) =  -456.042588081     A.U. after   11 cycles
 SCF Done:  E(RB3LYP) =  -456.042591832     A.U. after   11 cycles
 SCF Done:  E(RB3LYP) =  -456.042592308     A.U. after    8 cycles
 SCF Done:  E(RB3LYP) =  -456.042592598     A.U. after    8 cycles
 Optimization completed.
    -- Stationary point found.

 1\1\GINC-NODE202\FOpt\RB3LYP\6-31G(d)\C6H14N4\VSC10255\08-Dec-2020\0\\
 # opt freq B3LYP/6-31G(d) empiricaldispersion=gd3bj scf=xqc\\CID_15197
 8554_JID_728_neutraal\\0,1\C,0.9917318044,0.1353659719,-0.0912791527\C
 ,0.8518503546,-0.2777392221,1.3772421753\C,1.0345082089,0.8804775875,2
 .3680685883\C,0.0594811145,2.0585807036,2.2035380021\C,-1.4095060166,1
 .6249845416,2.3089764838\N,0.4378626762,3.0937867069,3.178848124\C,0.1
 304443721,4.4438496916,2.8915509668\N,-1.3653694546,4.7489637955,2.910
 3035544\N,-1.6453778343,5.9043546074,2.5888485606\N,-1.9842256517,6.95

 Normal termination of Gaussian 16 at Tue Dec  8 12:28:00 2020.

 --------------------------------------------------------------------
 #N Geom=AllCheck Guess=TCheck SCRF=Check GenChk RB3LYP/6-31G(d) Freq
 --------------------------------------------------------------------

 Structure from the checkpoint file:  "JID_728.chk"
 ------------------------------
 CID_151978554_JID_728_neutraal
 ------------------------------
 Charge =  0 Multiplicity = 1

 SCF Done:  E(RB3LYP) =  -456.042592598     A.U. after    1 cycles

  Exact polarizability: 129.800  11.459  79.109   6.245   1.903  74.368
 Approx polarizability: 185.414  33.537 120.256  20.950   8.888 111.299

                      1                      2                      3
                      A                      A                      A
 Frequencies --      9.5692                38.4779                71.2619
 Red. masses --      6.5636                 4.2359                 2.6512
 Frc consts  --      0.0004                 0.0037                 0.0079
 IR Inten    --      0.3137                 0.5178                 0.2435

                      4                      5                      6
                      A                      A                      A
 Frequencies --    106.4436               128.0836               186.3901
 Red. masses --      4.6831                 2.0751                 5.3232
 Frc consts  --      0.0313                 0.0201                 0.1090
 IR Inten    --      1.6386                 1.5690                 0.7879

                      7                      8                      9
                      A                      A                      A
 Frequencies --    205.9444               242.9006               267.5726
 Red. masses --      1.4985                 1.1317                 2.8843
 Frc consts  --      0.0374                 0.0393                 0.1217
 IR Inten    --      0.6905                 1.0263                 7.5048

                     10                     11                     12
                      A                      A                      A
 Frequencies --    301.3289               312.4141               375.0730
 Red. masses --      2.2830                 1.5906                 2.2443
 Frc consts  --      0.1221                 0.0915                 0.1860
 IR Inten    --      4.1499                 5.0338                 1.9794

                     13                     14                     15
                      A                      A                      A
 Frequencies --    454.9214               485.0145               546.1297
 Red. masses --      1.8588                 2.4745                 2.8521
 Frc consts  --      0.2266                 0.3430                 0.5012
 IR Inten    --     15.9752                 8.4491                12.1961

                     16                     17                     18
                      A                      A                      A
 Frequencies --    581.8390               618.3764               709.1908
 Red. masses --     13.4184                 8.7272                 1.9193
 Frc consts  --      2.6764                 1.9662                 0.5688
 IR Inten    --     10.5476                44.5337               146.9081

                     19                     20                     21
                      A                      A                      A
 Frequencies --    755.1029               847.5105               853.8227
 Red. masses --      1.2973                 1.9186                 4.5438
 Frc consts  --      0.4358                 0.8119                 1.9517
 IR Inten    --      2.5153                 8.1907               101.3590

                     22                     23                     24
                      A                      A                      A
 Frequencies --    872.8662               902.7057               941.8924
 Red. masses --      2.0151                 1.5003                 1.8495
 Frc consts  --      0.9046                 0.7203                 0.9668
 IR Inten    --      0.9951                 5.5384                 3.3891

                     25                     26                     27
                      A                      A                      A
 Frequencies --   1000.8276              1021.1311              1059.2423
 Red. masses --      1.4784                 1.4527                 1.4041
 Frc consts  --      0.8725                 0.8925                 0.9282
 IR Inten    --      4.4513                 2.9229                 1.4541

                     28                     29                     30
                      A                      A                      A
 Frequencies --   1084.4405              1164.8748              1182.0549
 Red. masses --      2.6211                 1.9346                 1.9790
 Frc consts  --      1.8161                 1.5467                 1.6292
 IR Inten    --      0.4660                24.1779                74.5124

                     31                     32                     33
                      A                      A                      A
 Frequencies --   1191.0725              1228.2885              1267.4197
 Red. masses --      2.0621                 3.3368                 1.2354
 Frc consts  --      1.7236                 2.9661                 1.1692
 IR Inten    --      1.4624               233.5969                 7.8948

                     34                     35                     36
                      A                      A                      A
 Frequencies --   1295.2301              1316.6700              1324.0320
 Red. masses --      1.2511                 8.5142                 1.2864
 Frc consts  --      1.2367                 8.6965                 1.3287
 IR Inten    --      0.1608               162.6577                 1.0006

                     37                     38                     39
                      A                      A                      A
 Frequencies --   1361.9441              1383.0179              1398.3158
 Red. masses --      1.2529                 1.3090                 1.3573
 Frc consts  --      1.3692                 1.4751                 1.5637
 IR Inten    --      7.1452                 4.5204                20.5971

                     40                     41                     42
                      A                      A                      A
 Frequencies --   1405.4049              1421.6246              1439.6201
 Red. masses --      1.2714                 1.3144                 1.2550
 Frc consts  --      1.4796                 1.5651                 1.5325
 IR Inten    --     48.2884                11.4349                12.8605

                     43                     44                     45
                      A                      A                      A
 Frequencies --   1444.5430              1510.6111              1513.4497
 Red. masses --      1.2696                 1.0803                 1.1140
 Frc consts  --      1.5610                 1.4525                 1.5034
 IR Inten    --      7.1599                 2.0187                 1.0121

                     46                     47                     48
                      A                      A                      A
 Frequencies --   1517.4525              1524.5653              1534.2996
 Red. masses --      1.0913                 1.0601                 1.1412
 Frc consts  --      1.4806                 1.4517                 1.5828
 IR Inten    --      7.2857                 3.6517                15.3452

                     49                     50                     51
                      A                      A                      A
 Frequencies --   1534.8004              1536.6490              1547.6490
 Red. masses --      1.0779                 1.0561                 1.1207
 Frc consts  --      1.4959                 1.4693                 1.5816
 IR Inten    --      3.2116                 2.3394                39.7797

                     52                     53                     54
                      A                      A                      A
 Frequencies --   2250.3823              3020.8878              3039.9157
 Red. masses --     13.4003                 1.0662                 1.0558
 Frc consts  --     39.9831                 5.7327                 5.7486
 IR Inten    --    628.1448                24.0768                20.5657

                     55                     56                     57
                      A                      A                      A
 Frequencies --   3042.5488              3044.8406              3046.3015
 Red. masses --      1.0545                 1.0413                 1.0577
 Frc consts  --      5.7512                 5.6878                 5.7831
 IR Inten    --     16.9160                13.1635                24.8575

                     58                     59                     60
                      A                      A                      A
 Frequencies --   3051.3738              3066.0270              3083.1259
 Red. masses --      1.0691                 1.1015                 1.0984
 Frc consts  --      5.8650                 6.1007                 6.1518
 IR Inten    --     44.2252                13.1901                48.4506

                     61                     62                     63
                      A                      A                      A
 Frequencies --   3093.0564              3108.2980              3112.0709
 Red. masses --      1.1112                 1.0989                 1.1002
 Frc consts  --      6.2632                 6.2556                 6.2777
 IR Inten    --     32.1387                41.9613                63.4408

                     64                     65                     66
                      A                      A                      A
 Frequencies --   3116.0030              3156.0145              3519.8965
 Red. masses --      1.1017                 1.0992                 1.0738
 Frc consts  --      6.3025                 6.4505                 7.8385
 IR Inten    --     46.0611                12.7174                 1.2096

 - Thermochemistry -
 -------------------
 Temperature   298.150 Kelvin.  Pressure   1.00000 Atm.
 Atom     1 has atomic number  6 and mass  12.00000

 Molecular mass:   142.12185 amu.
 Principal axes and moments of inertia in atomic units:
                           1         2         3
     Eigenvalues --   573.719533676.773523772.04749
           X            0.99988  -0.01561  -0.00173
           Y            0.01564   0.99974   0.01665
           Z            0.00147  -0.01667   0.99986
 This molecule is an asymmetric top.
 Rotational symmetry number  1.
 Warning -- assumption of classical behavior for rotation
           may cause significant error
 Rotational temperatures (Kelvin)      0.15097     0.02356     0.02296
 Rotational constants (GHZ):           3.14569     0.49085     0.47845
 Zero-point vibrational energy     554916.6 (Joules/Mol)
                                  132.62824 (Kcal/Mol)
 Warning -- explicit consideration of  17 degrees of freedom as
           vibrations may cause significant error
 Vibrational temperatures:     13.77    55.36   102.53   153.15   184.28
          (Kelvin)            268.17   296.31   349.48   384.98   433.55
                              449.49   539.65   654.53   697.83   785.76
                              837.14   889.71  1020.37  1086.42  1219.38
                             1228.46  1255.86  1298.79  1355.17  1439.97
                             1469.18  1524.01  1560.27  1676.00  1700.71
                             1713.69  1767.23  1823.53  1863.55  1894.39
                             1904.99  1959.53  1989.85  2011.86  2022.06
                             2045.40  2071.29  2078.38  2173.43  2177.52
                             2183.28  2193.51  2207.51  2208.24  2210.90
                             2226.72  3237.80  4346.38  4373.76  4377.55
                             4380.85  4382.95  4390.25  4411.33  4435.93
                             4450.22  4472.15  4477.58  4483.23  4540.80
                             5064.35

 Zero-point correction=                           0.211357 (Hartree/Particle)
 Thermal correction to Energy=                    0.223242
 Thermal correction to Enthalpy=                  0.224186
 Thermal correction to Gibbs Free Energy=         0.171130
 Sum of electronic and zero-point Energies=           -455.831236
 Sum of electronic and thermal Energies=              -455.819350
 Sum of electronic and thermal Enthalpies=            -455.818406
 Sum of electronic and thermal Free Energies=         -455.871463

                     E (Thermal)             CV                S
                      KCal/Mol        Cal/Mol-Kelvin    Cal/Mol-Kelvin
 Total                  140.087             41.867            111.667
 Electronic               0.000              0.000              0.000
 Translational            0.889              2.981             40.766
 Rotational               0.889              2.981             30.454
 Vibrational            138.309             35.905             40.447
 Vibration     1          0.593              1.987              8.099
 Vibration     2          0.594              1.982              5.336
 Vibration     3          0.598              1.968              4.118
 Vibration     4          0.605              1.944              3.333
 Vibration     5          0.611              1.925              2.975
 Vibration     6          0.632              1.858              2.263
 Vibration     7          0.640              1.831              2.079
 Vibration     8          0.659              1.774              1.782
 Vibration     9          0.673              1.733              1.612
 Vibration    10          0.693              1.671              1.410
 Vibration    11          0.701              1.650              1.350
 Vibration    12          0.746              1.523              1.059
 Vibration    13          0.813              1.350              0.781
 Vibration    14          0.841              1.283              0.697
 Vibration    15          0.901              1.148              0.552
 Vibration    16          0.939              1.071              0.482
 Vibration    17          0.978              0.993              0.419

                           ! Non-Optimized Parameters !

 1\1\GINC-NODE202\Freq\RB3LYP\6-31G(d)\C6H14N4\VSC10255\08-Dec-2020\0\\
 #N Geom=AllCheck Guess=TCheck SCRF=Check GenChk RB3LYP/6-31G(d) Freq\\
 CID_151978554_JID_728_neutraal\\0,1\C,0.9917318044,0.1353659719,-0.091
 2791527\C,0.8518503546,-0.2777392221,1.3772421753\C,1.0345082089,0.880
 4775875,2.3680685883\C,0.0594811145,2.0585807036,2.2035380021\C,-1.409
 5060166,1.6249845416,2.3089764838\N,0.4378626762,3.0937867069,3.178848
 124\C,0.1304443721,4.4438496916,2.8915509668\N,-1.3653694546,4.7489637
 955,2.9103035544\N,-1.6453778343,5.9043546074,2.5888485606\N,-1.984225

 Normal termination of Gaussian 16 at Tue Dec  8 12:32:29 2020.

 ----------------------------------------------------------------------
 # B3LYP/6-311++G(d,p) empiricaldispersion=gd3bj scf=xqc pop=npa geom=c
 heck
 ----------------------------------------------------------------------

 --------------------------------------
 CID_151978554_JID_728_Energie_neutraal
 --------------------------------------
 Structure from the checkpoint file:  "JID_728.chk"
 Charge =  0 Multiplicity = 1

 SCF Done:  E(RB3LYP) =  -456.175378848     A.U. after   14 cycles
 Normal termination of Gaussian 16 at Tue Dec  8 12:39:39 2020.

 ----------------------------------------------------------------------
 # B3LYP/6-311++G(d,p) empiricaldispersion=gd3bj scf=xqc pop=npa geom=c
 heck
 ----------------------------------------------------------------------

 ------------------------------------
 CID_151978554_JID_728_Energie_kation
 ------------------------------------
 Structure from the checkpoint file:  "JID_728.chk"
 Charge =  1 Multiplicity = 2

 SCF Done:  E(UB3LYP) =  -455.849576609     A.U. after   28 cycles
 Normal termination of Gaussian 16 at Tue Dec  8 12:50:04 2020.
 Gaussian 16:  ES64L-G16RevA.03 25-Dec-2016

 -----------------------------------
 CID_151978554_JID_728_Energie_anion
 -----------------------------------
 Structure from the checkpoint file:  "JID_728.chk"
 Charge = -1 Multiplicity = 2

                         Standard orientation:
 ---------------------------------------------------------------------
 Center     Atomic      Atomic             Coordinates (Angstroms)
 Number     Number       Type             X           Y           Z
 ---------------------------------------------------------------------
      1          6           0        3.385483   -1.231141   -0.837501
      2          6           0        3.355463   -0.029413    0.112092
      3          6           0        2.134868    0.881895   -0.078256
      4          6           0        0.764626    0.208377    0.107447
      5          6           0        0.610776   -0.439630    1.490727
      6          7           0       -0.271759    1.209938   -0.190608
      7          6           0       -1.531372    0.767345   -0.656656
      8          7           0       -2.341356    0.010014    0.392764
      9          7           0       -3.407123   -0.442333   -0.026984
     10          7           0       -4.410999   -0.893426   -0.342784
     11          1           0        2.556293   -1.921837   -0.646242
     12          1           0        4.316112   -1.798389   -0.727010
     13          1           0        3.312560   -0.907966   -1.883298
     14          1           0        3.404678   -0.380501    1.150526
     15          1           0        4.258920    0.574092   -0.043467
     16          1           0        2.202139    1.723325    0.627311
     17          1           0        2.155922    1.320515   -1.083680
     18          1           0        0.650556   -0.569452   -0.658600
     19          1           0        0.761099    0.308382    2.280642
     20          1           0       -0.387379   -0.865724    1.611172
     21          1           0        1.349626   -1.234025    1.641842
     22          1           0       -0.364891    1.882517    0.566576
     23          1           0       -2.128933    1.631017   -0.971580
     24          1           0       -1.387110    0.104103   -1.518022
 ---------------------------------------------------------------------

 SCF Done:  E(UB3LYP) =  -456.163068438     A.U. after   33 cycles
 SCF Done:  E(UB3LYP) =  -456.163068438     a.u. after    1 cycles

 The electronic state is 2-A.
 Alpha  occ. eigenvalues --  -14.34120 -14.24247 -14.22940 -14.19898 -10.12971
 Alpha  occ. eigenvalues --  -10.09441 -10.05882 -10.05499 -10.05228 -10.04569
 Alpha  occ. eigenvalues --   -1.00818  -0.85470  -0.80852  -0.69327  -0.64063
 Alpha  occ. eigenvalues --   -0.58161  -0.57082  -0.51031  -0.46147  -0.43646
 Alpha  occ. eigenvalues --   -0.40046  -0.39211  -0.37065  -0.36009  -0.34313
 Alpha  occ. eigenvalues --   -0.32921  -0.31772  -0.31279  -0.30124  -0.29094
 Alpha  occ. eigenvalues --   -0.27409  -0.25597  -0.24940  -0.22947  -0.22046
 Alpha  occ. eigenvalues --   -0.21628  -0.18666  -0.13471  -0.13178   0.04799
 Alpha virt. eigenvalues --    0.06720   0.07770   0.08181   0.08790   0.09689
 Alpha virt. eigenvalues --    0.10088   0.11274   0.11587   0.11821   0.12485
 Alpha virt. eigenvalues --    0.12931   0.13358   0.14039   0.14880   0.15600

  Beta  occ. eigenvalues --  -14.33897 -14.23925 -14.23006 -14.19880 -10.12880
  Beta  occ. eigenvalues --  -10.09435 -10.05860 -10.05485 -10.05192 -10.04540
  Beta  occ. eigenvalues --   -1.00374  -0.85276  -0.80772  -0.69282  -0.63999
  Beta  occ. eigenvalues --   -0.58046  -0.56964  -0.50949  -0.46071  -0.43493
  Beta  occ. eigenvalues --   -0.39795  -0.38825  -0.36913  -0.35625  -0.34078
  Beta  occ. eigenvalues --   -0.32427  -0.31475  -0.31186  -0.30074  -0.29004
  Beta  occ. eigenvalues --   -0.27352  -0.25549  -0.24884  -0.22891  -0.22004
  Beta  occ. eigenvalues --   -0.21557  -0.18245  -0.13382  -0.13084
  Beta virt. eigenvalues --    0.07237   0.08209   0.08438   0.09043   0.09960
  Beta virt. eigenvalues --    0.10304   0.10477   0.11604   0.11876   0.12091
  Beta virt. eigenvalues --    0.12760   0.13286   0.13659   0.14312   0.15066

 Mulliken charges and spin densities:
               1          2
     1  C    0.966830  -1.581949
     2  C   -0.166584  -0.024310
     3  C   -0.117357   0.075545
     4  C   -0.415490   0.085618
     5  C    0.487557  -1.164180
     6  N   -0.028951   0.060110
     7  C    0.335874  -0.720608
     8  N   -0.001212  -0.218886
     9  N    0.171297   0.347174
    10  N   -0.494260   0.222181
    11  H   -0.210854   0.355540
    12  H   -0.566219   0.708005
    13  H   -0.055535   0.190242
    14  H   -0.034723   0.166872
    15  H   -0.481439   0.641477
    16  H   -0.072913   0.181969
    17  H   -0.157249   0.338122
    18  H    0.391311  -0.248031
    19  H   -0.235929   0.384033
    20  H    0.024744   0.143529
    21  H    0.035658   0.102133
    22  H    0.036664   0.196490
    23  H   -0.292549   0.463513
    24  H   -0.118670   0.295410
 Sum of Mulliken charges =  -1.00000   1.00000

 Dipole moment (field-independent basis, Debye):
    X=             -2.2119    Y=              0.8370    Z=              0.5938  Tot=              2.4384
 Quadrupole moment (field-independent basis, Debye-Ang):
   XX=           -151.3467   YY=            -92.9633   ZZ=            -89.6284
   XY=              1.6324   XZ=              2.8470   YZ=              0.9802

 Summary of Natural Population Analysis:

                                       Natural Population
                Natural  -----------------------------------------------
    Atom  No    Charge         Core      Valence    Rydberg      Total
 -----------------------------------------------------------------------
      C    1   -0.28780      0.99967     2.28229    0.00584     3.28780
      C    2   -0.19230      0.99964     2.18411    0.00855     3.19230
      C    3   -0.18825      0.99961     2.17849    0.01016     3.18825
      C    4   -0.01074      0.99959     1.99973    0.01141     3.01074
      C    5   -0.29821      0.99964     2.29313    0.00543     3.29821
      N    6   -0.33395      0.99972     2.82092    0.01331     3.83395
      C    7    0.01487      0.99960     1.97278    0.01275     2.98513
      N    8   -0.22165      0.99971     2.70769    0.01425     3.72165
      N    9    0.13015      0.99971     2.35444    0.01570     3.36985
      N   10   -0.03357      0.99982     2.51956    0.01419     3.53357
      H   11    0.09497      0.00000     0.40396    0.00107     0.40503
      H   12    0.10034      0.00000     0.39820    0.00146     0.39966
      H   13    0.09593      0.00000     0.40289    0.00118     0.40407
      H   14    0.09393      0.00000     0.40473    0.00135     0.40607
      H   15    0.09681      0.00000     0.40171    0.00148     0.40319
      H   16    0.09462      0.00000     0.40409    0.00130     0.40538
      H   17    0.09987      0.00000     0.39847    0.00166     0.40013
      H   18    0.09049      0.00000     0.40731    0.00220     0.40951
      H   19    0.09389      0.00000     0.40466    0.00145     0.40611
      H   20    0.11224      0.00000     0.38619    0.00157     0.38776
      H   21    0.09842      0.00000     0.40053    0.00106     0.40158
      H   22    0.17574      0.00000     0.32106    0.00319     0.32426
      H   23    0.08877      0.00000     0.40932    0.00191     0.41123
      H   24    0.08544      0.00000     0.41280    0.00176     0.41456
 =======================================================================
   * Total *   -0.00000      9.99671    28.86907    0.13422    39.00000

 Normal termination of Gaussian 16 at Tue Dec  8 13:04:15 2020.
