 Gaussian 16, Revision A.03,

 -----------------------------------------------------------
 # opt freq B3LYP/6-31G(d) empiricaldispersion=gd3bj scf=xqc
 -----------------------------------------------------------

 -------------------------------
 CID_149538230_JID_3068_neutraal
 -------------------------------
 Symbolic Z-matrix:
 Charge =  0 Multiplicity = 1

 SCF Done:  E(RB3LYP) =  -651.091581381     A.U. after   15 cycles
 SCF Done:  E(RB3LYP) =  -651.095707578     A.U. after   13 cycles
 SCF Done:  E(RB3LYP) =  -651.094954665     A.U. after   13 cycles
 SCF Done:  E(RB3LYP) =  -651.096098882     A.U. after   12 cycles
 SCF Done:  E(RB3LYP) =  -651.096059137     A.U. after   12 cycles
 SCF Done:  E(RB3LYP) =  -651.096234350     A.U. after   11 cycles
 SCF Done:  E(RB3LYP) =  -651.096245468     A.U. after   10 cycles
 SCF Done:  E(RB3LYP) =  -651.096252839     A.U. after   10 cycles
 SCF Done:  E(RB3LYP) =  -651.096255357     A.U. after    9 cycles
 SCF Done:  E(RB3LYP) =  -651.096262035     A.U. after   10 cycles
 SCF Done:  E(RB3LYP) =  -651.108383673     A.U. after   10 cycles
 SCF Done:  E(RB3LYP) =  -651.108384140     A.U. after    8 cycles
 SCF Done:  E(RB3LYP) =  -651.108384370     A.U. after    8 cycles
 SCF Done:  E(RB3LYP) =  -651.108384506     A.U. after    8 cycles
 SCF Done:  E(RB3LYP) =  -651.108384597     A.U. after    8 cycles
 SCF Done:  E(RB3LYP) =  -651.108384619     A.U. after    7 cycles
 Optimization completed.
    -- Stationary point found.

 1\1\GINC-NODE304\FOpt\RB3LYP\6-31G(d)\C9H12O4\VSC10255\09-Dec-2020\0\\
 # opt freq B3LYP/6-31G(d) empiricaldispersion=gd3bj scf=xqc\\CID_14953
 8230_JID_3068_neutraal\\0,1\C,0.4616812184,0.8335857044,0.5237180804\C
 ,0.1689492225,-0.5694356031,0.9878926103\O,-0.539373618,-1.3273575536,
 0.3432367743\C,0.8040643346,-1.0265609077,2.3098143575\C,1.4882045139,
 -2.4131443072,2.1610149965\C,0.4113660771,-3.4511344721,2.5675862468\C
 ,-0.4780466182,-2.6426593498,3.4869939315\C,-0.2841327326,-1.324590363
 1,3.3340434452\C,-1.0925506483,-0.2999756272,4.0231045247\O,-1.9296725

 Normal termination of Gaussian 16 at Wed Dec  9 22:31:19 2020.

 --------------------------------------------------------------------
 #N Geom=AllCheck Guess=TCheck SCRF=Check GenChk RB3LYP/6-31G(d) Freq
 --------------------------------------------------------------------

 Structure from the checkpoint file:  "JID_3068.chk"
 -------------------------------
 CID_149538230_JID_3068_neutraal
 -------------------------------
 Charge =  0 Multiplicity = 1

 SCF Done:  E(RB3LYP) =  -651.108384619     A.U. after    1 cycles

  Exact polarizability: 122.356 -11.363 105.340  -0.830   3.970  78.109
 Approx polarizability: 168.945 -17.371 155.551 -11.728  10.961 125.953

                      1                      2                      3
                      A                      A                      A
 Frequencies --     36.8157                72.0548                94.0334
 Red. masses --      4.6205                 5.7778                 3.3520
 Frc consts  --      0.0037                 0.0177                 0.0175
 IR Inten    --      1.4572                 2.6617                 0.1330

                      4                      5                      6
                      A                      A                      A
 Frequencies --    118.9508               131.8961               156.8390
 Red. masses --      3.7414                 1.2749                 2.7451
 Frc consts  --      0.0312                 0.0131                 0.0398
 IR Inten    --      0.3657                 1.0135                 2.9133

                      7                      8                      9
                      A                      A                      A
 Frequencies --    163.4925               181.5637               191.5080
 Red. masses --      1.2207                 4.0709                 4.6885
 Frc consts  --      0.0192                 0.0791                 0.1013
 IR Inten    --      0.3574                 2.6720                 1.5186

                     10                     11                     12
                      A                      A                      A
 Frequencies --    251.0138               303.8214               327.1471
 Red. masses --      4.0202                 3.8051                 3.8864
 Frc consts  --      0.1492                 0.2069                 0.2451
 IR Inten    --      6.1167                 1.7192                13.0111

                     13                     14                     15
                      A                      A                      A
 Frequencies --    375.7757               419.5590               426.0445
 Red. masses --      4.3350                 5.7899                 2.4287
 Frc consts  --      0.3607                 0.6005                 0.2597
 IR Inten    --      1.4138                 0.8309                 1.8512

                     16                     17                     18
                      A                      A                      A
 Frequencies --    460.7532               514.5286               602.4445
 Red. masses --      5.2927                 3.5022                 2.7447
 Frc consts  --      0.6620                 0.5463                 0.5869
 IR Inten    --     16.1272                 5.1996                23.2126

                     19                     20                     21
                      A                      A                      A
 Frequencies --    627.5616               663.2320               748.5460
 Red. masses --      2.7085                 1.2183                 4.9089
 Frc consts  --      0.6285                 0.3157                 1.6206
 IR Inten    --     12.1824                83.6442                15.3438

                     22                     23                     24
                      A                      A                      A
 Frequencies --    769.0523               786.2435               804.0544
 Red. masses --      3.5725                 4.0082                 4.3742
 Frc consts  --      1.2449                 1.4599                 1.6662
 IR Inten    --      5.3474                 6.3607                12.8509

                     25                     26                     27
                      A                      A                      A
 Frequencies --    874.4992               885.3663               921.9186
 Red. masses --      3.2517                 4.0631                 1.7392
 Frc consts  --      1.4651                 1.8765                 0.8710
 IR Inten    --      5.0039                 2.7173                12.4475

                     28                     29                     30
                      A                      A                      A
 Frequencies --    965.0697               975.1865               999.3358
 Red. masses --      2.2781                 2.0030                 3.2625
 Frc consts  --      1.2501                 1.1223                 1.9196
 IR Inten    --      3.6695                 5.3124                15.8561

                     31                     32                     33
                      A                      A                      A
 Frequencies --   1024.5991              1058.7970              1069.3586
 Red. masses --      2.5775                 1.8821                 2.0841
 Frc consts  --      1.5942                 1.2432                 1.4042
 IR Inten    --     18.7949                 5.6025                21.1774

                     34                     35                     36
                      A                      A                      A
 Frequencies --   1089.3951              1124.3356              1186.2881
 Red. masses --      3.7666                 2.6452                 1.2763
 Frc consts  --      2.6337                 1.9701                 1.0583
 IR Inten    --    100.0404                33.1227                 0.9253

                     37                     38                     39
                      A                      A                      A
 Frequencies --   1198.3400              1215.3536              1223.5659
 Red. masses --      1.9784                 1.3300                 1.3978
 Frc consts  --      1.6739                 1.1574                 1.2330
 IR Inten    --     35.0640                15.9538                10.7716

                     40                     41                     42
                      A                      A                      A
 Frequencies --   1236.3737              1278.0139              1305.1724
 Red. masses --      1.7932                 1.5222                 3.7149
 Frc consts  --      1.6150                 1.4648                 3.7285
 IR Inten    --    206.2842                71.9649               236.9419

                     43                     44                     45
                      A                      A                      A
 Frequencies --   1321.9455              1336.9359              1360.9709
 Red. masses --      1.6557                 1.2936                 1.9297
 Frc consts  --      1.7048                 1.3623                 2.1059
 IR Inten    --     16.7496                15.0499                21.0109

                     46                     47                     48
                      A                      A                      A
 Frequencies --   1371.1315              1409.6565              1491.3163
 Red. masses --      1.4237                 1.3822                 1.1550
 Frc consts  --      1.5769                 1.6183                 1.5135
 IR Inten    --     16.0720                48.1343                16.4118

                     49                     50                     51
                      A                      A                      A
 Frequencies --   1493.8797              1495.3219              1502.0123
 Red. masses --      1.1222                 1.1303                 1.0550
 Frc consts  --      1.4756                 1.4890                 1.4023
 IR Inten    --     51.8422                48.3703                 4.5346

                     52                     53                     54
                      A                      A                      A
 Frequencies --   1506.5032              1510.9989              1524.9872
 Red. masses --      1.1054                 1.0478                 1.0475
 Frc consts  --      1.4781                 1.4094                 1.4353
 IR Inten    --     19.0227                 7.2637                 8.3667

                     55                     56                     57
                      A                      A                      A
 Frequencies --   1694.4185              1793.9602              1809.8959
 Red. masses --      8.0182                 9.4424                11.8243
 Frc consts  --     13.5634                17.9043                22.8210
 IR Inten    --     51.6355               102.0374               210.9878

                     58                     59                     60
                      A                      A                      A
 Frequencies --   3054.0461              3075.8327              3078.0921
 Red. masses --      1.0398                 1.0665                 1.0292
 Frc consts  --      5.7143                 5.9446                 5.7454
 IR Inten    --      2.4690                10.1562                31.9711

                     61                     62                     63
                      A                      A                      A
 Frequencies --   3094.9348              3100.1590              3121.2283
 Red. masses --      1.0851                 1.0831                 1.0946
 Frc consts  --      6.1238                 6.1335                 6.2828
 IR Inten    --     43.6663                32.2191                 3.4543

                     64                     65                     66
                      A                      A                      A
 Frequencies --   3135.9691              3154.5465              3173.9772
 Red. masses --      1.1035                 1.1076                 1.1043
 Frc consts  --      6.3939                 6.4939                 6.5543
 IR Inten    --     13.9605                17.2703                 8.6224

                     67                     68                     69
                      A                      A                      A
 Frequencies --   3182.6644              3239.6733              3586.5899
 Red. masses --      1.1077                 1.0944                 1.0660
 Frc consts  --      6.6106                 6.7678                 8.0796
 IR Inten    --     16.1946                 1.1911               139.0324

 - Thermochemistry -
 -------------------
 Temperature   298.150 Kelvin.  Pressure   1.00000 Atm.
 Atom     1 has atomic number  6 and mass  12.00000

 Molecular mass:   184.07356 amu.
 Principal axes and moments of inertia in atomic units:
                           1         2         3
     Eigenvalues --  1561.396242769.971563723.83901
           X            0.99945  -0.03101   0.01188
           Y            0.03090   0.99948   0.00941
           Z           -0.01217  -0.00904   0.99989
 This molecule is an asymmetric top.
 Rotational symmetry number  1.
 Warning -- assumption of classical behavior for rotation
           may cause significant error
 Rotational temperatures (Kelvin)      0.05547     0.03127     0.02326
 Rotational constants (GHZ):           1.15585     0.65154     0.48465
 Zero-point vibrational energy     535206.6 (Joules/Mol)
                                  127.91744 (Kcal/Mol)
 Warning -- explicit consideration of  18 degrees of freedom as
           vibrations may cause significant error
 Vibrational temperatures:     52.97   103.67   135.29   171.14   189.77
          (Kelvin)            225.66   235.23   261.23   275.54   361.15
                              437.13   470.69   540.66   603.65   612.98
                              662.92   740.29   866.78   902.92   954.24
                             1076.99  1106.49  1131.23  1156.86  1258.21
                             1273.84  1326.44  1388.52  1403.08  1437.82
                             1474.17  1523.37  1538.57  1567.40  1617.67
                             1706.80  1724.14  1748.62  1760.44  1778.87
                             1838.78  1877.85  1901.98  1923.55  1958.13
                             1972.75  2028.18  2145.67  2149.36  2151.43
                             2161.06  2167.52  2173.99  2194.12  2437.89
                             2581.11  2604.04  4394.09  4425.44  4428.69
                             4452.92  4460.44  4490.75  4511.96  4538.69
                             4566.65  4579.14  4661.17  5160.30

 Zero-point correction=                           0.203849 (Hartree/Particle)
 Thermal correction to Energy=                    0.216922
 Thermal correction to Enthalpy=                  0.217867
 Thermal correction to Gibbs Free Energy=         0.163845
 Sum of electronic and zero-point Energies=           -650.904535
 Sum of electronic and thermal Energies=              -650.891462
 Sum of electronic and thermal Enthalpies=            -650.890518
 Sum of electronic and thermal Free Energies=         -650.944539

                     E (Thermal)             CV                S
                      KCal/Mol        Cal/Mol-Kelvin    Cal/Mol-Kelvin
 Total                  136.121             47.606            113.698
 Electronic               0.000              0.000              0.000
 Translational            0.889              2.981             41.537
 Rotational               0.889              2.981             31.155
 Vibrational            134.343             41.644             41.006
 Vibration     1          0.594              1.982              5.423
 Vibration     2          0.598              1.967              4.096
 Vibration     3          0.603              1.953              3.574
 Vibration     4          0.609              1.934              3.117
 Vibration     5          0.612              1.921              2.918
 Vibration     6          0.621              1.895              2.588
 Vibration     7          0.623              1.887              2.509
 Vibration     8          0.630              1.865              2.312
 Vibration     9          0.634              1.852              2.213
 Vibration    10          0.663              1.761              1.723
 Vibration    11          0.695              1.666              1.396
 Vibration    12          0.711              1.621              1.274
 Vibration    13          0.747              1.522              1.056
 Vibration    14          0.782              1.428              0.893
 Vibration    15          0.788              1.414              0.872
 Vibration    16          0.819              1.337              0.764
 Vibration    17          0.870              1.218              0.623
 Vibration    18          0.961              1.027              0.445

 Optimization completed.
    -- Stationary point found.

 1\1\GINC-NODE304\Freq\RB3LYP\6-31G(d)\C9H12O4\VSC10255\09-Dec-2020\0\\
 #N Geom=AllCheck Guess=TCheck SCRF=Check GenChk RB3LYP/6-31G(d) Freq\\
 CID_149538230_JID_3068_neutraal\\0,1\C,0.4616812184,0.8335857044,0.523
 7180804\C,0.1689492225,-0.5694356031,0.9878926103\O,-0.539373618,-1.32
 73575536,0.3432367743\C,0.8040643346,-1.0265609077,2.3098143575\C,1.48
 82045139,-2.4131443072,2.1610149965\C,0.4113660771,-3.4511344721,2.567
 5862468\C,-0.4780466182,-2.6426593498,3.4869939315\C,-0.2841327326,-1.
 3245903631,3.3340434452\C,-1.0925506483,-0.2999756272,4.0231045247\O,-

 Normal termination of Gaussian 16 at Wed Dec  9 22:37:13 2020.

 ----------------------------------------------------------------------
 # B3LYP/6-311++G(d,p) empiricaldispersion=gd3bj scf=xqc pop=npa geom=c
 heck
 ----------------------------------------------------------------------

 ---------------------------------------
 CID_149538230_JID_3068_Energie_neutraal
 ---------------------------------------
 Structure from the checkpoint file:  "JID_3068.chk"
 Charge =  0 Multiplicity = 1

 SCF Done:  E(RB3LYP) =  -651.306392232     A.U. after   15 cycles
 Normal termination of Gaussian 16 at Wed Dec  9 22:39:18 2020.

 ----------------------------------------------------------------------
 # B3LYP/6-311++G(d,p) empiricaldispersion=gd3bj scf=xqc pop=npa geom=c
 heck
 ----------------------------------------------------------------------

 -------------------------------------
 CID_149538230_JID_3068_Energie_kation
 -------------------------------------
 Structure from the checkpoint file:  "JID_3068.chk"
 Charge =  1 Multiplicity = 2

 SCF Done:  E(UB3LYP) =  -650.968293747     A.U. after   29 cycles
 Normal termination of Gaussian 16 at Wed Dec  9 22:44:42 2020.
 Gaussian 16:  ES64L-G16RevA.03 25-Dec-2016

 ------------------------------------
 CID_149538230_JID_3068_Energie_anion
 ------------------------------------
 Structure from the checkpoint file:  "JID_3068.chk"
 Charge = -1 Multiplicity = 2

                         Standard orientation:
 ---------------------------------------------------------------------
 Center     Atomic      Atomic             Coordinates (Angstroms)
 Number     Number       Type             X           Y           Z
 ---------------------------------------------------------------------
      1          6           0       -0.295960    2.837537    0.045603
      2          6           0        0.541207    1.610132   -0.203889
      3          8           0        1.225918    1.489766   -1.208096
      4          6           0        0.513756    0.503857    0.861576
      5          6           0        1.948435    0.040788    1.235826
      6          6           0        2.251249   -1.160407    0.304301
      7          6           0        0.864008   -1.679115   -0.006346
      8          6           0       -0.081119   -0.769918    0.273647
      9          6           0       -1.511524   -0.965431   -0.032780
     10          8           0       -2.009576   -1.987537   -0.456732
     11          8           0       -2.230310    0.160998    0.222649
     12          6           0       -3.634812    0.059041   -0.060498
     13          8           0        2.929023   -0.808901   -0.890862
     14          1           0       -0.206442    3.537316   -0.787014
     15          1           0        0.027017    3.321794    0.976194
     16          1           0       -1.339475    2.536225    0.185814
     17          1           0       -0.051964    0.853115    1.729998
     18          1           0        2.705362    0.821882    1.128579
     19          1           0        1.942253   -0.291738    2.279038
     20          1           0        2.884970   -1.905914    0.793846
     21          1           0        0.671101   -2.630875   -0.489008
     22          1           0       -3.795477   -0.163681   -1.118327
     23          1           0       -4.088328   -0.732539    0.541139
     24          1           0       -4.057799    1.030079    0.197801
     25          1           0        2.416908   -0.069180   -1.278372
 ---------------------------------------------------------------------

 SCF Done:  E(UB3LYP) =  -651.314716200     A.U. after   32 cycles

 The electronic state is 2-A.
 Alpha  occ. eigenvalues --  -19.01635 -18.96305 -18.95899 -18.93748 -10.12127
 Alpha  occ. eigenvalues --  -10.10476 -10.10213 -10.07280 -10.04627 -10.04183
 Alpha  occ. eigenvalues --  -10.03439 -10.01042  -9.99144  -0.95176  -0.90019
 Alpha  occ. eigenvalues --   -0.86584  -0.85764  -0.69673  -0.62134  -0.60876
 Alpha  occ. eigenvalues --   -0.57050  -0.55456  -0.46896  -0.45137  -0.39816
 Alpha  occ. eigenvalues --   -0.39450  -0.36564  -0.35008  -0.34398  -0.33777
 Alpha  occ. eigenvalues --   -0.31942  -0.31335  -0.30337  -0.29710  -0.28330
 Alpha  occ. eigenvalues --   -0.26624  -0.26070  -0.24571  -0.24211  -0.22538
 Alpha  occ. eigenvalues --   -0.22188  -0.22096  -0.20196  -0.17635  -0.16578
 Alpha  occ. eigenvalues --   -0.12968  -0.12060  -0.11706  -0.10103   0.05314
 Alpha virt. eigenvalues --    0.07848   0.09145   0.09935   0.10653   0.11496
 Alpha virt. eigenvalues --    0.11814   0.12300   0.12789   0.13016   0.13558
 Alpha virt. eigenvalues --    0.14633   0.15080   0.15748   0.16969   0.17798

  Beta  occ. eigenvalues --  -19.01523 -18.96049 -18.95815 -18.93507 -10.11883
  Beta  occ. eigenvalues --  -10.10227 -10.10214 -10.07311 -10.04648 -10.04212
  Beta  occ. eigenvalues --  -10.03408 -10.00970  -9.98647  -0.94873  -0.89538
  Beta  occ. eigenvalues --   -0.86390  -0.85366  -0.69357  -0.61876  -0.60647
  Beta  occ. eigenvalues --   -0.56609  -0.55275  -0.46503  -0.44814  -0.39531
  Beta  occ. eigenvalues --   -0.38978  -0.36244  -0.34657  -0.34189  -0.33588
  Beta  occ. eigenvalues --   -0.31718  -0.30997  -0.30033  -0.29480  -0.28246
  Beta  occ. eigenvalues --   -0.26400  -0.25263  -0.23989  -0.23904  -0.22351
  Beta  occ. eigenvalues --   -0.21942  -0.21763  -0.19477  -0.17492  -0.15621
  Beta  occ. eigenvalues --   -0.12373  -0.11814  -0.11406  -0.08496
  Beta virt. eigenvalues --    0.07788   0.09073   0.09848   0.11067   0.11573
  Beta virt. eigenvalues --    0.11807   0.12225   0.12464   0.12985   0.13379
  Beta virt. eigenvalues --    0.13589   0.14567   0.15137   0.15831   0.16869

 Mulliken charges and spin densities:
               1          2
     1  C   -0.529170  -0.028192
     2  C   -0.085548   0.152575
     3  O   -0.329404   0.081861
     4  C    0.755889   0.021751
     5  C   -0.681275  -0.036774
     6  C   -0.376967  -0.094628
     7  C   -0.365850   0.528710
     8  C    0.053430  -0.046842
     9  C   -0.301496   0.192920
    10  O   -0.371898   0.083987
    11  O   -0.113327   0.021433
    12  C   -0.179056  -0.059786
    13  O   -0.186711   0.006600
    14  H    0.126957   0.004084
    15  H    0.118826   0.005671
    16  H    0.145361   0.030752
    17  H    0.215629   0.005032
    18  H    0.178956  -0.006288
    19  H    0.073821   0.026775
    20  H    0.123169   0.020032
    21  H    0.142328  -0.021612
    22  H    0.161420   0.009362
    23  H    0.116828   0.037067
    24  H    0.058558   0.047655
    25  H    0.249530   0.017855
 Sum of Mulliken charges =  -1.00000   1.00000

 Dipole moment (field-independent basis, Debye):
    X=             -2.5291    Y=              3.9434    Z=              3.4194  Tot=              5.7999
 Quadrupole moment (field-independent basis, Debye-Ang):
   XX=           -106.3325   YY=            -98.8525   ZZ=            -88.1084
   XY=             -4.7640   XZ=              5.7561   YZ=             -0.1446

 Summary of Natural Population Analysis:

                                       Natural Population
                Natural  -----------------------------------------------
    Atom  No    Charge         Core      Valence    Rydberg      Total
 -----------------------------------------------------------------------
      C    1   -0.33344      0.99962     2.32962    0.00421     3.33344
      C    2    0.33169      0.99967     1.64621    0.02244     2.66831
      O    3   -0.29171      0.99986     3.28435    0.00750     4.29171
      C    4   -0.15773      0.99954     2.14797    0.01023     3.15773
      C    5   -0.18802      0.99962     2.18120    0.00719     3.18802
      C    6    0.04566      0.99957     1.94056    0.01421     2.95434
      C    7    0.03121      0.99946     1.96084    0.00849     2.96879
      C    8   -0.06740      0.99940     2.05602    0.01199     3.06740
      C    9    0.42362      0.99960     1.55240    0.02438     2.57638
      O   10   -0.30511      0.99987     3.29994    0.00530     4.30511
      O   11   -0.28221      0.99987     3.27442    0.00793     4.28221
      C   12   -0.10527      0.99961     2.09690    0.00875     3.10527
      O   13   -0.38190      0.99990     3.37378    0.00823     4.38190
      H   14    0.09955      0.00000     0.39818    0.00227     0.40045
      H   15    0.10074      0.00000     0.39845    0.00081     0.39926
      H   16    0.11591      0.00000     0.38227    0.00182     0.38409
      H   17    0.09953      0.00000     0.39899    0.00148     0.40047
      H   18    0.09673      0.00000     0.40107    0.00220     0.40327
      H   19    0.09578      0.00000     0.40321    0.00100     0.40422
      H   20    0.07932      0.00000     0.41881    0.00187     0.42068
      H   21    0.09630      0.00000     0.40269    0.00102     0.40370
      H   22    0.08725      0.00000     0.41110    0.00164     0.41275
      H   23    0.08644      0.00000     0.41169    0.00187     0.41356
      H   24    0.08079      0.00000     0.41799    0.00121     0.41921
      H   25    0.24229      0.00000     0.25414    0.00357     0.25771
 =======================================================================
   * Total *    0.00000     12.99556    35.84283    0.16161    49.00000

 Normal termination of Gaussian 16 at Wed Dec  9 22:51:12 2020.
