 Gaussian 16, Revision A.03,

 -----------------------------------------------------------
 # opt freq B3LYP/6-31G(d) empiricaldispersion=gd3bj scf=xqc
 -----------------------------------------------------------

 -------------------------------
 CID_146620699_JID_1127_neutraal
 -------------------------------
 Symbolic Z-matrix:
 Charge =  0 Multiplicity = 1

 SCF Done:  E(RB3LYP) =  -791.318781584     A.U. after   14 cycles
 SCF Done:  E(RB3LYP) =  -791.321835244     A.U. after   12 cycles
 SCF Done:  E(RB3LYP) =  -791.321316099     A.U. after   12 cycles
 SCF Done:  E(RB3LYP) =  -791.321670691     A.U. after   12 cycles
 SCF Done:  E(RB3LYP) =  -791.323004690     A.U. after    8 cycles
 SCF Done:  E(RB3LYP) =  -791.323334853     A.U. after   12 cycles
 SCF Done:  E(RB3LYP) =  -791.323304580     A.U. after   12 cycles
 SCF Done:  E(RB3LYP) =  -791.323792182     A.U. after   12 cycles
 SCF Done:  E(RB3LYP) =  -791.323457700     A.U. after   12 cycles
 SCF Done:  E(RB3LYP) =  -791.324135737     A.U. after   11 cycles
 SCF Done:  E(RB3LYP) =  -791.324264374     A.U. after   11 cycles
 SCF Done:  E(RB3LYP) =  -791.324280720     A.U. after   10 cycles
 SCF Done:  E(RB3LYP) =  -791.324284913     A.U. after    9 cycles
 SCF Done:  E(RB3LYP) =  -791.324286738     A.U. after    9 cycles
 SCF Done:  E(RB3LYP) =  -791.324287528     A.U. after    7 cycles
 SCF Done:  E(RB3LYP) =  -791.324287586     A.U. after    7 cycles
 Optimization completed.
    -- Stationary point found.
 Normal termination of Gaussian 16 at Tue Dec  8 19:20:01 2020.

 --------------------------------------------------------------------
 #N Geom=AllCheck Guess=TCheck SCRF=Check GenChk RB3LYP/6-31G(d) Freq
 --------------------------------------------------------------------

 Structure from the checkpoint file:  "JID_1127.chk"
 -------------------------------
 CID_146620699_JID_1127_neutraal
 -------------------------------
 Charge =  0 Multiplicity = 1

 SCF Done:  E(RB3LYP) =  -791.324287586     A.U. after    1 cycles

  Exact polarizability: 132.011   3.940 117.686  -1.315  -2.488 111.429
 Approx polarizability: 173.044   8.615 167.261  -3.492  -6.678 182.839

                      1                      2                      3
                      A                      A                      A
 Frequencies --     55.5917                77.9880                91.6441
 Red. masses --      2.6936                 3.0275                 3.1285
 Frc consts  --      0.0049                 0.0108                 0.0155
 IR Inten    --      0.1944                 0.9084                 0.6113

                      4                      5                      6
                      A                      A                      A
 Frequencies --    121.4681               167.5715               195.9629
 Red. masses --      2.2721                 1.5090                 2.6187
 Frc consts  --      0.0198                 0.0250                 0.0592
 IR Inten    --      0.7188                 0.0818                 0.2379

                      7                      8                      9
                      A                      A                      A
 Frequencies --    207.4365               235.2997               251.9354
 Red. masses --      2.2676                 1.2184                 2.5624
 Frc consts  --      0.0575                 0.0397                 0.0958
 IR Inten    --      0.0958                 0.2388                 0.3377

                     10                     11                     12
                      A                      A                      A
 Frequencies --    257.5634               272.2011               276.2288
 Red. masses --      1.3281                 1.3065                 2.0768
 Frc consts  --      0.0519                 0.0570                 0.0934
 IR Inten    --      0.2831                 0.2036                 0.5436

                     13                     14                     15
                      A                      A                      A
 Frequencies --    291.0009               317.8148               335.1949
 Red. masses --      1.9766                 2.0339                 1.4861
 Frc consts  --      0.0986                 0.1210                 0.0984
 IR Inten    --      0.0287                 0.2819                 0.5520

                     16                     17                     18
                      A                      A                      A
 Frequencies --    352.6627               385.9431               400.8729
 Red. masses --      1.9419                 2.0121                 2.6016
 Frc consts  --      0.1423                 0.1766                 0.2463
 IR Inten    --      0.3107                 0.2518                 0.3068

                     19                     20                     21
                      A                      A                      A
 Frequencies --    425.2034               447.6541               535.7205
 Red. masses --      2.4491                 2.3591                 2.5132
 Frc consts  --      0.2609                 0.2785                 0.4250
 IR Inten    --      0.3498                 0.9035                 0.6695

                     22                     23                     24
                      A                      A                      A
 Frequencies --    560.1166               665.1555               705.1722
 Red. masses --      2.3955                 1.9462                 4.0792
 Frc consts  --      0.4428                 0.5073                 1.1951
 IR Inten    --      0.3496                 8.4902                 1.4003

                     25                     26                     27
                      A                      A                      A
 Frequencies --    746.8814               782.9714               847.0383
 Red. masses --      4.0853                 3.7920                 2.3958
 Frc consts  --      1.3427                 1.3696                 1.0128
 IR Inten    --      1.5250                 2.0047                 3.2938

                     28                     29                     30
                      A                      A                      A
 Frequencies --    897.5542               932.9740               939.7250
 Red. masses --      2.2541                 1.3467                 1.7802
 Frc consts  --      1.0699                 0.6907                 0.9262
 IR Inten    --      3.6092                35.2104                 2.0835

                     31                     32                     33
                      A                      A                      A
 Frequencies --    944.9790               962.4672               973.0531
 Red. masses --      1.7442                 1.7045                 1.2078
 Frc consts  --      0.9177                 0.9303                 0.6738
 IR Inten    --      4.4135                 5.8003                 0.1327

                     34                     35                     36
                      A                      A                      A
 Frequencies --    988.4977               999.2604              1028.7066
 Red. masses --      1.1805                 1.2536                 1.2930
 Frc consts  --      0.6796                 0.7375                 0.8062
 IR Inten    --      8.1696                 9.2483                 6.0993

                     37                     38                     39
                      A                      A                      A
 Frequencies --   1040.3855              1055.8341              1064.8185
 Red. masses --      1.3604                 1.4491                 1.3913
 Frc consts  --      0.8676                 0.9518                 0.9294
 IR Inten    --      3.3133                 0.4179                 1.0920

                     40                     41                     42
                      A                      A                      A
 Frequencies --   1092.6911              1094.7242              1175.6905
 Red. masses --      1.6556                 2.1114                 1.7238
 Frc consts  --      1.1647                 1.4909                 1.4038
 IR Inten    --      4.7470                 2.5398                 1.3900

                     43                     44                     45
                      A                      A                      A
 Frequencies --   1219.8487              1236.8958              1262.3623
 Red. masses --      1.7409                 1.9902                 1.8804
 Frc consts  --      1.5263                 1.7940                 1.7655
 IR Inten    --      8.6328                 4.3282                 3.0094

                     46                     47                     48
                      A                      A                      A
 Frequencies --   1271.4716              1339.5374              1347.4888
 Red. masses --      2.2403                 1.4970                 1.2090
 Frc consts  --      2.1339                 1.5826                 1.2934
 IR Inten    --     14.0604                 0.7679                 1.6518

                     49                     50                     51
                      A                      A                      A
 Frequencies --   1365.4700              1383.0813              1408.6494
 Red. masses --      1.3107                 1.1759                 1.3278
 Frc consts  --      1.4399                 1.3253                 1.5524
 IR Inten    --      1.1330                 0.8983                 4.8110

                     52                     53                     54
                      A                      A                      A
 Frequencies --   1425.3326              1428.7310              1438.1110
 Red. masses --      1.2337                 1.2259                 1.2088
 Frc consts  --      1.4768                 1.4744                 1.4729
 IR Inten    --      5.3208                 7.7494                 2.8141

                     55                     56                     57
                      A                      A                      A
 Frequencies --   1461.2740              1477.5104              1500.4783
 Red. masses --      1.2147                 1.1847                 1.0525
 Frc consts  --      1.5282                 1.5238                 1.3962
 IR Inten    --      8.9110                 4.3613                 3.0006

                     58                     59                     60
                      A                      A                      A
 Frequencies --   1510.4831              1514.2060              1519.6921
 Red. masses --      1.0494                 1.0502                 1.0491
 Frc consts  --      1.4107                 1.4188                 1.4275
 IR Inten    --      0.3862                 2.8945                 7.3824

                     61                     62                     63
                      A                      A                      A
 Frequencies --   1523.0602              1532.7732              1533.4562
 Red. masses --      1.0499                 1.0471                 1.0521
 Frc consts  --      1.4350                 1.4494                 1.4576
 IR Inten    --      5.5694                 4.4096                 2.4196

                     64                     65                     66
                      A                      A                      A
 Frequencies --   1537.3234              1552.9827              1562.4821
 Red. masses --      1.0540                 1.0537                 1.0523
 Frc consts  --      1.4677                 1.4973                 1.5136
 IR Inten    --      3.0548                10.1175                11.6643

                     67                     68                     69
                      A                      A                      A
 Frequencies --   1734.4174              3041.2336              3044.2654
 Red. masses --      4.4259                 1.0780                 1.0409
 Frc consts  --      7.8444                 5.8746                 5.6837
 IR Inten    --     10.1248                 0.1691                18.6713

                     70                     71                     72
                      A                      A                      A
 Frequencies --   3048.9280              3053.1780              3057.2146
 Red. masses --      1.0388                 1.0642                 1.0499
 Frc consts  --      5.6898                 5.8451                 5.7815
 IR Inten    --     21.9200                14.2360                19.6072

                     73                     74                     75
                      A                      A                      A
 Frequencies --   3059.9079              3061.1951              3100.8026
 Red. masses --      1.0335                 1.0469                 1.1016
 Frc consts  --      5.7015                 5.7801                 6.2408
 IR Inten    --     28.3079                51.0619                 1.4527

                     76                     77                     78
                      A                      A                      A
 Frequencies --   3108.7045              3113.8506              3119.9413
 Red. masses --      1.1010                 1.1005                 1.0984
 Frc consts  --      6.2692                 6.2867                 6.2993
 IR Inten    --     23.9756                91.0225                19.0180

                     79                     80                     81
                      A                      A                      A
 Frequencies --   3122.1055              3131.5291              3143.3244
 Red. masses --      1.1015                 1.0860                 1.1079
 Frc consts  --      6.3262                 6.2749                 6.4496
 IR Inten    --     25.4028                33.1140                10.3536

                     82                     83                     84
                      A                      A                      A
 Frequencies --   3146.4940              3154.2075              3162.2164
 Red. masses --      1.1034                 1.1028                 1.0967
 Frc consts  --      6.4365                 6.4642                 6.4612
 IR Inten    --      7.9865                27.8970                15.5050

                     85                     86                     87
                      A                      A                      A
 Frequencies --   3175.6547              3187.4365              3254.2731
 Red. masses --      1.0651                 1.0915                 1.1140
 Frc consts  --      6.3286                 6.5334                 6.9509
 IR Inten    --      8.4031                26.0330                17.8806

 - Thermochemistry -
 -------------------
 Temperature   298.150 Kelvin.  Pressure   1.00000 Atm.
 Atom     1 has atomic number  6 and mass  12.00000

 Molecular mass:   172.12857 amu.
 Principal axes and moments of inertia in atomic units:
                           1         2         3
     Eigenvalues --  1627.853912216.740172951.21836
           X            0.99995   0.00007   0.00958
           Y           -0.00024   0.99985   0.01719
           Z           -0.00958  -0.01719   0.99981
 This molecule is an asymmetric top.
 Rotational symmetry number  1.
 Warning -- assumption of classical behavior for rotation
           may cause significant error
 Rotational temperatures (Kelvin)      0.05321     0.03907     0.02935
 Rotational constants (GHZ):           1.10866     0.81414     0.61152
 Zero-point vibrational energy     739144.1 (Joules/Mol)
                                  176.65967 (Kcal/Mol)
 Warning -- explicit consideration of  22 degrees of freedom as
           vibrations may cause significant error
 Vibrational temperatures:     79.98   112.21   131.86   174.77   241.10
          (Kelvin)            281.95   298.45   338.54   362.48   370.58
                              391.64   397.43   418.69   457.26   482.27
                              507.40   555.29   576.77   611.77   644.07
                              770.78   805.88   957.01  1014.59  1074.60
                             1126.52  1218.70  1291.38  1342.34  1352.05
                             1359.61  1384.78  1400.01  1422.23  1437.71
                             1480.08  1496.88  1519.11  1532.04  1572.14
                             1575.06  1691.56  1755.09  1779.62  1816.26
                             1829.36  1927.30  1938.74  1964.61  1989.95
                             2026.73  2050.74  2055.63  2069.12  2102.45
                             2125.81  2158.85  2173.25  2178.60  2186.50
                             2191.34  2205.32  2206.30  2211.87  2234.40
                             2248.06  2495.44  4375.66  4380.02  4386.73
                             4392.84  4398.65  4402.52  4404.38  4461.36
                             4472.73  4480.14  4488.90  4492.01  4505.57
                             4522.54  4527.10  4538.20  4549.72  4569.06
                             4586.01  4682.17

 Zero-point correction=                           0.281525 (Hartree/Particle)
 Thermal correction to Energy=                    0.295841
 Thermal correction to Enthalpy=                  0.296785
 Thermal correction to Gibbs Free Energy=         0.241936
 Sum of electronic and zero-point Energies=           -791.042762
 Sum of electronic and thermal Energies=              -791.028446
 Sum of electronic and thermal Enthalpies=            -791.027502
 Sum of electronic and thermal Free Energies=         -791.082352

                     E (Thermal)             CV                S
                      KCal/Mol        Cal/Mol-Kelvin    Cal/Mol-Kelvin
 Total                  185.643             54.352            115.441
 Electronic               0.000              0.000              0.000
 Translational            0.889              2.981             41.337
 Rotational               0.889              2.981             30.744
 Vibrational            183.866             48.390             43.360
 Vibration     1          0.596              1.975              4.608
 Vibration     2          0.599              1.964              3.941
 Vibration     3          0.602              1.955              3.625
 Vibration     4          0.609              1.931              3.077
 Vibration     5          0.624              1.882              2.463
 Vibration     6          0.636              1.846              2.171
 Vibration     7          0.641              1.829              2.066
 Vibration     8          0.655              1.787              1.838
 Vibration     9          0.664              1.760              1.717
 Vibration    10          0.667              1.750              1.678
 Vibration    11          0.675              1.725              1.582
 Vibration    12          0.678              1.717              1.557
 Vibration    13          0.687              1.690              1.468
 Vibration    14          0.704              1.640              1.321
 Vibration    15          0.716              1.605              1.235
 Vibration    16          0.729              1.570              1.154
 Vibration    17          0.755              1.500              1.016
 Vibration    18          0.767              1.468              0.959
 Vibration    19          0.787              1.415              0.874
 Vibration    20          0.807              1.366              0.803
 Vibration    21          0.891              1.171              0.575
 Vibration    22          0.916              1.118              0.524

 Optimization completed.
    -- Stationary point found.
 Normal termination of Gaussian 16 at Tue Dec  8 19:28:33 2020.

 ----------------------------------------------------------------------
 # B3LYP/6-311++G(d,p) empiricaldispersion=gd3bj scf=xqc pop=npa geom=c
 heck
 ----------------------------------------------------------------------

 ---------------------------------------
 CID_146620699_JID_1127_Energie_neutraal
 ---------------------------------------
 Structure from the checkpoint file:  "JID_1127.chk"
 Charge =  0 Multiplicity = 1

 SCF Done:  E(RB3LYP) =  -791.463547257     A.U. after   14 cycles
 Normal termination of Gaussian 16 at Tue Dec  8 19:32:45 2020.

 ----------------------------------------------------------------------
 # B3LYP/6-311++G(d,p) empiricaldispersion=gd3bj scf=xqc pop=npa geom=c
 heck
 ----------------------------------------------------------------------

 -------------------------------------
 CID_146620699_JID_1127_Energie_kation
 -------------------------------------
 Structure from the checkpoint file:  "JID_1127.chk"
 Charge =  1 Multiplicity = 2

 SCF Done:  E(UB3LYP) =  -791.173782813     A.U. after   19 cycles
 Normal termination of Gaussian 16 at Tue Dec  8 19:40:40 2020.
 Gaussian 16:  ES64L-G16RevA.03 25-Dec-2016

 ----------------------------------------------------------------------
 # B3LYP/6-311++G(d,p) empiricaldispersion=gd3bj scf=xqc pop=npa geom=c
 heck
 ----------------------------------------------------------------------

 ------------------------------------
 CID_146620699_JID_1127_Energie_anion
 ------------------------------------
 Structure from the checkpoint file:  "JID_1127.chk"
 Charge = -1 Multiplicity = 2

                         Standard orientation:
 ---------------------------------------------------------------------
 Center     Atomic      Atomic             Coordinates (Angstroms)
 Number     Number       Type             X           Y           Z
 ---------------------------------------------------------------------
      1          6           0        0.385532   -2.424112    0.644031
      2          6           0        0.831066   -0.953494    0.473214
      3          6           0        2.265915   -1.012879   -0.017864
      4          6           0        2.749402   -0.679732   -1.213467
      5          6           0       -0.092228   -0.052279   -0.386978
      6          6           0       -1.637063   -0.071963   -0.103194
      7          6           0       -1.935100    0.180407    1.382177
      8          6           0       -2.335160    1.022290   -0.941741
      9          6           0       -2.275329   -1.404544   -0.562240
     10         16           0        0.565230    1.708953   -0.398828
     11          6           0        1.444095    1.910174    1.185237
     12          1           0        0.189436   -2.897441   -0.322503
     13          1           0       -0.500548   -2.520437    1.273989
     14          1           0        1.190099   -2.988177    1.129229
     15          1           0        0.855551   -0.532349    1.486015
     16          1           0        2.948645   -1.455548    0.709530
     17          1           0        3.798919   -0.831031   -1.450758
     18          1           0        2.141588   -0.226649   -1.989139
     19          1           0        0.027304   -0.353184   -1.435165
     20          1           0       -1.531244    1.148605    1.697263
     21          1           0       -3.016951    0.198655    1.557325
     22          1           0       -1.509591   -0.596498    2.026521
     23          1           0       -2.093831    0.915539   -2.007044
     24          1           0       -3.421737    0.927111   -0.836469
     25          1           0       -2.046601    2.026680   -0.629833
     26          1           0       -1.968370   -1.653995   -1.585255
     27          1           0       -2.036744   -2.252395    0.077297
     28          1           0       -3.366177   -1.301138   -0.564527
     29          1           0        0.800110    1.725123    2.048958
     30          1           0        2.337024    1.281433    1.236617
     31          1           0        1.752658    2.959230    1.204158
 ---------------------------------------------------------------------

 SCF Done:  E(UB3LYP) =  -791.447616719     A.U. after   32 cycles

 The electronic state is 2-A.
 Alpha  occ. eigenvalues --  -88.72675 -10.10466 -10.08962 -10.08580 -10.08463
 Alpha  occ. eigenvalues --  -10.07244 -10.06023 -10.05988 -10.05608 -10.05481
 Alpha  occ. eigenvalues --  -10.05296  -7.81312  -5.77730  -5.77335  -5.76657
 Alpha  occ. eigenvalues --   -0.74549  -0.70180  -0.66625  -0.63283  -0.59522
 Alpha  occ. eigenvalues --   -0.58699  -0.58017  -0.52765  -0.49719  -0.45219
 Alpha  occ. eigenvalues --   -0.42126  -0.38504  -0.36069  -0.34979  -0.34614
 Alpha  occ. eigenvalues --   -0.33487  -0.32553  -0.31575  -0.31259  -0.29668
 Alpha  occ. eigenvalues --   -0.28851  -0.28067  -0.27620  -0.26433  -0.25526
 Alpha  occ. eigenvalues --   -0.25223  -0.24031  -0.23451  -0.22362  -0.21234
 Alpha  occ. eigenvalues --   -0.18745  -0.16163  -0.11393   0.04627
 Alpha virt. eigenvalues --    0.06709   0.07442   0.07758   0.08743   0.09371
 Alpha virt. eigenvalues --    0.09462   0.09586   0.10276   0.11167   0.11423
 Alpha virt. eigenvalues --    0.11855   0.12248   0.12738   0.13106   0.13871

  Beta  occ. eigenvalues --  -88.72669 -10.10463 -10.08958 -10.08570 -10.08422
  Beta  occ. eigenvalues --  -10.07226 -10.06009 -10.05953 -10.05584 -10.05470
  Beta  occ. eigenvalues --  -10.05259  -7.81307  -5.77726  -5.77319  -5.76654
  Beta  occ. eigenvalues --   -0.74529  -0.70153  -0.66582  -0.63248  -0.59474
  Beta  occ. eigenvalues --   -0.58640  -0.57985  -0.52700  -0.49667  -0.45171
  Beta  occ. eigenvalues --   -0.42083  -0.38466  -0.36038  -0.34942  -0.34580
  Beta  occ. eigenvalues --   -0.33453  -0.32524  -0.31537  -0.31222  -0.29634
  Beta  occ. eigenvalues --   -0.28816  -0.28031  -0.27581  -0.26401  -0.25494
  Beta  occ. eigenvalues --   -0.25194  -0.23999  -0.23417  -0.22336  -0.21209
  Beta  occ. eigenvalues --   -0.18703  -0.16128  -0.11371
  Beta virt. eigenvalues --    0.06829   0.07562   0.08049   0.08317   0.09244
  Beta virt. eigenvalues --    0.09605   0.09944   0.10031   0.10658   0.11528
  Beta virt. eigenvalues --    0.11846   0.12246   0.12791   0.13019   0.13533

 Mulliken charges and spin densities:
               1          2
     1  C    1.572906  -2.266898
     2  C   -0.873313   1.135979
     3  C   -0.464684   0.226488
     4  C    1.338163  -1.837316
     5  C   -0.101767   0.043686
     6  C   -0.634854   1.490473
     7  C    0.699652  -1.371792
     8  C   -0.435258  -0.186713
     9  C    0.308760  -0.940345
    10  S   -0.323429   0.080428
    11  C    0.246660  -0.904997
    12  H    0.009584   0.150099
    13  H   -0.103863   0.241483
    14  H   -0.403868   0.559646
    15  H    0.320970  -0.171487
    16  H   -0.791858   1.000655
    17  H   -0.153124   0.300924
    18  H    0.068902   0.033908
    19  H    0.272211   0.010617
    20  H    0.179122  -0.004258
    21  H   -0.242887   0.399571
    22  H   -0.534347   0.697725
    23  H    0.012909   0.120514
    24  H    0.053437   0.091519
    25  H    0.056679   0.065049
    26  H   -0.120565   0.260378
    27  H    0.022529   0.108181
    28  H   -0.266253   0.417021
    29  H   -0.230866   0.405932
    30  H   -0.157736   0.348492
    31  H   -0.323810   0.495037
 Sum of Mulliken charges =  -1.00000   1.00000

 Dipole moment (field-independent basis, Debye):
    X=             -1.4732    Y=              2.1260    Z=             -4.4281  Tot=              5.1282
 Quadrupole moment (field-independent basis, Debye-Ang):
   XX=           -141.0896   YY=           -126.9859   ZZ=           -120.1524
   XY=             -0.0642   XZ=             -2.6892   YZ=              2.4497

 Summary of Natural Population Analysis:

                                       Natural Population
                Natural  -----------------------------------------------
    Atom  No    Charge         Core      Valence    Rydberg      Total
 -----------------------------------------------------------------------
      C    1   -0.27626      0.99964     2.27034    0.00628     3.27626
      C    2   -0.14563      0.99954     2.13162    0.01447     3.14563
      C    3   -0.07937      0.99956     2.06643    0.01339     3.07937
      C    4   -0.19431      0.99954     2.18719    0.00758     3.19431
      C    5   -0.14554      0.99950     2.13128    0.01476     3.14554
      C    6   -0.05200      0.99956     2.03887    0.01357     3.05200
      C    7   -0.28847      0.99961     2.28121    0.00765     3.28847
      C    8   -0.28729      0.99962     2.28043    0.00723     3.28729
      C    9   -0.28426      0.99962     2.27731    0.00733     3.28426
      S   10    0.08123      4.99962     2.90166    0.01748     7.91877
      C   11   -0.35258      0.99962     2.34695    0.00602     3.35258
      H   12    0.09881      0.00000     0.40005    0.00114     0.40119
      H   13    0.10076      0.00000     0.39782    0.00142     0.39924
      H   14    0.10375      0.00000     0.39492    0.00133     0.39625
      H   15    0.10792      0.00000     0.38871    0.00337     0.39208
      H   16    0.09727      0.00000     0.40091    0.00183     0.40273
      H   17    0.09400      0.00000     0.40494    0.00106     0.40600
      H   18    0.09303      0.00000     0.40555    0.00142     0.40697
      H   19    0.10209      0.00000     0.39581    0.00210     0.39791
      H   20    0.10297      0.00000     0.39574    0.00129     0.39703
      H   21    0.10077      0.00000     0.39811    0.00112     0.39923
      H   22    0.10188      0.00000     0.39660    0.00152     0.39812
      H   23    0.09670      0.00000     0.40254    0.00076     0.40330
      H   24    0.09778      0.00000     0.40141    0.00080     0.40222
      H   25    0.10902      0.00000     0.38958    0.00141     0.39098
      H   26    0.09781      0.00000     0.40124    0.00095     0.40219
      H   27    0.10347      0.00000     0.39529    0.00124     0.39653
      H   28    0.09972      0.00000     0.39927    0.00101     0.40028
      H   29    0.10287      0.00000     0.39539    0.00174     0.39713
      H   30    0.10586      0.00000     0.39244    0.00171     0.39414
      H   31    0.10802      0.00000     0.39086    0.00112     0.39198
 =======================================================================
   * Total *   -0.00000     14.99544    32.86047    0.14409    48.00000

 Normal termination of Gaussian 16 at Tue Dec  8 19:54:16 2020.
