 Gaussian 16, Revision A.03,

 -----------------------------------------------------------
 # opt freq B3LYP/6-31G(d) empiricaldispersion=gd3bj scf=xqc
 -----------------------------------------------------------

 -------------------------------
 CID_108019824_JID_4216_neutraal
 -------------------------------
 Symbolic Z-matrix:
 Charge =  0 Multiplicity = 1

 SCF Done:  E(RB3LYP) =  -669.247834244     A.U. after   16 cycles
 SCF Done:  E(RB3LYP) =  -669.268378738     A.U. after   13 cycles
 SCF Done:  E(RB3LYP) =  -669.267673188     A.U. after   14 cycles
 SCF Done:  E(RB3LYP) =  -669.267938468     A.U. after   13 cycles
 SCF Done:  E(RB3LYP) =  -669.269718094     A.U. after   10 cycles
 SCF Done:  E(RB3LYP) =  -669.269964624     A.U. after   12 cycles
 SCF Done:  E(RB3LYP) =  -669.269997272     A.U. after   12 cycles
 SCF Done:  E(RB3LYP) =  -669.270278764     A.U. after    9 cycles
 SCF Done:  E(RB3LYP) =  -669.270762867     A.U. after   12 cycles
 SCF Done:  E(RB3LYP) =  -669.270908032     A.U. after   12 cycles
 SCF Done:  E(RB3LYP) =  -669.271448771     A.U. after    9 cycles
 SCF Done:  E(RB3LYP) =  -669.271450033     A.U. after    8 cycles
 SCF Done:  E(RB3LYP) =  -669.271450160     A.U. after    7 cycles
 SCF Done:  E(RB3LYP) =  -669.271450251     A.U. after    7 cycles
 SCF Done:  E(RB3LYP) =  -669.271450306     A.U. after    7 cycles
 Optimization completed.
    -- Stationary point found.
 Normal termination of Gaussian 16 at Thu Dec 10 09:25:54 2020.

 --------------------------------------------------------------------
 #N Geom=AllCheck Guess=TCheck SCRF=Check GenChk RB3LYP/6-31G(d) Freq
 --------------------------------------------------------------------

 Structure from the checkpoint file:  "JID_4216.chk"
 -------------------------------
 CID_108019824_JID_4216_neutraal
 -------------------------------
 Charge =  0 Multiplicity = 1

 SCF Done:  E(RB3LYP) =  -669.271450306     A.U. after    1 cycles

  Exact polarizability: 120.259  -1.388 117.403  -3.331   8.607  89.440
 Approx polarizability: 164.741 -16.062 173.028  -4.264  23.409 149.112

                      1                      2                      3
                      A                      A                      A
 Frequencies --     32.7531                53.2182                64.6282
 Red. masses --      4.4959                 4.9548                 3.8782
 Frc consts  --      0.0028                 0.0083                 0.0095
 IR Inten    --      0.8511                 0.3911                 0.9157

                      4                      5                      6
                      A                      A                      A
 Frequencies --     73.2948                84.8880                98.0645
 Red. masses --      6.4129                 4.2955                 3.4576
 Frc consts  --      0.0203                 0.0182                 0.0196
 IR Inten    --      1.8387                 2.0743                 1.2003

                      7                      8                      9
                      A                      A                      A
 Frequencies --    140.2881               173.7421               187.1242
 Red. masses --      4.4530                 3.9700                 5.9168
 Frc consts  --      0.0516                 0.0706                 0.1221
 IR Inten    --      0.7704                 0.9327                 2.8504

                     10                     11                     12
                      A                      A                      A
 Frequencies --    205.4321               318.2432               343.4346
 Red. masses --      3.6821                 2.8250                 4.0520
 Frc consts  --      0.0916                 0.1686                 0.2816
 IR Inten    --      1.6734                 2.4273                 2.7579

                     13                     14                     15
                      A                      A                      A
 Frequencies --    348.9088               379.0304               408.0162
 Red. masses --      2.7062                 2.9008                 3.7737
 Frc consts  --      0.1941                 0.2455                 0.3702
 IR Inten    --      2.7906                 4.9092                 1.6685

                     16                     17                     18
                      A                      A                      A
 Frequencies --    438.0692               475.3179               512.0099
 Red. masses --      3.5720                 3.4860                 2.7026
 Frc consts  --      0.4039                 0.4640                 0.4174
 IR Inten    --      2.7101                10.1249                 2.5976

                     19                     20                     21
                      A                      A                      A
 Frequencies --    545.0902               581.8242               606.6649
 Red. masses --      2.7970                 3.2552                 1.2062
 Frc consts  --      0.4896                 0.6493                 0.2616
 IR Inten    --     34.4747                17.7745                41.5183

                     22                     23                     24
                      A                      A                      A
 Frequencies --    612.9632               623.9531               675.4436
 Red. masses --      1.3248                 2.4344                 2.0520
 Frc consts  --      0.2933                 0.5584                 0.5516
 IR Inten    --     64.5952                10.5167                44.8274

                     25                     26                     27
                      A                      A                      A
 Frequencies --    708.8803               716.6855               784.6415
 Red. masses --      2.5015                 2.7119                 1.1795
 Frc consts  --      0.7406                 0.8207                 0.4279
 IR Inten    --     47.2025                53.8277                 7.0640

                     28                     29                     30
                      A                      A                      A
 Frequencies --    819.8582               839.0990               879.5871
 Red. masses --      2.8097                 1.2693                 3.0665
 Frc consts  --      1.1127                 0.5266                 1.3978
 IR Inten    --     19.2119                 6.7236                 2.4555

                     31                     32                     33
                      A                      A                      A
 Frequencies --    937.8577               954.8377               979.7841
 Red. masses --      3.0769                 2.2749                 2.7299
 Frc consts  --      1.5945                 1.2220                 1.5440
 IR Inten    --      6.7450                 8.2160                 3.5853

                     34                     35                     36
                      A                      A                      A
 Frequencies --    991.3248               995.4265              1049.5866
 Red. masses --      2.8377                 2.6513                 2.3260
 Frc consts  --      1.6430                 1.5479                 1.5097
 IR Inten    --      6.7897                13.0150                 7.5661

                     37                     38                     39
                      A                      A                      A
 Frequencies --   1071.7332              1080.0283              1093.5303
 Red. masses --      3.0112                 1.3632                 1.3535
 Frc consts  --      2.0378                 0.9369                 0.9536
 IR Inten    --     14.3515                13.2128                 0.5551

                     40                     41                     42
                      A                      A                      A
 Frequencies --   1131.7481              1155.4851              1168.7827
 Red. masses --      1.1911                 1.9762                 2.1658
 Frc consts  --      0.8989                 1.5546                 1.7432
 IR Inten    --      2.4693                17.9397               295.1594

                     43                     44                     45
                      A                      A                      A
 Frequencies --   1206.7291              1217.7507              1224.3352
 Red. masses --      1.3609                 1.9360                 1.6072
 Frc consts  --      1.1676                 1.6915                 1.4194
 IR Inten    --      4.5394                27.4300                 9.8175

                     46                     47                     48
                      A                      A                      A
 Frequencies --   1245.8220              1278.5863              1292.3815
 Red. masses --      1.2746                 1.7958                 1.7655
 Frc consts  --      1.1655                 1.7297                 1.7374
 IR Inten    --     15.2184                12.0494                54.8852

                     49                     50                     51
                      A                      A                      A
 Frequencies --   1324.6477              1333.4157              1403.9473
 Red. masses --      1.4525                 1.4991                 1.6597
 Frc consts  --      1.5017                 1.5704                 1.9275
 IR Inten    --      7.4043                 4.5731                95.0390

                     52                     53                     54
                      A                      A                      A
 Frequencies --   1421.6029              1432.4605              1456.8677
 Red. masses --      1.7915                 1.5654                 1.9618
 Frc consts  --      2.1331                 1.8925                 2.4533
 IR Inten    --     26.2523               109.0133                83.0222

                     55                     56                     57
                      A                      A                      A
 Frequencies --   1484.0067              1493.1348              1494.5890
 Red. masses --      1.1219                 1.0912                 1.0807
 Frc consts  --      1.4558                 1.4334                 1.4223
 IR Inten    --      7.9112                 3.4454                 8.9597

                     58                     59                     60
                      A                      A                      A
 Frequencies --   1526.5586              1536.0600              1779.4084
 Red. masses --      1.1152                 1.3527                10.9085
 Frc consts  --      1.5312                 1.8804                20.3501
 IR Inten    --      9.1094                15.0933               324.5465

                     61                     62                     63
                      A                      A                      A
 Frequencies --   1846.0660              2240.4776              3040.1706
 Red. masses --      9.4692                 5.9815                 1.0692
 Frc consts  --     19.0133                17.6906                 5.8227
 IR Inten    --    215.0208                 2.7701                 7.9156

                     64                     65                     66
                      A                      A                      A
 Frequencies --   3057.6673              3070.9401              3117.2077
 Red. masses --      1.0712                 1.0728                 1.0920
 Frc consts  --      5.9005                 5.9608                 6.2518
 IR Inten    --      6.0994                13.7158                 1.5083

                     67                     68                     69
                      A                      A                      A
 Frequencies --   3132.6426              3151.7147              3160.9180
 Red. masses --      1.0873                 1.0912                 1.0548
 Frc consts  --      6.2866                 6.3862                 6.2092
 IR Inten    --     22.1034                 4.3688                10.3067

                     70                     71                     72
                      A                      A                      A
 Frequencies --   3173.4076              3182.4361              3242.8089
 Red. masses --      1.0594                 1.0913                 1.1185
 Frc consts  --      6.2861                 6.5117                 6.9296
 IR Inten    --      8.2675                14.6153                 3.0869

                     73                     74                     75
                      A                      A                      A
 Frequencies --   3261.9948              3494.7122              3680.0220
 Red. masses --      1.1151                 1.1600                 1.0639
 Frc consts  --      6.9906                 8.3468                 8.4887
 IR Inten    --     10.3939                59.7220                47.7514

 - Thermochemistry -
 -------------------
 Temperature   298.150 Kelvin.  Pressure   1.00000 Atm.
 Atom     1 has atomic number  6 and mass  12.00000

 Molecular mass:   195.08954 amu.
 Principal axes and moments of inertia in atomic units:
                           1         2         3
     Eigenvalues --  2004.138633296.795164510.20223
           X            0.99959   0.02707  -0.00928
           Y           -0.02718   0.99957  -0.01137
           Z            0.00897   0.01162   0.99989
 This molecule is an asymmetric top.
 Rotational symmetry number  1.
 Warning -- assumption of classical behavior for rotation
           may cause significant error
 Rotational temperatures (Kelvin)      0.04322     0.02627     0.01920
 Rotational constants (GHZ):           0.90051     0.54742     0.40015
 Zero-point vibrational energy     576281.7 (Joules/Mol)
                                  137.73462 (Kcal/Mol)
 Warning -- explicit consideration of  22 degrees of freedom as
           vibrations may cause significant error
 Vibrational temperatures:     47.12    76.57    92.99   105.45   122.13
          (Kelvin)            141.09   201.84   249.98   269.23   295.57
                              457.88   494.13   502.00   545.34   587.04
                              630.28   683.88   736.67   784.26   837.12
                              872.86   881.92   897.73   971.81  1019.92
                             1031.15  1128.92  1179.59  1207.28  1265.53
                             1349.37  1373.80  1409.69  1426.30  1432.20
                             1510.12  1541.99  1553.92  1573.35  1628.33
                             1662.49  1681.62  1736.21  1752.07  1761.55
                             1792.46  1839.60  1859.45  1905.87  1918.49
                             2019.97  2045.37  2060.99  2096.11  2135.15
                             2148.29  2150.38  2196.38  2210.05  2560.17
                             2656.08  3223.55  4374.13  4399.30  4418.40
                             4484.97  4507.17  4534.61  4547.86  4565.83
                             4578.82  4665.68  4693.28  5028.11  5294.73

 Zero-point correction=                           0.219494 (Hartree/Particle)
 Thermal correction to Energy=                    0.233986
 Thermal correction to Enthalpy=                  0.234930
 Thermal correction to Gibbs Free Energy=         0.176887
 Sum of electronic and zero-point Energies=           -669.051956
 Sum of electronic and thermal Energies=              -669.037464
 Sum of electronic and thermal Enthalpies=            -669.036520
 Sum of electronic and thermal Free Energies=         -669.094563

                     E (Thermal)             CV                S
                      KCal/Mol        Cal/Mol-Kelvin    Cal/Mol-Kelvin
 Total                  146.829             53.182            122.161
 Electronic               0.000              0.000              0.000
 Translational            0.889              2.981             41.710
 Rotational               0.889              2.981             31.766
 Vibrational            145.051             47.220             48.685
 Vibration     1          0.594              1.983              5.655
 Vibration     2          0.596              1.976              4.694
 Vibration     3          0.597              1.971              4.311
 Vibration     4          0.599              1.967              4.063
 Vibration     5          0.601              1.960              3.775
 Vibration     6          0.604              1.951              3.492
 Vibration     7          0.615              1.913              2.800
 Vibration     8          0.627              1.875              2.395
 Vibration     9          0.632              1.858              2.256
 Vibration    10          0.640              1.832              2.084
 Vibration    11          0.705              1.639              1.319
 Vibration    12          0.722              1.589              1.196
 Vibration    13          0.726              1.577              1.171
 Vibration    14          0.749              1.515              1.043
 Vibration    15          0.773              1.453              0.934
 Vibration    16          0.798              1.387              0.833
 Vibration    17          0.832              1.305              0.723
 Vibration    18          0.867              1.223              0.629
 Vibration    19          0.900              1.150              0.554
 Vibration    20          0.939              1.071              0.482
 Vibration    21          0.965              1.018              0.438
 Vibration    22          0.972              1.004              0.428

                           ! Non-Optimized Parameters !
 Normal termination of Gaussian 16 at Thu Dec 10 09:33:26 2020.

 ----------------------------------------------------------------------
 # B3LYP/6-311++G(d,p) empiricaldispersion=gd3bj scf=xqc pop=npa geom=c
 heck
 ----------------------------------------------------------------------

 ---------------------------------------
 CID_108019824_JID_4216_Energie_neutraal
 ---------------------------------------
 Structure from the checkpoint file:  "JID_4216.chk"
 Charge =  0 Multiplicity = 1

 SCF Done:  E(RB3LYP) =  -669.477098785     A.U. after   15 cycles
 Normal termination of Gaussian 16 at Thu Dec 10 09:37:15 2020.

 ----------------------------------------------------------------------
 # B3LYP/6-311++G(d,p) empiricaldispersion=gd3bj scf=xqc pop=npa geom=c
 heck
 ----------------------------------------------------------------------

 -------------------------------------
 CID_108019824_JID_4216_Energie_kation
 -------------------------------------
 Structure from the checkpoint file:  "JID_4216.chk"
 Charge =  1 Multiplicity = 2

 SCF Done:  E(UB3LYP) =  -669.157724418     A.U. after   26 cycles
 Normal termination of Gaussian 16 at Thu Dec 10 09:46:20 2020.
 Gaussian 16:  ES64L-G16RevA.03 25-Dec-2016

 ----------------------------------------------------------------------
 # B3LYP/6-311++G(d,p) empiricaldispersion=gd3bj scf=xqc pop=npa geom=c
 heck
 ----------------------------------------------------------------------

 ------------------------------------
 CID_108019824_JID_4216_Energie_anion
 ------------------------------------
 Structure from the checkpoint file:  "JID_4216.chk"
 Charge = -1 Multiplicity = 2

                         Standard orientation:
 ---------------------------------------------------------------------
 Center     Atomic      Atomic             Coordinates (Angstroms)
 Number     Number       Type             X           Y           Z
 ---------------------------------------------------------------------
      1          6           0       -1.933911   -2.733412   -1.092814
      2          6           0       -2.320072   -1.825675   -0.396446
      3          6           0       -2.785878   -0.717913    0.432447
      4          6           0       -1.976823    0.595403    0.302561
      5          8           0       -2.577648    1.633557    0.075115
      6          7           0       -0.606071    0.521175    0.431026
      7          6           0        0.073886   -0.600066    1.083951
      8          6           0        1.057059   -1.358563    0.182585
      9          6           0        2.453384   -0.779948    0.204257
     10          8           0        2.965013   -0.199649    1.136373
     11          8           0        3.115441   -1.026191   -0.953142
     12          6           0        0.173401    1.726494    0.284718
     13          6           0        1.223131    1.820472   -0.805906
     14          6           0       -0.040484    2.630901   -0.889539
     15          1           0       -1.603693   -3.533753   -1.714993
     16          1           0       -3.805211   -0.436859    0.153871
     17          1           0       -2.823006   -1.021775    1.487905
     18          1           0        0.623066   -0.216438    1.951850
     19          1           0       -0.672502   -1.298676    1.453925
     20          1           0        1.150126   -2.389038    0.550861
     21          1           0        0.680183   -1.427473   -0.839013
     22          1           0        4.010263   -0.654247   -0.836144
     23          1           0        0.427887    2.197885    1.233752
     24          1           0        2.160474    2.305586   -0.550641
     25          1           0        1.320814    0.986422   -1.492678
     26          1           0       -0.787258    2.332814   -1.615286
     27          1           0       -0.003248    3.699440   -0.702240
 ---------------------------------------------------------------------

 SCF Done:  E(UB3LYP) =  -669.465334629     A.U. after   33 cycles
 SCF Done:  E(UB3LYP) =  -669.465334629     a.u. after    1 cycles

 The electronic state is 2-A.
 Alpha  occ. eigenvalues --  -19.06825 -19.01527 -19.00247 -14.25814 -10.20587
 Alpha  occ. eigenvalues --  -10.19056 -10.12378 -10.11802 -10.11537 -10.08831
 Alpha  occ. eigenvalues --  -10.08643 -10.08571 -10.08433 -10.07441  -1.00941
 Alpha  occ. eigenvalues --   -0.95604  -0.92098  -0.85800  -0.76436  -0.70653
 Alpha  occ. eigenvalues --   -0.68834  -0.63066  -0.58776  -0.54960  -0.51903
 Alpha  occ. eigenvalues --   -0.49784  -0.46299  -0.44698  -0.41513  -0.41435
 Alpha  occ. eigenvalues --   -0.41027  -0.39284  -0.38599  -0.38274  -0.37001
 Alpha  occ. eigenvalues --   -0.35289  -0.33478  -0.32262  -0.31930  -0.30383
 Alpha  occ. eigenvalues --   -0.28867  -0.28358  -0.27929  -0.27278  -0.23050
 Alpha  occ. eigenvalues --   -0.22469  -0.21310  -0.20125  -0.19054  -0.18308
 Alpha  occ. eigenvalues --   -0.16768  -0.15470   0.04425
 Alpha virt. eigenvalues --    0.06205   0.07193   0.07468   0.08265   0.09239
 Alpha virt. eigenvalues --    0.09474   0.09756   0.10795   0.10892   0.11094
 Alpha virt. eigenvalues --    0.11576   0.11899   0.12878   0.13215   0.13739

  Beta  occ. eigenvalues --  -19.06768 -19.01507 -19.00244 -14.25812 -10.20558
  Beta  occ. eigenvalues --  -10.19055 -10.12375 -10.11783 -10.11507 -10.08828
  Beta  occ. eigenvalues --  -10.08610 -10.08568 -10.08419 -10.07410  -1.00856
  Beta  occ. eigenvalues --   -0.95598  -0.92030  -0.85791  -0.76426  -0.70613
  Beta  occ. eigenvalues --   -0.68774  -0.63031  -0.58687  -0.54941  -0.51869
  Beta  occ. eigenvalues --   -0.49673  -0.46267  -0.44646  -0.41480  -0.41398
  Beta  occ. eigenvalues --   -0.40987  -0.39238  -0.38558  -0.38228  -0.36897
  Beta  occ. eigenvalues --   -0.35264  -0.33461  -0.32223  -0.31891  -0.30338
  Beta  occ. eigenvalues --   -0.28818  -0.28327  -0.27893  -0.27241  -0.23002
  Beta  occ. eigenvalues --   -0.22440  -0.21290  -0.20101  -0.19012  -0.18267
  Beta  occ. eigenvalues --   -0.16745  -0.15456
  Beta virt. eigenvalues --    0.06905   0.07217   0.07813   0.08249   0.08872
  Beta virt. eigenvalues --    0.09253   0.09584   0.10026   0.10925   0.11123
  Beta virt. eigenvalues --    0.11475   0.11816   0.12052   0.13177   0.13441

 Mulliken charges and spin densities:
               1          2
     1  C   -5.386534   3.597450
     2  C    5.398808  -3.724254
     3  C    1.302051  -1.688498
     4  C   -0.251320   0.102230
     5  O   -0.293188   0.008288
     6  N    0.178018   0.057877
     7  C   -0.400127   0.164850
     8  C    0.718461  -0.971847
     9  C    0.129086  -0.551661
    10  O   -0.260043   0.050171
    11  O   -0.150930   0.072911
    12  C   -0.166160   0.215368
    13  C    0.070025  -0.349466
    14  C   -0.511699   0.050502
    15  H   -1.282193   1.437443
    16  H    0.238899  -0.026958
    17  H   -0.474990   0.708829
    18  H    0.082008   0.136406
    19  H    0.164209  -0.040264
    20  H   -0.746626   0.964226
    21  H    0.592251  -0.340616
    22  H   -0.519916   0.827222
    23  H    0.156062   0.063937
    24  H    0.064203   0.105777
    25  H    0.109832   0.060251
    26  H    0.127308   0.042812
    27  H    0.112504   0.027013
 Sum of Mulliken charges =  -1.00000   1.00000

 Dipole moment (field-independent basis, Debye):
    X=             -2.8315    Y=              6.4441    Z=              0.3902  Tot=              7.0495
 Quadrupole moment (field-independent basis, Debye-Ang):
   XX=           -152.9985   YY=           -136.0789   ZZ=           -113.5890
   XY=              4.2429   XZ=              3.4814   YZ=             -1.5192

 Summary of Natural Population Analysis:

                                       Natural Population
                Natural  -----------------------------------------------
    Atom  No    Charge         Core      Valence    Rydberg      Total
 -----------------------------------------------------------------------
      C    1   -0.10982      0.99924     2.10650    0.00408     3.10982
      C    2   -0.00936      0.99937     2.00153    0.00847     3.00936
      C    3   -0.27324      0.99953     2.26336    0.01034     3.27324
      C    4    0.35797      0.99965     1.61912    0.02326     2.64203
      O    5   -0.31756      0.99987     3.31209    0.00560     4.31756
      N    6   -0.25838      0.99962     2.74738    0.01138     3.75838
      C    7   -0.08416      0.99959     2.07265    0.01193     3.08416
      C    8   -0.24833      0.99956     2.23819    0.01058     3.24833
      C    9    0.41143      0.99972     1.56355    0.02530     2.58857
      O   10   -0.31199      0.99987     3.30608    0.00604     4.31199
      O   11   -0.34403      0.99988     3.33709    0.00706     4.34403
      C   12   -0.01171      0.99956     2.00133    0.01082     3.01171
      C   13   -0.20470      0.99962     2.19599    0.00909     3.20470
      C   14   -0.19056      0.99961     2.18236    0.00859     3.19056
      H   15    0.11562      0.00000     0.38192    0.00245     0.38438
      H   16    0.12626      0.00000     0.37258    0.00116     0.37374
      H   17    0.12386      0.00000     0.37408    0.00206     0.37614
      H   18    0.10570      0.00000     0.39284    0.00146     0.39430
      H   19    0.10771      0.00000     0.39023    0.00206     0.39229
      H   20    0.12619      0.00000     0.36998    0.00383     0.37381
      H   21    0.11736      0.00000     0.38069    0.00195     0.38264
      H   22    0.24422      0.00000     0.23578    0.02001     0.25578
      H   23    0.09881      0.00000     0.40011    0.00108     0.40119
      H   24    0.10610      0.00000     0.39296    0.00095     0.39390
      H   25    0.10947      0.00000     0.38905    0.00147     0.39053
      H   26    0.11140      0.00000     0.38766    0.00094     0.38860
      H   27    0.10173      0.00000     0.39749    0.00078     0.39827
 =======================================================================
   * Total *    0.00000     13.99468    37.81259    0.19273    52.00000

 Normal termination of Gaussian 16 at Thu Dec 10 09:56:58 2020.
