 Gaussian 16, Revision A.03,

 -----------------------------------------------------------
 # opt freq B3LYP/6-31G(d) empiricaldispersion=gd3bj scf=xqc
 -----------------------------------------------------------

 -------------------------------
 CID_127009247_JID_1178_neutraal
 -------------------------------
 Symbolic Z-matrix:
 Charge =  0 Multiplicity = 1

 SCF Done:  E(RB3LYP) =  -892.706264128     A.U. after   16 cycles
 SCF Done:  E(RB3LYP) =  -892.736407744     A.U. after   14 cycles
 SCF Done:  E(RB3LYP) =  -892.739473288     A.U. after   13 cycles
 SCF Done:  E(RB3LYP) =  -892.739579507     A.U. after   13 cycles
 SCF Done:  E(RB3LYP) =  -892.740889158     A.U. after   13 cycles
 SCF Done:  E(RB3LYP) =  -892.741738166     A.U. after   12 cycles
 SCF Done:  E(RB3LYP) =  -892.741914770     A.U. after   12 cycles
 SCF Done:  E(RB3LYP) =  -892.742051507     A.U. after   12 cycles
 SCF Done:  E(RB3LYP) =  -892.742163480     A.U. after   12 cycles
 SCF Done:  E(RB3LYP) =  -892.742556122     A.U. after   15 cycles
 SCF Done:  E(RB3LYP) =  -892.748079123     A.U. after   10 cycles
 SCF Done:  E(RB3LYP) =  -892.748079288     A.U. after    8 cycles
 SCF Done:  E(RB3LYP) =  -892.748079228     A.U. after    8 cycles
 SCF Done:  E(RB3LYP) =  -892.748079840     A.U. after    9 cycles
 SCF Done:  E(RB3LYP) =  -892.748079899     A.U. after    8 cycles
 SCF Done:  E(RB3LYP) =  -892.748079916     A.U. after    7 cycles
 Optimization completed.
    -- Stationary point found.
 Normal termination of Gaussian 16 at Tue Dec  8 19:30:16 2020.

 --------------------------------------------------------------------
 #N Geom=AllCheck Guess=TCheck SCRF=Check GenChk RB3LYP/6-31G(d) Freq
 --------------------------------------------------------------------

 Structure from the checkpoint file:  "JID_1178.chk"
 -------------------------------
 CID_127009247_JID_1178_neutraal
 -------------------------------
 Charge =  0 Multiplicity = 1

 SCF Done:  E(RB3LYP) =  -892.748079916     A.U. after    1 cycles

  Exact polarizability: 105.461  -0.004 102.614  -0.800   1.446  74.260
 Approx polarizability: 142.081  -8.351 168.426   3.083   1.911 117.522

                      1                      2                      3
                      A                      A                      A
 Frequencies --     28.1420                54.7705                67.9953
 Red. masses --      5.2041                 5.5176                 5.6316
 Frc consts  --      0.0024                 0.0098                 0.0153
 IR Inten    --      6.7927                 7.9905                 3.0196

                      4                      5                      6
                      A                      A                      A
 Frequencies --     97.8491               130.6028               165.1242
 Red. masses --      2.1572                 3.0844                 2.6681
 Frc consts  --      0.0122                 0.0310                 0.0429
 IR Inten    --      2.7629                 4.7196                 1.3311

                      7                      8                      9
                      A                      A                      A
 Frequencies --    182.5903               206.5252               238.0838
 Red. masses --      1.5888                 3.4900                 1.3834
 Frc consts  --      0.0312                 0.0877                 0.0462
 IR Inten    --      1.4162                 0.3156                 2.2460

                     10                     11                     12
                      A                      A                      A
 Frequencies --    276.1117               293.1756               337.2740
 Red. masses --      2.0981                 3.4279                 5.2666
 Frc consts  --      0.0942                 0.1736                 0.3530
 IR Inten    --      2.3529                 7.6599                 3.8083

                     13                     14                     15
                      A                      A                      A
 Frequencies --    370.4664               376.0280               406.8499
 Red. masses --      3.3203                 5.2059                 4.2146
 Frc consts  --      0.2685                 0.4337                 0.4110
 IR Inten    --      1.7638                23.3608                 8.3130

                     16                     17                     18
                      A                      A                      A
 Frequencies --    447.1428               503.3614               586.3238
 Red. masses --      5.5129                 8.1249                 4.5722
 Frc consts  --      0.6494                 1.2129                 0.9261
 IR Inten    --     21.4132                 4.5932                 9.8097

                     19                     20                     21
                      A                      A                      A
 Frequencies --    629.1161               722.0777               740.6952
 Red. masses --      4.2357                 3.6048                 3.8764
 Frc consts  --      0.9877                 1.1074                 1.2530
 IR Inten    --      3.1117                19.8960                11.9260

                     22                     23                     24
                      A                      A                      A
 Frequencies --    778.7179               837.7597               952.9447
 Red. masses --      1.7646                 3.3750                 2.4525
 Frc consts  --      0.6304                 1.3956                 1.3122
 IR Inten    --     12.1708               113.0151                 6.5683

                     25                     26                     27
                      A                      A                      A
 Frequencies --    968.4257               975.3167               990.7025
 Red. masses --      1.7903                 3.3824                 1.3740
 Frc consts  --      0.9893                 1.8957                 0.7945
 IR Inten    --      1.4236                12.1507                 4.5872

                     28                     29                     30
                      A                      A                      A
 Frequencies --    993.0429              1051.5896              1091.8877
 Red. masses --      1.9395                 2.9374                 2.0127
 Frc consts  --      1.1269                 1.9139                 1.4138
 IR Inten    --      5.1133                69.8947                 3.2837

                     31                     32                     33
                      A                      A                      A
 Frequencies --   1104.8681              1212.7855              1219.0226
 Red. masses --      1.4495                 4.0934                 1.4117
 Frc consts  --      1.0425                 3.5473                 1.2360
 IR Inten    --     59.1357               119.1968               106.1378

                     34                     35                     36
                      A                      A                      A
 Frequencies --   1281.1929              1305.7546              1319.2047
 Red. masses --      1.2650                 2.9453                 1.7401
 Frc consts  --      1.2234                 2.9587                 1.7842
 IR Inten    --     62.6738               379.1002               122.8123

                     37                     38                     39
                      A                      A                      A
 Frequencies --   1335.5854              1364.8421              1440.9953
 Red. masses --      1.4043                 1.2700                 1.2046
 Frc consts  --      1.4759                 1.3939                 1.4738
 IR Inten    --      4.3547                34.3805                 5.2098

                     40                     41                     42
                      A                      A                      A
 Frequencies --   1469.6478              1474.9966              1484.0842
 Red. masses --      1.0548                 1.0884                 1.0839
 Frc consts  --      1.3422                 1.3952                 1.4066
 IR Inten    --     15.8811                 5.5286                 1.2178

                     43                     44                     45
                      A                      A                      A
 Frequencies --   1492.8635              1524.3584              1537.6999
 Red. masses --      1.0572                 1.0379                 1.0488
 Frc consts  --      1.3881                 1.4210                 1.4611
 IR Inten    --     19.4468                 8.2115                 9.5254

                     46                     47                     48
                      A                      A                      A
 Frequencies --   1751.1435              2371.8468              3068.6941
 Red. masses --     11.2035                12.6012                 1.0644
 Frc consts  --     20.2416                41.7672                 5.9056
 IR Inten    --    315.7644                12.5168                 1.3383

                     49                     50                     51
                      A                      A                      A
 Frequencies --   3069.4439              3087.7040              3092.8461
 Red. masses --      1.0365                 1.0591                 1.0296
 Frc consts  --      5.7537                 5.9489                 5.8025
 IR Inten    --     14.8684                 4.0802                 3.9723

                     52                     53                     54
                      A                      A                      A
 Frequencies --   3130.7986              3134.6953              3144.8653
 Red. masses --      1.1031                 1.0975                 1.1050
 Frc consts  --      6.3705                 6.3541                 6.4392
 IR Inten    --     14.3620                 0.6789                 2.5267

                     55                     56                     57
                      A                      A                      A
 Frequencies --   3167.8304              3194.7774              3216.9554
 Red. masses --      1.1036                 1.1082                 1.1059
 Frc consts  --      6.5252                 6.6642                 6.7433
 IR Inten    --      2.2118                 0.8071                 6.5627

 - Thermochemistry -
 -------------------
 Temperature   298.150 Kelvin.  Pressure   1.00000 Atm.
 Atom     1 has atomic number  6 and mass  12.00000

 Molecular mass:   174.04630 amu.
 Principal axes and moments of inertia in atomic units:
                           1         2         3
     Eigenvalues --  1360.253922424.394483227.01311
           X            0.99792   0.06134  -0.01990
           Y           -0.06128   0.99811   0.00337
           Z            0.02007  -0.00214   0.99980
 This molecule is an asymmetric top.
 Rotational symmetry number  1.
 Warning -- assumption of classical behavior for rotation
           may cause significant error
 Rotational temperatures (Kelvin)      0.06367     0.03573     0.02684
 Rotational constants (GHZ):           1.32677     0.74441     0.55926
 Zero-point vibrational energy     427666.1 (Joules/Mol)
                                  102.21466 (Kcal/Mol)
 Warning -- explicit consideration of  18 degrees of freedom as
           vibrations may cause significant error
 Vibrational temperatures:     40.49    78.80    97.83   140.78   187.91
          (Kelvin)            237.58   262.71   297.14   342.55   397.26
                              421.81   485.26   533.02   541.02   585.37
                              643.34   724.22   843.59   905.16  1038.91
                             1065.70  1120.40  1205.35  1371.07  1393.35
                             1403.26  1425.40  1428.77  1513.00  1570.98
                             1589.66  1744.93  1753.90  1843.35  1878.69
                             1898.04  1921.61  1963.70  2073.27  2114.50
                             2122.19  2135.27  2147.90  2193.21  2212.41
                             2519.50  3412.56  4415.17  4416.25  4442.52
                             4449.92  4504.52  4510.13  4524.76  4557.80
                             4596.57  4628.48

 Zero-point correction=                           0.162889 (Hartree/Particle)
 Thermal correction to Energy=                    0.175692
 Thermal correction to Enthalpy=                  0.176636
 Thermal correction to Gibbs Free Energy=         0.122646
 Sum of electronic and zero-point Energies=           -892.585190
 Sum of electronic and thermal Energies=              -892.572388
 Sum of electronic and thermal Enthalpies=            -892.571444
 Sum of electronic and thermal Free Energies=         -892.625434

                     E (Thermal)             CV                S
                      KCal/Mol        Cal/Mol-Kelvin    Cal/Mol-Kelvin
 Total                  110.248             44.672            113.632
 Electronic               0.000              0.000              0.000
 Translational            0.889              2.981             41.370
 Rotational               0.889              2.981             30.743
 Vibrational            108.471             38.711             41.519
 Vibration     1          0.593              1.984              5.956
 Vibration     2          0.596              1.976              4.637
 Vibration     3          0.598              1.969              4.211
 Vibration     4          0.603              1.951              3.497
 Vibration     5          0.612              1.923              2.937
 Vibration     6          0.624              1.885              2.490
 Vibration     7          0.630              1.863              2.302
 Vibration     8          0.641              1.831              2.074
 Vibration     9          0.656              1.782              1.817
 Vibration    10          0.678              1.718              1.558
 Vibration    11          0.688              1.686              1.456
 Vibration    12          0.718              1.601              1.225
 Vibration    13          0.742              1.533              1.078
 Vibration    14          0.747              1.521              1.055
 Vibration    15          0.772              1.455              0.938
 Vibration    16          0.806              1.367              0.804
 Vibration    17          0.859              1.243              0.650
 Vibration    18          0.943              1.061              0.474

 Optimization completed.
    -- Stationary point found.
 Normal termination of Gaussian 16 at Tue Dec  8 19:34:22 2020.

 ----------------------------------------------------------------------
 # B3LYP/6-311++G(d,p) empiricaldispersion=gd3bj scf=xqc pop=npa geom=c
 heck
 ----------------------------------------------------------------------

 ---------------------------------------
 CID_127009247_JID_1178_Energie_neutraal
 ---------------------------------------
 Structure from the checkpoint file:  "JID_1178.chk"
 Charge =  0 Multiplicity = 1

 SCF Done:  E(RB3LYP) =  -892.922642100     A.U. after   15 cycles
 Normal termination of Gaussian 16 at Tue Dec  8 19:36:16 2020.

 ----------------------------------------------------------------------
 # B3LYP/6-311++G(d,p) empiricaldispersion=gd3bj scf=xqc pop=npa geom=c
 heck
 ----------------------------------------------------------------------

 -------------------------------------
 CID_127009247_JID_1178_Energie_kation
 -------------------------------------
 Structure from the checkpoint file:  "JID_1178.chk"
 Charge =  1 Multiplicity = 2

 SCF Done:  E(UB3LYP) =  -892.571648195     A.U. after   31 cycles
 Normal termination of Gaussian 16 at Tue Dec  8 19:41:52 2020.
 Gaussian 16:  ES64L-G16RevA.03 25-Dec-2016

 ----------------------------------------------------------------------
 # B3LYP/6-311++G(d,p) empiricaldispersion=gd3bj scf=xqc pop=npa geom=c
 heck
 ----------------------------------------------------------------------

 ------------------------------------
 CID_127009247_JID_1178_Energie_anion
 ------------------------------------
 Structure from the checkpoint file:  "JID_1178.chk"
 Charge = -1 Multiplicity = 2

                         Standard orientation:
 ---------------------------------------------------------------------
 Center     Atomic      Atomic             Coordinates (Angstroms)
 Number     Number       Type             X           Y           Z
 ---------------------------------------------------------------------
      1          6           0       -1.090292   -2.447423    0.395769
      2          6           0       -1.838100   -1.425543   -0.452941
      3         16           0       -1.274329    0.281759   -0.237504
      4          7           0        0.287588    0.106831   -0.484547
      5          6           0        1.134300    1.080824   -0.024815
      6          8           0        0.854351    2.129504    0.542666
      7          6           0        2.608262    0.724558   -0.312505
      8          6           0        2.907406   -0.686175   -0.073382
      9          7           0        3.127104   -1.805610    0.140508
     10          8           0       -2.085126    1.171689   -1.091573
     11          6           0       -1.616195    0.672858    1.499477
     12          1           0       -0.015091   -2.387174    0.212279
     13          1           0       -1.438171   -3.450712    0.130036
     14          1           0       -1.277100   -2.305045    1.464697
     15          1           0       -1.687844   -1.594968   -1.523553
     16          1           0       -2.914744   -1.397383   -0.257694
     17          1           0        2.817422    0.963016   -1.362967
     18          1           0        3.241808    1.361948    0.309755
     19          1           0       -2.697197    0.620478    1.642802
     20          1           0       -1.088510   -0.034560    2.140887
     21          1           0       -1.240230    1.683584    1.653728
 ---------------------------------------------------------------------

 SCF Done:  E(UB3LYP) =  -892.916593553     A.U. after   30 cycles

 The electronic state is 2-A.
 Alpha  occ. eigenvalues --  -88.93858 -19.01834 -19.00387 -14.22183 -14.20994
 Alpha  occ. eigenvalues --  -10.18700 -10.13195 -10.12420 -10.11423 -10.10279
 Alpha  occ. eigenvalues --  -10.06886  -8.00685  -5.96916  -5.96814  -5.96740
 Alpha  occ. eigenvalues --   -0.98213  -0.94754  -0.82632  -0.81722  -0.72197
 Alpha  occ. eigenvalues --   -0.69067  -0.65935  -0.58811  -0.53584  -0.46086
 Alpha  occ. eigenvalues --   -0.43876  -0.40833  -0.39242  -0.38436  -0.36466
 Alpha  occ. eigenvalues --   -0.35562  -0.35210  -0.34227  -0.32180  -0.31384
 Alpha  occ. eigenvalues --   -0.29531  -0.28249  -0.27778  -0.26976  -0.25403
 Alpha  occ. eigenvalues --   -0.24546  -0.24038  -0.20637  -0.19904  -0.17583
 Alpha  occ. eigenvalues --   -0.16401   0.04448
 Alpha virt. eigenvalues --    0.06779   0.07686   0.08047   0.09253   0.09751
 Alpha virt. eigenvalues --    0.10178   0.11051   0.11624   0.11662   0.12439
 Alpha virt. eigenvalues --    0.13177   0.13500   0.14012   0.14938   0.15504

  Beta  occ. eigenvalues --  -88.93842 -19.01822 -19.00334 -14.22177 -14.21005
  Beta  occ. eigenvalues --  -10.18595 -10.13197 -10.12410 -10.11386 -10.10166
  Beta  occ. eigenvalues --  -10.06822  -8.00667  -5.96898  -5.96775  -5.96730
  Beta  occ. eigenvalues --   -0.98160  -0.94642  -0.82572  -0.81695  -0.72087
  Beta  occ. eigenvalues --   -0.69016  -0.65789  -0.58673  -0.53435  -0.45978
  Beta  occ. eigenvalues --   -0.43815  -0.40754  -0.39151  -0.38358  -0.36359
  Beta  occ. eigenvalues --   -0.35478  -0.35146  -0.34120  -0.32072  -0.31283
  Beta  occ. eigenvalues --   -0.29256  -0.28185  -0.27743  -0.26905  -0.25363
  Beta  occ. eigenvalues --   -0.24500  -0.24020  -0.20595  -0.19855  -0.17491
  Beta  occ. eigenvalues --   -0.16362
  Beta virt. eigenvalues --    0.06849   0.07612   0.08466   0.09149   0.09978
  Beta virt. eigenvalues --    0.10150   0.10972   0.11234   0.11765   0.12262
  Beta virt. eigenvalues --    0.12749   0.13477   0.13776   0.14339   0.15189

 Mulliken charges and spin densities:
               1          2
     1  C    1.128500  -1.588136
     2  C   -0.620338   0.403495
     3  S    0.080420  -0.229671
     4  N    0.116627   0.025127
     5  C    0.068665   0.003524
     6  O   -0.311168   0.031464
     7  C   -0.277866  -0.085176
     8  C    0.171090  -0.103933
     9  N   -0.309097  -0.005866
    10  O   -0.133777   0.042513
    11  C    0.772756  -1.243961
    12  H    0.245308  -0.072908
    13  H   -0.703655   0.881102
    14  H   -0.455097   0.607347
    15  H   -0.071842   0.318867
    16  H   -0.325729   0.564631
    17  H    0.204947  -0.005172
    18  H    0.132476   0.055007
    19  H   -0.760559   0.999495
    20  H   -0.086096   0.290533
    21  H    0.134433   0.111718
 Sum of Mulliken charges =  -1.00000   1.00000

 Dipole moment (field-independent basis, Debye):
    X=              6.5756    Y=              4.3811    Z=             -3.4979  Tot=              8.6411
 Quadrupole moment (field-independent basis, Debye-Ang):
   XX=           -127.1910   YY=           -124.5003   ZZ=           -102.9001
   XY=              0.4500   XZ=              4.9252   YZ=              1.9807

 Summary of Natural Population Analysis:

                                       Natural Population
                Natural  -----------------------------------------------
    Atom  No    Charge         Core      Valence    Rydberg      Total
 -----------------------------------------------------------------------
      C    1   -0.29776      0.99965     2.29066    0.00745     3.29776
      C    2   -0.27114      0.99961     2.25902    0.01251     3.27114
      S    3    0.95692      4.99912     1.96557    0.07838     7.04308
      N    4   -0.47183      0.99969     2.96243    0.00970     3.97183
      C    5    0.34837      0.99971     1.62556    0.02637     2.65163
      O    6   -0.31695      0.99987     3.31122    0.00586     4.31695
      C    7   -0.28021      0.99951     2.27362    0.00708     3.28021
      C    8    0.16242      0.99967     1.82139    0.01653     2.83758
      N    9   -0.18357      0.99979     2.67233    0.01145     3.68357
      O   10   -0.45982      0.99991     3.45470    0.00520     4.45982
      C   11   -0.38049      0.99961     2.37337    0.00750     3.38049
      H   12    0.11481      0.00000     0.38379    0.00140     0.38519
      H   13    0.11150      0.00000     0.38576    0.00274     0.38850
      H   14    0.10465      0.00000     0.39262    0.00273     0.39535
      H   15    0.11800      0.00000     0.38075    0.00125     0.38200
      H   16    0.11979      0.00000     0.37648    0.00373     0.38021
      H   17    0.12637      0.00000     0.37261    0.00101     0.37363
      H   18    0.12497      0.00000     0.37391    0.00112     0.37503
      H   19    0.12435      0.00000     0.37130    0.00435     0.37565
      H   20    0.11770      0.00000     0.38061    0.00169     0.38230
      H   21    0.13191      0.00000     0.36702    0.00107     0.36809
 =======================================================================
   * Total *    0.00000     14.99613    30.79474    0.20913    46.00000

 Normal termination of Gaussian 16 at Tue Dec  8 19:47:35 2020.
