 Gaussian 16, Revision A.03,

 -----------------------------------------------------------
 # opt freq B3LYP/6-31G(d) empiricaldispersion=gd3bj scf=xqc
 -----------------------------------------------------------

 -------------------------------
 CID_103560819_JID_6150_neutraal
 -------------------------------
 Symbolic Z-matrix:
 Charge =  0 Multiplicity = 1

 SCF Done:  E(RB3LYP) =  -640.245363750     A.U. after   14 cycles
 SCF Done:  E(RB3LYP) =  -640.255251619     A.U. after   11 cycles
 SCF Done:  E(RB3LYP) =  -640.255742165     A.U. after   11 cycles
 SCF Done:  E(RB3LYP) =  -640.255787862     A.U. after   12 cycles
 SCF Done:  E(RB3LYP) =  -640.256053390     A.U. after   11 cycles
 SCF Done:  E(RB3LYP) =  -640.256201152     A.U. after   11 cycles
 SCF Done:  E(RB3LYP) =  -640.256241993     A.U. after   12 cycles
 SCF Done:  E(RB3LYP) =  -640.256288885     A.U. after   10 cycles
 SCF Done:  E(RB3LYP) =  -640.256304045     A.U. after    9 cycles
 SCF Done:  E(RB3LYP) =  -640.256313437     A.U. after   10 cycles
 SCF Done:  E(RB3LYP) =  -640.256319739     A.U. after    8 cycles
 SCF Done:  E(RB3LYP) =  -640.256319878     A.U. after    7 cycles
 SCF Done:  E(RB3LYP) =  -640.256319971     A.U. after    7 cycles
 SCF Done:  E(RB3LYP) =  -640.256320023     A.U. after    7 cycles
 SCF Done:  E(RB3LYP) =  -640.256320039     A.U. after    6 cycles
 Optimization completed.
    -- Stationary point found.
 Normal termination of Gaussian 16 at Thu Dec 10 21:15:20 2020.

 --------------------------------------------------------------------
 #N Geom=AllCheck Guess=TCheck SCRF=Check GenChk RB3LYP/6-31G(d) Freq
 --------------------------------------------------------------------

 Structure from the checkpoint file:  "JID_6150.chk"
 -------------------------------
 CID_103560819_JID_6150_neutraal
 -------------------------------
 Charge =  0 Multiplicity = 1

 SCF Done:  E(RB3LYP) =  -640.256320039     A.U. after    1 cycles

  Exact polarizability: 217.360  10.713 164.763   8.775  -1.093 112.463
 Approx polarizability: 279.764  17.905 261.413  19.751  -0.728 163.827

                      1                      2                      3
                      A                      A                      A
 Frequencies --     24.5168                29.0362                38.9335
 Red. masses --      2.8951                 3.4853                 2.7438
 Frc consts  --      0.0010                 0.0017                 0.0025
 IR Inten    --      0.0875                 0.3652                 0.2684

                      4                      5                      6
                      A                      A                      A
 Frequencies --     65.7710                79.2431               123.8586
 Red. masses --      3.1395                 3.1160                 3.4864
 Frc consts  --      0.0080                 0.0115                 0.0315
 IR Inten    --      0.1139                 0.4929                 0.5728

                      7                      8                      9
                      A                      A                      A
 Frequencies --    143.6579               196.9394               213.0401
 Red. masses --      3.2264                 2.5471                 1.5209
 Frc consts  --      0.0392                 0.0582                 0.0407
 IR Inten    --      0.2447                 0.0924                 0.5958

                     10                     11                     12
                      A                      A                      A
 Frequencies --    233.0815               236.6812               246.7582
 Red. masses --      1.2023                 1.9059                 1.4036
 Frc consts  --      0.0385                 0.0629                 0.0504
 IR Inten    --      0.0760                 0.1949                 0.0967

                     13                     14                     15
                      A                      A                      A
 Frequencies --    271.8805               313.7258               351.6707
 Red. masses --      1.6296                 2.5571                 2.0867
 Frc consts  --      0.0710                 0.1483                 0.1521
 IR Inten    --      0.7580                 1.1537                 1.8623

                     16                     17                     18
                      A                      A                      A
 Frequencies --    360.0178               375.4948               393.1302
 Red. masses --      3.5447                 2.7050                 2.4088
 Frc consts  --      0.2707                 0.2247                 0.2193
 IR Inten    --      5.3493                 1.0730                 7.3948

                     19                     20                     21
                      A                      A                      A
 Frequencies --    422.1307               441.3304               447.0356
 Red. masses --      3.2283                 1.6876                 2.0972
 Frc consts  --      0.3389                 0.1937                 0.2469
 IR Inten    --      0.1477                36.7038                54.9471

                     22                     23                     24
                      A                      A                      A
 Frequencies --    459.7005               476.9413               558.3504
 Red. masses --      2.7276                 3.2385                 2.2854
 Frc consts  --      0.3396                 0.4340                 0.4198
 IR Inten    --      1.0986                 6.7786                 6.9152

                     25                     26                     27
                      A                      A                      A
 Frequencies --    589.5611               649.3872               685.4783
 Red. masses --      2.2485                 5.2005                 3.2663
 Frc consts  --      0.4605                 1.2921                 0.9042
 IR Inten    --      5.3776                 1.6766                 1.9752

                     28                     29                     30
                      A                      A                      A
 Frequencies --    739.4026               747.4564               777.7553
 Red. masses --      3.8499                 3.0972                 2.6331
 Frc consts  --      1.2401                 1.0195                 0.9384
 IR Inten    --      1.1333                 6.5013                 0.1510

                     31                     32                     33
                      A                      A                      A
 Frequencies --    798.6583               817.4671               825.5393
 Red. masses --      1.1810                 1.2475                 1.4114
 Frc consts  --      0.4438                 0.4912                 0.5667
 IR Inten    --      1.3571                 1.2678                22.5593

                     34                     35                     36
                      A                      A                      A
 Frequencies --    836.1955               847.2325               888.7904
 Red. masses --      1.4449                 4.0437                 2.4307
 Frc consts  --      0.5953                 1.7102                 1.1313
 IR Inten    --     16.8733                 0.7725                 0.9617

                     37                     38                     39
                      A                      A                      A
 Frequencies --    939.0324               940.2391               941.5481
 Red. masses --      1.6392                 1.3139                 1.9547
 Frc consts  --      0.8516                 0.6844                 1.0210
 IR Inten    --      1.7573                 0.3601                 0.4320

                     40                     41                     42
                      A                      A                      A
 Frequencies --    946.1700               949.0201               978.7958
 Red. masses --      1.2936                 1.7520                 1.4454
 Frc consts  --      0.6823                 0.9297                 0.8159
 IR Inten    --      0.1640                 0.6850                 0.9562

                     43                     44                     45
                      A                      A                      A
 Frequencies --    980.2626              1007.3269              1034.2264
 Red. masses --      2.3043                 1.3917                 2.7325
 Frc consts  --      1.3046                 0.8320                 1.7220
 IR Inten    --      1.3074                 6.4290                 0.4441

                     46                     47                     48
                      A                      A                      A
 Frequencies --   1042.7661              1048.3696              1071.9258
 Red. masses --      1.6837                 2.9217                 2.1658
 Frc consts  --      1.0786                 1.8920                 1.4662
 IR Inten    --      0.3632                 8.0534                 9.2004

                     49                     50                     51
                      A                      A                      A
 Frequencies --   1079.6790              1094.8179              1155.3663
 Red. masses --      1.4892                 1.8858                 1.9371
 Frc consts  --      1.0228                 1.3318                 1.5235
 IR Inten    --      0.5293                10.4997                 4.4309

                     52                     53                     54
                      A                      A                      A
 Frequencies --   1163.2305              1172.6343              1176.8967
 Red. masses --      2.1218                 1.6071                 1.9728
 Frc consts  --      1.6915                 1.3020                 1.6100
 IR Inten    --      0.3896                11.4606                12.0207

                     55                     56                     57
                      A                      A                      A
 Frequencies --   1208.1755              1223.4034              1238.7686
 Red. masses --      1.6539                 1.1523                 1.3807
 Frc consts  --      1.4224                 1.0162                 1.2483
 IR Inten    --      8.0120                15.2045                 0.2907

                     58                     59                     60
                      A                      A                      A
 Frequencies --   1248.1449              1251.1893              1270.2634
 Red. masses --      2.2959                 1.7621                 1.1512
 Frc consts  --      2.1073                 1.6253                 1.0944
 IR Inten    --      0.7791                 1.7664                 0.1579

                     61                     62                     63
                      A                      A                      A
 Frequencies --   1278.2911              1287.6330              1306.1116
 Red. masses --      1.5522                 1.4182                 1.3501
 Frc consts  --      1.4944                 1.3854                 1.3570
 IR Inten    --     12.0078                 0.4927                 0.5064

                     64                     65                     66
                      A                      A                      A
 Frequencies --   1314.2295              1334.5377              1355.3643
 Red. masses --      2.0792                 1.3924                 1.8716
 Frc consts  --      2.1159                 1.4611                 2.0257
 IR Inten    --     53.6497                 6.7617               169.3262

                     67                     68                     69
                      A                      A                      A
 Frequencies --   1369.2212              1374.3657              1375.7421
 Red. masses --      1.3779                 1.7083                 1.9627
 Frc consts  --      1.5220                 1.9012                 2.1887
 IR Inten    --      2.8486                14.1086                69.5435

                     70                     71                     72
                      A                      A                      A
 Frequencies --   1411.5723              1428.7616              1433.4208
 Red. masses --      1.5299                 1.2622                 1.5474
 Frc consts  --      1.7961                 1.5180                 1.8733
 IR Inten    --      0.0076                 5.8261                16.1420

                     73                     74                     75
                      A                      A                      A
 Frequencies --   1434.7494              1447.8101              1475.4147
 Red. masses --      1.2513                 1.2393                 1.9895
 Frc consts  --      1.5176                 1.5306                 2.5517
 IR Inten    --      2.2014                 2.8204                 3.5657

                     76                     77                     78
                      A                      A                      A
 Frequencies --   1512.7590              1516.3899              1518.6545
 Red. masses --      1.0898                 1.0658                 1.0472
 Frc consts  --      1.4694                 1.4439                 1.4230
 IR Inten    --      2.9668                 0.6286                 0.0627

                     79                     80                     81
                      A                      A                      A
 Frequencies --   1522.8156              1525.5165              1534.5398
 Red. masses --      1.0483                 1.0416                 1.0734
 Frc consts  --      1.4323                 1.4282                 1.4892
 IR Inten    --      2.0141                 6.6252                 0.8834

                     82                     83                     84
                      A                      A                      A
 Frequencies --   1535.9560              1537.6559              1540.1925
 Red. masses --      1.1441                 1.0847                 1.0618
 Frc consts  --      1.5902                 1.5110                 1.4840
 IR Inten    --     20.8472                 1.4092                 8.7897

                     85                     86                     87
                      A                      A                      A
 Frequencies --   1549.4248              1575.8486              1639.7463
 Red. masses --      1.5902                 2.5576                 4.1089
 Frc consts  --      2.2492                 3.7420                 6.5093
 IR Inten    --      7.6322               180.6617                 2.2905

                     88                     89                     90
                      A                      A                      A
 Frequencies --   1682.8188              2998.1639              3036.1498
 Red. masses --      5.9029                 1.0820                 1.0746
 Frc consts  --      9.8489                 5.7302                 5.8364
 IR Inten    --     91.9328                20.1879                13.1239

                     91                     92                     93
                      A                      A                      A
 Frequencies --   3036.9992              3038.1483              3043.3120
 Red. masses --      1.0358                 1.0600                 1.0466
 Frc consts  --      5.6290                 5.7646                 5.7113
 IR Inten    --     25.3244                42.0715                61.8369

                     94                     95                     96
                      A                      A                      A
 Frequencies --   3044.7913              3071.9475              3075.5531
 Red. masses --      1.0347                 1.1035                 1.0854
 Frc consts  --      5.6517                 6.1355                 6.0491
 IR Inten    --     39.2473                12.1226                19.1799

                     97                     98                     99
                      A                      A                      A
 Frequencies --   3078.3298              3083.8511              3099.9145
 Red. masses --      1.0600                 1.0625                 1.1011
 Frc consts  --      5.9180                 5.9532                 6.2343
 IR Inten    --     49.9031                13.1384                 5.5622

                    100                    101                    102
                      A                      A                      A
 Frequencies --   3105.8742              3112.6270              3113.4939
 Red. masses --      1.1004                 1.1024                 1.1025
 Frc consts  --      6.2543                 6.2928                 6.2967
 IR Inten    --     58.7134                21.4160                60.5950

                    103                    104                    105
                      A                      A                      A
 Frequencies --   3114.6296              3120.0619              3130.4956
 Red. masses --      1.1020                 1.1033                 1.1067
 Frc consts  --      6.2987                 6.3282                 6.3900
 IR Inten    --     57.7484                35.3717                10.8231

                    106                    107                    108
                      A                      A                      A
 Frequencies --   3135.7545              3158.8103              3170.6910
 Red. masses --      1.1049                 1.0863                 1.0893
 Frc consts  --      6.4009                 6.3862                 6.4523
 IR Inten    --     74.7959                21.6731                21.3112

                    109                    110                    111
                      A                      A                      A
 Frequencies --   3179.2383              3247.4507              3595.8122
 Red. masses --      1.0938                 1.0896                 1.0759
 Frc consts  --      6.5138                 6.7702                 8.1963
 IR Inten    --     26.2480                14.3156                 9.4564

 - Thermochemistry -
 -------------------
 Temperature   298.150 Kelvin.  Pressure   1.00000 Atm.
 Atom     1 has atomic number  6 and mass  12.00000

 Molecular mass:   217.18305 amu.
 Principal axes and moments of inertia in atomic units:
                           1         2         3
     Eigenvalues --  1887.235127746.136678775.58336
           X            1.00000  -0.00040  -0.00261
           Y            0.00038   0.99996  -0.00895
           Z            0.00261   0.00895   0.99996
 This molecule is an asymmetric top.
 Rotational symmetry number  1.
 Warning -- assumption of classical behavior for rotation
           may cause significant error
 Rotational temperatures (Kelvin)      0.04589     0.01118     0.00987
 Rotational constants (GHZ):           0.95629     0.23299     0.20565
 Zero-point vibrational energy     923994.1 (Joules/Mol)
                                  220.83988 (Kcal/Mol)
 Warning -- explicit consideration of  25 degrees of freedom as
           vibrations may cause significant error
 Vibrational temperatures:     35.27    41.78    56.02    94.63   114.01
          (Kelvin)            178.20   206.69   283.35   306.52   335.35
                              340.53   355.03   391.18   451.38   505.98
                              517.99   540.25   565.63   607.35   634.98
                              643.18   661.41   686.21   803.34   848.25
                              934.32   986.25  1063.84  1075.42  1119.02
                             1149.09  1176.15  1187.77  1203.10  1218.98
                             1278.77  1351.06  1352.79  1354.68  1361.33
                             1365.43  1408.27  1410.38  1449.32  1488.02
                             1500.31  1508.37  1542.26  1553.42  1575.20
                             1662.31  1673.63  1687.16  1693.29  1738.30
                             1760.20  1782.31  1795.80  1800.18  1827.63
                             1839.18  1852.62  1879.20  1890.88  1920.10
                             1950.07  1970.00  1977.41  1979.39  2030.94
                             2055.67  2062.37  2064.28  2083.08  2122.79
                             2176.52  2181.75  2185.01  2190.99  2194.88
                             2207.86  2209.90  2212.34  2215.99  2229.28
                             2267.29  2359.23  2421.20  4313.69  4368.34
                             4369.56  4371.22  4378.65  4380.78  4419.85
                             4425.03  4429.03  4436.97  4460.09  4468.66
                             4478.38  4479.62  4481.26  4489.07  4504.08
                             4511.65  4544.82  4561.92  4574.21  4672.36
                             5173.57

 Zero-point correction=                           0.351931 (Hartree/Particle)
 Thermal correction to Energy=                    0.368625
 Thermal correction to Enthalpy=                  0.369570
 Thermal correction to Gibbs Free Energy=         0.306280
 Sum of electronic and zero-point Energies=           -639.904389
 Sum of electronic and thermal Energies=              -639.887695
 Sum of electronic and thermal Enthalpies=            -639.886751
 Sum of electronic and thermal Free Energies=         -639.950040

                     E (Thermal)             CV                S
                      KCal/Mol        Cal/Mol-Kelvin    Cal/Mol-Kelvin
 Total                  231.316             64.575            133.204
 Electronic               0.000              0.000              0.000
 Translational            0.889              2.981             42.030
 Rotational               0.889              2.981             33.217
 Vibrational            229.538             58.614             57.957
 Vibration     1          0.593              1.985              6.230
 Vibration     2          0.593              1.984              5.894
 Vibration     3          0.594              1.981              5.313
 Vibration     4          0.597              1.971              4.276
 Vibration     5          0.600              1.963              3.910
 Vibration     6          0.610              1.929              3.039
 Vibration     7          0.616              1.909              2.755
 Vibration     8          0.636              1.844              2.162
 Vibration     9          0.644              1.821              2.017
 Vibration    10          0.654              1.790              1.855
 Vibration    11          0.656              1.785              1.828
 Vibration    12          0.661              1.768              1.754
 Vibration    13          0.675              1.725              1.584
 Vibration    14          0.702              1.647              1.343
 Vibration    15          0.728              1.572              1.159
 Vibration    16          0.735              1.555              1.122
 Vibration    17          0.746              1.522              1.057
 Vibration    18          0.760              1.485              0.988
 Vibration    19          0.784              1.422              0.885
 Vibration    20          0.801              1.380              0.822
 Vibration    21          0.806              1.367              0.805
 Vibration    22          0.818              1.339              0.767
 Vibration    23          0.834              1.301              0.718
 Vibration    24          0.914              1.121              0.527
 Vibration    25          0.947              1.054              0.468

                           ! Non-Optimized Parameters !
 Normal termination of Gaussian 16 at Thu Dec 10 21:27:38 2020.

 ----------------------------------------------------------------------
 # B3LYP/6-311++G(d,p) empiricaldispersion=gd3bj scf=xqc pop=npa geom=c
 heck
 ----------------------------------------------------------------------

 ---------------------------------------
 CID_103560819_JID_6150_Energie_neutraal
 ---------------------------------------
 Structure from the checkpoint file:  "JID_6150.chk"
 Charge =  0 Multiplicity = 1

 SCF Done:  E(RB3LYP) =  -640.428059139     A.U. after   14 cycles
 Normal termination of Gaussian 16 at Thu Dec 10 21:33:15 2020.

 ----------------------------------------------------------------------
 # B3LYP/6-311++G(d,p) empiricaldispersion=gd3bj scf=xqc pop=npa geom=c
 heck
 ----------------------------------------------------------------------

 -------------------------------------
 CID_103560819_JID_6150_Energie_kation
 -------------------------------------
 Structure from the checkpoint file:  "JID_6150.chk"
 Charge =  1 Multiplicity = 2

 SCF Done:  E(UB3LYP) =  -640.171372924     A.U. after   20 cycles
 Normal termination of Gaussian 16 at Thu Dec 10 21:43:46 2020.
 Gaussian 16:  ES64L-G16RevA.03 25-Dec-2016

 ----------------------------------------------------------------------
 # B3LYP/6-311++G(d,p) empiricaldispersion=gd3bj scf=xqc pop=npa geom=c
 heck
 ----------------------------------------------------------------------

 ------------------------------------
 CID_103560819_JID_6150_Energie_anion
 ------------------------------------
 Structure from the checkpoint file:  "JID_6150.chk"
 Charge = -1 Multiplicity = 2

                         Standard orientation:
 ---------------------------------------------------------------------
 Center     Atomic      Atomic             Coordinates (Angstroms)
 Number     Number       Type             X           Y           Z
 ---------------------------------------------------------------------
      1          6           0       -5.175498   -1.565254    0.813170
      2          6           0       -4.425568   -1.335775   -0.509375
      3          6           0       -3.214111   -0.448715   -0.341919
      4          6           0       -1.953299   -0.979121   -0.058245
      5          6           0       -0.836840   -0.170859    0.150020
      6          6           0       -0.944862    1.229841    0.074816
      7          6           0       -2.214965    1.767429   -0.214265
      8          6           0       -3.317235    0.946577   -0.412075
      9          7           0        0.112308    2.108657    0.304331
     10          6           0        1.521552    1.805131    0.165285
     11          6           0        2.240701    0.875896    1.181028
     12          6           0        3.098704    0.323594    0.005848
     13          6           0        2.078515    0.933052   -0.997749
     14          6           0        3.356221   -1.181243   -0.053962
     15          6           0        4.013829   -1.573251   -1.382126
     16          6           0        4.197195   -1.643172    1.141717
     17          1           0       -4.519910   -2.038112    1.552961
     18          1           0       -6.050841   -2.209461    0.668580
     19          1           0       -5.516789   -0.613503    1.235672
     20          1           0       -4.118948   -2.304910   -0.923082
     21          1           0       -5.112586   -0.889851   -1.240222
     22          1           0       -1.832612   -2.058858    0.003393
     23          1           0        0.111453   -0.640581    0.373145
     24          1           0       -2.328217    2.847678   -0.285602
     25          1           0       -4.280650    1.400480   -0.635387
     26          1           0       -0.119828    3.061119    0.059022
     27          1           0        2.030885    2.773673    0.162469
     28          1           0        2.759146    1.365886    2.010831
     29          1           0        1.576149    0.114603    1.597430
     30          1           0        4.058601    0.854731   -0.050654
     31          1           0        1.351837    0.190079   -1.338070
     32          1           0        2.467945    1.464099   -1.871760
     33          1           0        2.378247   -1.685060    0.002402
     34          1           0        4.995922   -1.093661   -1.484432
     35          1           0        4.164079   -2.657115   -1.446606
     36          1           0        3.401054   -1.266045   -2.237041
     37          1           0        3.716337   -1.386005    2.092279
     38          1           0        4.350789   -2.728347    1.124075
     39          1           0        5.185741   -1.166209    1.127280
 ---------------------------------------------------------------------

 SCF Done:  E(UB3LYP) =  -640.414750014     A.U. after   33 cycles
 SCF Done:  E(UB3LYP) =  -640.414750014     a.u. after    1 cycles

 The electronic state is 2-A.
 Alpha  occ. eigenvalues --  -14.22249 -10.11733 -10.10875 -10.08395 -10.08308
 Alpha  occ. eigenvalues --  -10.07697 -10.07694 -10.07669 -10.07533 -10.07490
 Alpha  occ. eigenvalues --  -10.07195 -10.07155 -10.07048 -10.06949 -10.06752
 Alpha  occ. eigenvalues --  -10.06504  -0.83812  -0.76110  -0.74557  -0.69769
 Alpha  occ. eigenvalues --   -0.68420  -0.65052  -0.62570  -0.59898  -0.56577
 Alpha  occ. eigenvalues --   -0.56386  -0.53701  -0.51864  -0.49517  -0.47153
 Alpha  occ. eigenvalues --   -0.46109  -0.42550  -0.40571  -0.38742  -0.37939
 Alpha  occ. eigenvalues --   -0.36678  -0.35407  -0.34199  -0.33753  -0.33162
 Alpha  occ. eigenvalues --   -0.32658  -0.32201  -0.31827  -0.30433  -0.29698
 Alpha  occ. eigenvalues --   -0.29199  -0.28965  -0.27317  -0.26431  -0.26327
 Alpha  occ. eigenvalues --   -0.25492  -0.25297  -0.24561  -0.24206  -0.22114
 Alpha  occ. eigenvalues --   -0.21305  -0.20374  -0.18886  -0.15900  -0.10083
 Alpha  occ. eigenvalues --    0.04086
 Alpha virt. eigenvalues --    0.05475   0.05854   0.07217   0.07392   0.07615
 Alpha virt. eigenvalues --    0.08133   0.08201   0.08682   0.09357   0.09444
 Alpha virt. eigenvalues --    0.09684   0.09957   0.10862   0.11067   0.11472

  Beta  occ. eigenvalues --  -14.22226 -10.11730 -10.10855 -10.08391 -10.08297
  Beta  occ. eigenvalues --  -10.07686 -10.07685 -10.07660 -10.07533 -10.07473
  Beta  occ. eigenvalues --  -10.07182 -10.07151 -10.07032 -10.06932 -10.06743
  Beta  occ. eigenvalues --  -10.06491  -0.83771  -0.76088  -0.74535  -0.69747
  Beta  occ. eigenvalues --   -0.68396  -0.65032  -0.62543  -0.59864  -0.56542
  Beta  occ. eigenvalues --   -0.56349  -0.53661  -0.51834  -0.49482  -0.47119
  Beta  occ. eigenvalues --   -0.46068  -0.42488  -0.40540  -0.38689  -0.37904
  Beta  occ. eigenvalues --   -0.36654  -0.35382  -0.34171  -0.33727  -0.33136
  Beta  occ. eigenvalues --   -0.32629  -0.32176  -0.31800  -0.30410  -0.29677
  Beta  occ. eigenvalues --   -0.29174  -0.28939  -0.27274  -0.26412  -0.26307
  Beta  occ. eigenvalues --   -0.25464  -0.25276  -0.24534  -0.24183  -0.22081
  Beta  occ. eigenvalues --   -0.21279  -0.20341  -0.18861  -0.15885  -0.10060
  Beta virt. eigenvalues --    0.05764   0.06152   0.06970   0.07539   0.07719
  Beta virt. eigenvalues --    0.07927   0.08189   0.08259   0.09141   0.09628
  Beta virt. eigenvalues --    0.09663   0.10047   0.10273   0.11056   0.11117

 Mulliken charges and spin densities:
               1          2
     1  C    0.272858  -0.893316
     2  C    0.205853  -0.575374
     3  C    0.707840   0.317596
     4  C   -0.283809  -0.135519
     5  C    0.268842  -0.386896
     6  C    0.734243  -0.834858
     7  C   -0.013530  -0.169191
     8  C   -1.235024   0.621012
     9  N    0.021871   0.063652
    10  C    0.802610  -1.023695
    11  C   -0.873046   0.191602
    12  C    1.535246  -1.141116
    13  C   -0.343335  -0.321714
    14  C   -0.936595   1.144329
    15  C   -0.054365  -0.565900
    16  C   -0.042334  -0.585741
    17  H    0.040741   0.096031
    18  H   -0.142957   0.256760
    19  H    0.024923   0.113351
    20  H   -0.006156   0.142382
    21  H   -0.085724   0.228760
    22  H   -0.141002   0.317821
    23  H    0.413247  -0.376777
    24  H   -0.635909   0.782278
    25  H   -0.072234   0.231013
    26  H    0.133638   0.139347
    27  H   -1.078508   1.282125
    28  H   -0.065789   0.247224
    29  H   -0.041090   0.221336
    30  H    0.057895   0.142434
    31  H    0.066394   0.086009
    32  H   -0.156240   0.330181
    33  H    0.053340   0.079201
    34  H   -0.046001   0.179907
    35  H   -0.067597   0.207918
    36  H    0.048817   0.099354
    37  H    0.067944   0.075051
    38  H   -0.131628   0.274579
    39  H   -0.003430   0.138847
 Sum of Mulliken charges =  -1.00000   1.00000

 Dipole moment (field-independent basis, Debye):
    X=             -0.9816    Y=             -4.1962    Z=              0.4953  Tot=              4.3378
 Quadrupole moment (field-independent basis, Debye-Ang):
   XX=           -196.4075   YY=           -160.9406   ZZ=           -133.1204
   XY=             -7.6068   XZ=              0.9480   YZ=              0.9363

 Summary of Natural Population Analysis:

                                       Natural Population
                Natural  -----------------------------------------------
    Atom  No    Charge         Core      Valence    Rydberg      Total
 -----------------------------------------------------------------------
      C    1   -0.27957      0.99966     2.27595    0.00397     3.27957
      C    2   -0.19368      0.99961     2.18614    0.00793     3.19368
      C    3   -0.04054      0.99950     2.03137    0.00966     3.04054
      C    4   -0.08948      0.99952     2.08141    0.00855     3.08948
      C    5   -0.13173      0.99952     2.12463    0.00757     3.13173
      C    6    0.09231      0.99948     1.89674    0.01147     2.90769
      C    7   -0.11759      0.99953     2.10821    0.00984     3.11759
      C    8   -0.09356      0.99952     2.08400    0.01004     3.09356
      N    9   -0.31072      0.99966     2.79898    0.01208     3.81072
      C   10   -0.00759      0.99958     1.99220    0.01581     3.00759
      C   11   -0.18886      0.99961     2.18033    0.00892     3.18886
      C   12   -0.10855      0.99958     2.09661    0.01237     3.10855
      C   13   -0.19395      0.99961     2.18555    0.00880     3.19395
      C   14   -0.11302      0.99959     2.10326    0.01017     3.11302
      C   15   -0.28252      0.99965     2.27807    0.00481     3.28252
      C   16   -0.28251      0.99965     2.27809    0.00477     3.28251
      H   17    0.09636      0.00000     0.40237    0.00127     0.40364
      H   18    0.09438      0.00000     0.40418    0.00144     0.40562
      H   19    0.09687      0.00000     0.40189    0.00124     0.40313
      H   20    0.09675      0.00000     0.40192    0.00133     0.40325
      H   21    0.09724      0.00000     0.40140    0.00135     0.40276
      H   22    0.09692      0.00000     0.40205    0.00103     0.40308
      H   23    0.09999      0.00000     0.39762    0.00238     0.40001
      H   24    0.09927      0.00000     0.39903    0.00170     0.40073
      H   25    0.09832      0.00000     0.40067    0.00101     0.40168
      H   26    0.18946      0.00000     0.30627    0.00427     0.31054
      H   27    0.10229      0.00000     0.39379    0.00392     0.39771
      H   28    0.09959      0.00000     0.39935    0.00106     0.40041
      H   29    0.09674      0.00000     0.40169    0.00157     0.40326
      H   30    0.09775      0.00000     0.40072    0.00153     0.40225
      H   31    0.10071      0.00000     0.39768    0.00161     0.39929
      H   32    0.10062      0.00000     0.39824    0.00114     0.39938
      H   33    0.09009      0.00000     0.40773    0.00218     0.40991
      H   34    0.09663      0.00000     0.40236    0.00101     0.40337
      H   35    0.09687      0.00000     0.40230    0.00083     0.40313
      H   36    0.10099      0.00000     0.39812    0.00090     0.39901
      H   37    0.10001      0.00000     0.39913    0.00085     0.39999
      H   38    0.09701      0.00000     0.40216    0.00083     0.40299
      H   39    0.09671      0.00000     0.40230    0.00099     0.40329
 =======================================================================
   * Total *    0.00000     15.99326    43.82454    0.18220    60.00000

 Normal termination of Gaussian 16 at Thu Dec 10 22:01:45 2020.
