 Gaussian 16, Revision A.03,

 -----------------------------------------------------------
 # opt freq B3LYP/6-31G(d) empiricaldispersion=gd3bj scf=xqc
 -----------------------------------------------------------

 ------------------------------
 CID_118030946_JID_727_neutraal
 ------------------------------
 Symbolic Z-matrix:
 Charge =  0 Multiplicity = 1

 SCF Done:  E(RB3LYP) =  -458.627081078     A.U. after   14 cycles
 SCF Done:  E(RB3LYP) =  -458.630808446     A.U. after   12 cycles
 SCF Done:  E(RB3LYP) =  -458.631504205     A.U. after   12 cycles
 SCF Done:  E(RB3LYP) =  -458.632030348     A.U. after   13 cycles
 SCF Done:  E(RB3LYP) =  -458.632228967     A.U. after   12 cycles
 SCF Done:  E(RB3LYP) =  -458.632399756     A.U. after   12 cycles
 SCF Done:  E(RB3LYP) =  -458.632469170     A.U. after   11 cycles
 SCF Done:  E(RB3LYP) =  -458.632492480     A.U. after   11 cycles
 SCF Done:  E(RB3LYP) =  -458.632495540     A.U. after   10 cycles
 SCF Done:  E(RB3LYP) =  -458.632495728     A.U. after    7 cycles
 SCF Done:  E(RB3LYP) =  -458.632495771     A.U. after    7 cycles
 Optimization completed.
    -- Stationary point found.
 Normal termination of Gaussian 16 at Tue Dec  8 12:50:24 2020.

 --------------------------------------------------------------------
 #N Geom=AllCheck Guess=TCheck SCRF=Check GenChk RB3LYP/6-31G(d) Freq
 --------------------------------------------------------------------

 Structure from the checkpoint file:  "JID_727.chk"
 ------------------------------
 CID_118030946_JID_727_neutraal
 ------------------------------
 Charge =  0 Multiplicity = 1

 SCF Done:  E(RB3LYP) =  -458.632495772     A.U. after    1 cycles

  Exact polarizability: 117.354   3.931  82.001  -8.314  -3.818  69.268
 Approx polarizability: 152.217   4.635 131.208 -20.747  -9.716 105.649

                      1                      2                      3
                      A                      A                      A
 Frequencies --     56.1146                59.0611               122.2559
 Red. masses --      3.5906                 2.8985                 2.7908
 Frc consts  --      0.0067                 0.0060                 0.0246
 IR Inten    --      2.0302                 0.7532                 1.5143

                      4                      5                      6
                      A                      A                      A
 Frequencies --    144.0672               207.6877               248.4523
 Red. masses --      3.0476                 1.6788                 1.0335
 Frc consts  --      0.0373                 0.0427                 0.0376
 IR Inten    --      0.0200                 1.3931                 0.2098

                      7                      8                      9
                      A                      A                      A
 Frequencies --    280.4452               321.6848               353.3602
 Red. masses --      1.6954                 2.5218                 3.2960
 Frc consts  --      0.0786                 0.1538                 0.2425
 IR Inten    --      1.1007                 0.9856                 3.1994

                     10                     11                     12
                      A                      A                      A
 Frequencies --    412.1468               442.8326               472.1350
 Red. masses --      2.8868                 4.1975                 3.3943
 Frc consts  --      0.2889                 0.4850                 0.4458
 IR Inten    --      3.6971                10.0214                 3.4596

                     13                     14                     15
                      A                      A                      A
 Frequencies --    538.9778               593.7969               633.3098
 Red. masses --      5.2798                 3.7216                 3.0285
 Frc consts  --      0.9037                 0.7731                 0.7157
 IR Inten    --      8.0075                 1.2992                 4.6052

                     16                     17                     18
                      A                      A                      A
 Frequencies --    739.3121               816.9344               849.5294
 Red. masses --      3.8245                 3.0749                 2.7391
 Frc consts  --      1.2316                 1.2091                 1.1647
 IR Inten    --      2.5824                 3.0764                 8.4718

                     19                     20                     21
                      A                      A                      A
 Frequencies --    877.1353               921.3357               931.3574
 Red. masses --      1.7781                 1.9333                 2.5577
 Frc consts  --      0.8060                 0.9669                 1.3072
 IR Inten    --     33.6351                17.8081                13.1676

                     22                     23                     24
                      A                      A                      A
 Frequencies --    950.0316               970.2482               985.4239
 Red. masses --      1.5670                 1.7447                 1.6467
 Frc consts  --      0.8333                 0.9677                 0.9421
 IR Inten    --      3.7521                 6.4195                37.9416

                     25                     26                     27
                      A                      A                      A
 Frequencies --   1017.4362              1043.2898              1054.4125
 Red. masses --      1.8235                 3.4117                 2.0488
 Frc consts  --      1.1122                 2.1879                 1.3421
 IR Inten    --     15.5812                 4.1620                13.1577

                     28                     29                     30
                      A                      A                      A
 Frequencies --   1132.7284              1146.6488              1171.1029
 Red. masses --      2.4168                 1.4022                 1.6597
 Frc consts  --      1.8270                 1.0862                 1.3411
 IR Inten    --      2.7860                 3.5982                22.6487

                     31                     32                     33
                      A                      A                      A
 Frequencies --   1215.0557              1262.7460              1277.6150
 Red. masses --      2.3280                 1.4963                 1.2709
 Frc consts  --      2.0250                 1.4057                 1.2223
 IR Inten    --     32.3615                41.8036                24.8083

                     34                     35                     36
                      A                      A                      A
 Frequencies --   1326.6999              1344.9407              1359.6237
 Red. masses --      1.5427                 1.6704                 1.3661
 Frc consts  --      1.5999                 1.7802                 1.4879
 IR Inten    --     22.9089                 5.4888                 4.2974

                     37                     38                     39
                      A                      A                      A
 Frequencies --   1397.5128              1413.2506              1432.7026
 Red. masses --      1.4189                 1.6234                 1.2319
 Frc consts  --      1.6327                 1.9104                 1.4898
 IR Inten    --      3.0220                37.4017                 3.0697

                     40                     41                     42
                      A                      A                      A
 Frequencies --   1462.2368              1496.5993              1505.2577
 Red. masses --      1.1865                 1.1923                 1.0857
 Frc consts  --      1.4947                 1.5735                 1.4493
 IR Inten    --      0.8620                14.3111                 0.4404

                     43                     44                     45
                      A                      A                      A
 Frequencies --   1505.7530              1525.5970              1528.2310
 Red. masses --      1.0401                 1.0473                 1.0565
 Frc consts  --      1.3895                 1.4362                 1.4538
 IR Inten    --      6.5268                 7.5188                 3.3500

                     46                     47                     48
                      A                      A                      A
 Frequencies --   1543.3266              1679.6499              1740.4818
 Red. masses --      1.0516                 8.6208                 7.4133
 Frc consts  --      1.4758                14.3297                13.2313
 IR Inten    --     11.3670                57.5374                 7.4556

                     49                     50                     51
                      A                      A                      A
 Frequencies --   3012.5223              3028.7974              3042.4552
 Red. masses --      1.0701                 1.0412                 1.0798
 Frc consts  --      5.7218                 5.6279                 5.8889
 IR Inten    --     30.3141                53.2161                37.1404

                     52                     53                     54
                      A                      A                      A
 Frequencies --   3047.2493              3083.2833              3107.9985
 Red. masses --      1.0389                 1.0938                 1.0949
 Frc consts  --      5.6838                 6.1267                 6.2316
 IR Inten    --     30.5920                38.2717                24.8124

                     55                     56                     57
                      A                      A                      A
 Frequencies --   3113.6543              3127.6361              3141.2604
 Red. masses --      1.1023                 1.1025                 1.1034
 Frc consts  --      6.2966                 6.3542                 6.4147
 IR Inten    --     33.3660                26.5870                16.3017

                     58                     59                     60
                      A                      A                      A
 Frequencies --   3161.5840              3196.0150              3483.3938
 Red. masses --      1.0896                 1.0914                 1.0757
 Frc consts  --      6.4166                 6.5682                 7.6906
 IR Inten    --     24.1751                 9.8079                 0.6511

 - Thermochemistry -
 -------------------
 Temperature   298.150 Kelvin.  Pressure   1.00000 Atm.
 Atom     1 has atomic number  6 and mass  12.00000

 Molecular mass:   140.09496 amu.
 Principal axes and moments of inertia in atomic units:
                           1         2         3
     Eigenvalues --   651.429782227.943132467.60804
           X            0.99986   0.01314   0.01049
           Y           -0.01316   0.99991   0.00114
           Z           -0.01048  -0.00128   0.99994
 This molecule is an asymmetric top.
 Rotational symmetry number  1.
 Warning -- assumption of classical behavior for rotation
           may cause significant error
 Rotational temperatures (Kelvin)      0.13296     0.03888     0.03510
 Rotational constants (GHZ):           2.77043     0.81005     0.73137
 Zero-point vibrational energy     496787.5 (Joules/Mol)
                                  118.73506 (Kcal/Mol)
 Warning -- explicit consideration of  14 degrees of freedom as
           vibrations may cause significant error
 Vibrational temperatures:     80.74    84.98   175.90   207.28   298.82
          (Kelvin)            357.47   403.50   462.83   508.41   592.99
                              637.14   679.30   775.47   854.34   911.19
                             1063.71  1175.39  1222.28  1262.00  1325.60
                             1340.02  1366.88  1395.97  1417.81  1463.86
                             1501.06  1517.06  1629.74  1649.77  1684.96
                             1748.19  1816.81  1838.20  1908.83  1935.07
                             1956.20  2010.71  2033.35  2061.34  2103.83
                             2153.27  2165.73  2166.44  2194.99  2198.78
                             2220.50  2416.64  2504.17  4334.35  4357.76
                             4377.41  4384.31  4436.16  4471.72  4479.85
                             4499.97  4519.57  4548.81  4598.35  5011.83

 Zero-point correction=                           0.189216 (Hartree/Particle)
 Thermal correction to Energy=                    0.199386
 Thermal correction to Enthalpy=                  0.200330
 Thermal correction to Gibbs Free Energy=         0.153288
 Sum of electronic and zero-point Energies=           -458.443279
 Sum of electronic and thermal Energies=              -458.433109
 Sum of electronic and thermal Enthalpies=            -458.432165
 Sum of electronic and thermal Free Energies=         -458.479208

                     E (Thermal)             CV                S
                      KCal/Mol        Cal/Mol-Kelvin    Cal/Mol-Kelvin
 Total                  125.117             37.734             99.010
 Electronic               0.000              0.000              0.000
 Translational            0.889              2.981             40.723
 Rotational               0.889              2.981             29.661
 Vibrational            123.339             31.772             28.626
 Vibration     1          0.596              1.975              4.589
 Vibration     2          0.596              1.974              4.488
 Vibration     3          0.610              1.931              3.064
 Vibration     4          0.616              1.909              2.749
 Vibration     5          0.641              1.829              2.064
 Vibration     6          0.662              1.765              1.742
 Vibration     7          0.680              1.710              1.531
 Vibration     8          0.707              1.632              1.302
 Vibration     9          0.730              1.568              1.151
 Vibration    10          0.776              1.444              0.919
 Vibration    11          0.802              1.377              0.818
 Vibration    12          0.829              1.312              0.732
 Vibration    13          0.894              1.164              0.567
 Vibration    14          0.951              1.045              0.460

 Optimization completed.
    -- Stationary point found.
 Normal termination of Gaussian 16 at Tue Dec  8 13:04:40 2020.

 ----------------------------------------------------------------------
 # B3LYP/6-311++G(d,p) empiricaldispersion=gd3bj scf=xqc pop=npa geom=c
 heck
 ----------------------------------------------------------------------

 --------------------------------------
 CID_118030946_JID_727_Energie_neutraal
 --------------------------------------
 Structure from the checkpoint file:  "JID_727.chk"
 Charge =  0 Multiplicity = 1

 SCF Done:  E(RB3LYP) =  -458.763585943     A.U. after   14 cycles
 Normal termination of Gaussian 16 at Tue Dec  8 13:08:40 2020.

 ----------------------------------------------------------------------
 # B3LYP/6-311++G(d,p) empiricaldispersion=gd3bj scf=xqc pop=npa geom=c
 heck
 ----------------------------------------------------------------------

 ------------------------------------
 CID_118030946_JID_727_Energie_kation
 ------------------------------------
 Structure from the checkpoint file:  "JID_727.chk"
 Charge =  1 Multiplicity = 2

 SCF Done:  E(UB3LYP) =  -458.459190483     A.U. after   23 cycles
 Normal termination of Gaussian 16 at Tue Dec  8 13:17:06 2020.
 Gaussian 16:  ES64L-G16RevA.03 25-Dec-2016

 ----------------------------------------------------------------------
 # B3LYP/6-311++G(d,p) empiricaldispersion=gd3bj scf=xqc pop=npa geom=c
 heck
 ----------------------------------------------------------------------

 -----------------------------------
 CID_118030946_JID_727_Energie_anion
 -----------------------------------
 Structure from the checkpoint file:  "JID_727.chk"
 Charge = -1 Multiplicity = 2

                         Standard orientation:
 ---------------------------------------------------------------------
 Center     Atomic      Atomic             Coordinates (Angstroms)
 Number     Number       Type             X           Y           Z
 ---------------------------------------------------------------------
      1          6           0       -2.862300   -0.970056   -0.560431
      2          6           0       -1.920661   -0.556932    0.586298
      3          6           0       -1.876357    0.967526    0.792250
      4          7           0       -1.083755    1.717393   -0.191345
      5          6           0       -0.038590    1.127609   -0.632046
      6          6           0        0.357590   -0.245824   -0.269770
      7          6           0       -0.518561   -1.060548    0.335223
      8          8           0        1.583376   -0.717869   -0.681646
      9          7           0        2.614909    0.269318   -0.389520
     10          6           0        3.289399   -0.168358    0.832164
     11          1           0       -2.549543   -0.503270   -1.500238
     12          1           0       -3.892049   -0.658927   -0.347960
     13          1           0       -2.855891   -2.056259   -0.703781
     14          1           0       -2.299322   -1.003213    1.515147
     15          1           0       -2.892306    1.377682    0.788414
     16          1           0       -1.447428    1.189689    1.781753
     17          1           0        0.605903    1.661505   -1.330319
     18          1           0       -0.259231   -2.096557    0.536197
     19          1           0        3.244074    0.132571   -1.180393
     20          1           0        3.645327   -1.207174    0.788303
     21          1           0        4.137407    0.504705    0.999487
     22          1           0        2.594852   -0.065287    1.670489
 ---------------------------------------------------------------------

 SCF Done:  E(UB3LYP) =  -458.753771309     A.U. after   31 cycles

 The electronic state is 2-A.
 Alpha  occ. eigenvalues --  -19.03988 -14.23883 -14.15491 -10.08457 -10.07903
 Alpha  occ. eigenvalues --  -10.06249 -10.06066 -10.05620 -10.04071 -10.02917
 Alpha  occ. eigenvalues --   -0.95877  -0.78772  -0.74332  -0.67312  -0.61465
 Alpha  occ. eigenvalues --   -0.56665  -0.55143  -0.48335  -0.47393  -0.40157
 Alpha  occ. eigenvalues --   -0.38316  -0.37320  -0.34864  -0.33336  -0.31792
 Alpha  occ. eigenvalues --   -0.31028  -0.29064  -0.28265  -0.27118  -0.25714
 Alpha  occ. eigenvalues --   -0.24257  -0.23571  -0.22832  -0.21042  -0.17432
 Alpha  occ. eigenvalues --   -0.13869  -0.10896  -0.09836   0.05016
 Alpha virt. eigenvalues --    0.07004   0.08004   0.09168   0.09745   0.09982
 Alpha virt. eigenvalues --    0.10675   0.11228   0.12594   0.12755   0.13672
 Alpha virt. eigenvalues --    0.14069   0.14964   0.15974   0.16915   0.17088

  Beta  occ. eigenvalues --  -19.03968 -14.23828 -14.15249 -10.08423 -10.07870
  Beta  occ. eigenvalues --  -10.06255 -10.05957 -10.05627 -10.04026 -10.02697
  Beta  occ. eigenvalues --   -0.95816  -0.78410  -0.74242  -0.67101  -0.61239
  Beta  occ. eigenvalues --   -0.56542  -0.54980  -0.47899  -0.47303  -0.40086
  Beta  occ. eigenvalues --   -0.38198  -0.37133  -0.34724  -0.33140  -0.31692
  Beta  occ. eigenvalues --   -0.30915  -0.28966  -0.28164  -0.27007  -0.25548
  Beta  occ. eigenvalues --   -0.23973  -0.23475  -0.22624  -0.20797  -0.16776
  Beta  occ. eigenvalues --   -0.13681  -0.10523  -0.09001
  Beta virt. eigenvalues --    0.07610   0.08113   0.09362   0.09925   0.10117
  Beta virt. eigenvalues --    0.10448   0.11107   0.11468   0.12719   0.12819
  Beta virt. eigenvalues --    0.13812   0.14060   0.15019   0.15994   0.16997

 Mulliken charges and spin densities:
               1          2
     1  C    0.414443  -1.050661
     2  C   -0.212093   0.503405
     3  C   -0.352946  -0.206405
     4  N   -0.101523   0.128995
     5  C    0.076317  -0.100752
     6  C   -0.208937  -0.499921
     7  C   -0.060686   0.460414
     8  O   -0.086186   0.008702
     9  N   -0.278047   0.073551
    10  C    0.769193  -1.129231
    11  H    0.045774   0.106582
    12  H   -0.135062   0.240833
    13  H   -0.170421   0.297278
    14  H   -0.202155   0.375873
    15  H    0.085308   0.074079
    16  H    0.000367   0.131446
    17  H    0.155356   0.000871
    18  H    0.055497   0.103008
    19  H   -0.185943   0.455312
    20  H   -0.143177   0.266252
    21  H   -0.436737   0.570032
    22  H   -0.028342   0.190337
 Sum of Mulliken charges =  -1.00000   1.00000

 Dipole moment (field-independent basis, Debye):
    X=             -1.2939    Y=             -0.8653    Z=              0.5576  Tot=              1.6534
 Quadrupole moment (field-independent basis, Debye-Ang):
   XX=           -119.9915   YY=            -89.9583   ZZ=            -80.2352
   XY=             -2.4357   XZ=              0.9183   YZ=             -0.6482

 Summary of Natural Population Analysis:

                                       Natural Population
                Natural  -----------------------------------------------
    Atom  No    Charge         Core      Valence    Rydberg      Total
 -----------------------------------------------------------------------
      C    1   -0.28170      0.99965     2.27581    0.00624     3.28170
      C    2   -0.13407      0.99960     2.12368    0.01079     3.13407
      C    3   -0.10120      0.99960     2.08750    0.01410     3.10120
      N    4   -0.20575      0.99971     2.69304    0.01300     3.70575
      C    5    0.05032      0.99957     1.93582    0.01429     2.94968
      C    6    0.11929      0.99932     1.86742    0.01397     2.88071
      C    7   -0.06649      0.99947     2.05671    0.01031     3.06649
      O    8   -0.22406      0.99987     3.21163    0.01255     4.22406
      N    9   -0.17225      0.99975     2.65804    0.01447     3.67225
      C   10   -0.18683      0.99966     2.17775    0.00941     3.18683
      H   11    0.10042      0.00000     0.39866    0.00093     0.39958
      H   12    0.09413      0.00000     0.40448    0.00139     0.40587
      H   13    0.09616      0.00000     0.40277    0.00107     0.40384
      H   14    0.09892      0.00000     0.39877    0.00231     0.40108
      H   15    0.08940      0.00000     0.40901    0.00159     0.41060
      H   16    0.09558      0.00000     0.40313    0.00129     0.40442
      H   17    0.08652      0.00000     0.41131    0.00217     0.41348
      H   18    0.09528      0.00000     0.40340    0.00133     0.40472
      H   19    0.16976      0.00000     0.32591    0.00433     0.33024
      H   20    0.08437      0.00000     0.41368    0.00195     0.41563
      H   21    0.09569      0.00000     0.40272    0.00159     0.40431
      H   22    0.09650      0.00000     0.40202    0.00148     0.40350
 =======================================================================
   * Total *   -0.00000      9.99619    27.86325    0.14057    38.00000

 Normal termination of Gaussian 16 at Tue Dec  8 13:26:53 2020.
