 Gaussian 16, Revision A.03,

 -----------------------------------------------------------
 # opt freq B3LYP/6-31G(d) empiricaldispersion=gd3bj scf=xqc
 -----------------------------------------------------------

 ------------------------------
 CID_70365275_JID_6130_neutraal
 ------------------------------
 Symbolic Z-matrix:
 Charge =  0 Multiplicity = 1

 SCF Done:  E(RB3LYP) =  -797.532676799     A.U. after   14 cycles
 SCF Done:  E(RB3LYP) =  -797.540781697     A.U. after   13 cycles
 SCF Done:  E(RB3LYP) =  -797.542017413     A.U. after   12 cycles
 SCF Done:  E(RB3LYP) =  -797.543077777     A.U. after   12 cycles
 SCF Done:  E(RB3LYP) =  -797.543651404     A.U. after   12 cycles
 SCF Done:  E(RB3LYP) =  -797.544013033     A.U. after   12 cycles
 SCF Done:  E(RB3LYP) =  -797.544809369     A.U. after   12 cycles
 SCF Done:  E(RB3LYP) =  -797.545541864     A.U. after   12 cycles
 SCF Done:  E(RB3LYP) =  -797.545754637     A.U. after   12 cycles
 SCF Done:  E(RB3LYP) =  -797.545794846     A.U. after   10 cycles
 SCF Done:  E(RB3LYP) =  -797.545848122     A.U. after    7 cycles
 SCF Done:  E(RB3LYP) =  -797.545848178     A.U. after    7 cycles
 SCF Done:  E(RB3LYP) =  -797.545848235     A.U. after    7 cycles
 SCF Done:  E(RB3LYP) =  -797.545848270     A.U. after    7 cycles
 SCF Done:  E(RB3LYP) =  -797.545848289     A.U. after    7 cycles
 Optimization completed.
    -- Stationary point found.
 Normal termination of Gaussian 16 at Thu Dec 10 21:14:53 2020.

 --------------------------------------------------------------------
 #N Geom=AllCheck Guess=TCheck SCRF=Check GenChk RB3LYP/6-31G(d) Freq
 --------------------------------------------------------------------

 Structure from the checkpoint file:  "JID_6130.chk"
 ------------------------------
 CID_70365275_JID_6130_neutraal
 ------------------------------
 Charge =  0 Multiplicity = 1

 SCF Done:  E(RB3LYP) =  -797.545848289     A.U. after    1 cycles

  Exact polarizability: 182.538   6.113 150.824   0.002   0.002  57.671
 Approx polarizability: 265.494   3.886 243.112   0.004   0.005  88.830

                      1                      2                      3
                      A                      A                      A
 Frequencies --     31.0453                40.8343                68.3269
 Red. masses --      4.6719                 6.8394                 6.8018
 Frc consts  --      0.0027                 0.0067                 0.0187
 IR Inten    --      4.0785                 0.6154                 1.9954

                      4                      5                      6
                      A                      A                      A
 Frequencies --     84.0435               101.8173               165.7350
 Red. masses --      1.8278                 4.5136                 6.5248
 Frc consts  --      0.0076                 0.0276                 0.1056
 IR Inten    --      0.4190                 0.1277                 0.0230

                      7                      8                      9
                      A                      A                      A
 Frequencies --    169.9421               194.6863               258.3520
 Red. masses --      5.3155                 8.4984                 1.1761
 Frc consts  --      0.0904                 0.1898                 0.0462
 IR Inten    --      3.9430                 0.5653                 0.3052

                     10                     11                     12
                      A                      A                      A
 Frequencies --    260.7969               276.7656               333.0595
 Red. masses --      5.4372                 4.4959                 4.2082
 Frc consts  --      0.2179                 0.2029                 0.2750
 IR Inten    --      1.8989                 0.2517                 3.4675

                     13                     14                     15
                      A                      A                      A
 Frequencies --    363.7586               365.3388               435.1186
 Red. masses --      7.3515                 8.3684                 6.8980
 Frc consts  --      0.5731                 0.6581                 0.7695
 IR Inten    --      3.7226                 0.0259                 4.8727

                     16                     17                     18
                      A                      A                      A
 Frequencies --    530.8235               541.2348               551.8608
 Red. masses --      4.8922                 2.2382                 1.8002
 Frc consts  --      0.8122                 0.3863                 0.3230
 IR Inten    --      6.0164                33.8529                58.1850

                     19                     20                     21
                      A                      A                      A
 Frequencies --    570.4882               578.2116               615.4099
 Red. masses --      1.1127                 6.9272                 4.3498
 Frc consts  --      0.2134                 1.3645                 0.9706
 IR Inten    --    113.6254                 4.0665                 5.0399

                     22                     23                     24
                      A                      A                      A
 Frequencies --    620.1986               666.3805               696.2138
 Red. masses --      5.6663                 5.1349                 4.1927
 Frc consts  --      1.2841                 1.3435                 1.1974
 IR Inten    --     22.0273                27.3832                 0.7699

                     25                     26                     27
                      A                      A                      A
 Frequencies --    713.2946               739.5146               763.6031
 Red. masses --      7.1389                 2.4153                 7.4750
 Frc consts  --      2.1400                 0.7782                 2.5680
 IR Inten    --      2.5705                11.4698                79.1346

                     28                     29                     30
                      A                      A                      A
 Frequencies --    770.6749               800.4593               825.0959
 Red. masses --      2.1562                 6.0231                 1.0881
 Frc consts  --      0.7545                 2.2738                 0.4364
 IR Inten    --     18.0266                 1.4217                 0.3601

                     31                     32                     33
                      A                      A                      A
 Frequencies --    858.0702               880.9046               927.2247
 Red. masses --      1.4053                 5.4149                 2.4780
 Frc consts  --      0.6096                 2.4757                 1.2552
 IR Inten    --      3.6510                26.0215                 5.0704

                     34                     35                     36
                      A                      A                      A
 Frequencies --    947.0409               993.8412              1053.8072
 Red. masses --      1.2356                 8.4449                 3.4680
 Frc consts  --      0.6529                 4.9145                 2.2691
 IR Inten    --      0.5221                12.3667                15.2169

                     37                     38                     39
                      A                      A                      A
 Frequencies --   1083.9594              1105.8753              1125.4868
 Red. masses --      2.2951                 4.5735                 2.7397
 Frc consts  --      1.5888                 3.2954                 2.0447
 IR Inten    --     20.5037                18.7824               122.4861

                     40                     41                     42
                      A                      A                      A
 Frequencies --   1150.1971              1188.1092              1193.4618
 Red. masses --      2.0892                 1.5245                 1.3795
 Frc consts  --      1.6284                 1.2679                 1.1577
 IR Inten    --      9.2507                 3.9973                28.0650

                     43                     44                     45
                      A                      A                      A
 Frequencies --   1211.1769              1233.3325              1273.5011
 Red. masses --      1.6442                 2.0229                 4.2112
 Frc consts  --      1.4211                 1.8129                 4.0240
 IR Inten    --    114.5163               676.3465                 0.3666

                     46                     47                     48
                      A                      A                      A
 Frequencies --   1313.9593              1315.2085              1339.1509
 Red. masses --      2.3568                 1.1021                 6.3289
 Frc consts  --      2.3974                 1.1232                 6.6871
 IR Inten    --    203.2479                 0.5667               141.7558

                     49                     50                     51
                      A                      A                      A
 Frequencies --   1415.1959              1419.0522              1438.8338
 Red. masses --      5.9829                 1.3152                 3.0266
 Frc consts  --      7.0598                 1.5605                 3.6917
 IR Inten    --     27.8835                13.9295               497.8016

                     52                     53                     54
                      A                      A                      A
 Frequencies --   1445.0346              1457.8182              1493.6145
 Red. masses --      1.7946                 2.2482                 3.3084
 Frc consts  --      2.2078                 2.8151                 4.3485
 IR Inten    --     63.3326               152.6417               196.8839

                     55                     56                     57
                      A                      A                      A
 Frequencies --   1514.7445              1523.5972              1541.2412
 Red. masses --      1.0404                 1.0690                 1.1683
 Frc consts  --      1.4065                 1.4620                 1.6351
 IR Inten    --      4.9011                16.5354                37.5331

                     58                     59                     60
                      A                      A                      A
 Frequencies --   1560.4007              1610.9184              1645.6700
 Red. masses --      2.6878                 8.8394                 7.0226
 Frc consts  --      3.8558                13.5151                11.2055
 IR Inten    --     44.9169               120.4649               169.3601

                     61                     62                     63
                      A                      A                      A
 Frequencies --   1678.7744              1836.7926              3059.9335
 Red. masses --      7.6750                 9.9196                 1.0350
 Frc consts  --     12.7443                19.7181                 5.7099
 IR Inten    --    107.8277               334.8616                22.6491

                     64                     65                     66
                      A                      A                      A
 Frequencies --   3070.2849              3109.9271              3132.2361
 Red. masses --      1.0576                 1.1076                 1.1019
 Frc consts  --      5.8740                 6.3117                 6.3697
 IR Inten    --     16.6530                 5.9792                26.2682

                     67                     68                     69
                      A                      A                      A
 Frequencies --   3139.9059              3194.9141              3214.4370
 Red. masses --      1.1053                 1.0868                 1.0915
 Frc consts  --      6.4204                 6.5359                 6.6446
 IR Inten    --     44.7372                 7.7926                11.9922

                     70                     71                     72
                      A                      A                      A
 Frequencies --   3221.2276              3645.0847              3737.6998
 Red. masses --      1.0954                 1.0808                 1.0649
 Frc consts  --      6.6968                 8.4604                 8.7653
 IR Inten    --     12.7400               185.1534               139.4871

 - Thermochemistry -
 -------------------
 Temperature   298.150 Kelvin.  Pressure   1.00000 Atm.
 Atom     1 has atomic number  6 and mass  12.00000

 Molecular mass:   222.06406 amu.
 Principal axes and moments of inertia in atomic units:
                           1         2         3
     Eigenvalues --  2079.468435653.187897710.12922
           X            0.99963  -0.02712   0.00000
           Y            0.02712   0.99963  -0.00000
           Z           -0.00000   0.00000   1.00000
 This molecule is an asymmetric top.
 Rotational symmetry number  1.
 Warning -- assumption of classical behavior for rotation
           may cause significant error
 Rotational temperatures (Kelvin)      0.04165     0.01532     0.01123
 Rotational constants (GHZ):           0.86789     0.31924     0.23407
 Zero-point vibrational energy     522975.8 (Joules/Mol)
                                  124.99422 (Kcal/Mol)
 Warning -- explicit consideration of  22 degrees of freedom as
           vibrations may cause significant error
 Vibrational temperatures:     44.67    58.75    98.31   120.92   146.49
          (Kelvin)            238.46   244.51   280.11   371.71   375.23
                              398.20   479.20   523.37   525.64   626.04
                              763.74   778.72   794.00   820.81   831.92
                              885.44   892.33   958.77  1001.70  1026.27
                             1064.00  1098.65  1108.83  1151.68  1187.13
                             1234.57  1267.43  1334.07  1362.58  1429.92
                             1516.19  1559.58  1591.11  1619.32  1654.88
                             1709.42  1717.13  1742.61  1774.49  1832.28
                             1890.49  1892.29  1926.74  2036.15  2041.70
                             2070.16  2079.08  2097.48  2148.98  2179.38
                             2192.12  2217.50  2245.07  2317.75  2367.75
                             2415.38  2642.73  4402.56  4417.46  4474.49
                             4506.59  4517.62  4596.77  4624.86  4634.63
                             5244.46  5377.72

 Zero-point correction=                           0.199191 (Hartree/Particle)
 Thermal correction to Energy=                    0.213144
 Thermal correction to Enthalpy=                  0.214088
 Thermal correction to Gibbs Free Energy=         0.156778
 Sum of electronic and zero-point Energies=           -797.346657
 Sum of electronic and thermal Energies=              -797.332704
 Sum of electronic and thermal Enthalpies=            -797.331760
 Sum of electronic and thermal Free Energies=         -797.389070

                     E (Thermal)             CV                S
                      KCal/Mol        Cal/Mol-Kelvin    Cal/Mol-Kelvin
 Total                  133.750             52.429            120.619
 Electronic               0.000              0.000              0.000
 Translational            0.889              2.981             42.096
 Rotational               0.889              2.981             32.872
 Vibrational            131.972             46.468             45.652
 Vibration     1          0.594              1.983              5.761
 Vibration     2          0.594              1.981              5.218
 Vibration     3          0.598              1.969              4.201
 Vibration     4          0.601              1.960              3.794
 Vibration     5          0.604              1.948              3.419
 Vibration     6          0.624              1.885              2.483
 Vibration     7          0.625              1.879              2.436
 Vibration     8          0.635              1.847              2.183
 Vibration     9          0.667              1.749              1.673
 Vibration    10          0.669              1.744              1.656
 Vibration    11          0.678              1.716              1.554
 Vibration    12          0.715              1.609              1.245
 Vibration    13          0.737              1.547              1.106
 Vibration    14          0.739              1.544              1.099
 Vibration    15          0.796              1.394              0.842
 Vibration    16          0.886              1.182              0.585
 Vibration    17          0.896              1.159              0.563
 Vibration    18          0.907              1.136              0.540
 Vibration    19          0.927              1.095              0.503
 Vibration    20          0.935              1.078              0.489
 Vibration    21          0.975              0.999              0.424
 Vibration    22          0.980              0.989              0.416

 Optimization completed.
    -- Stationary point found.
 Normal termination of Gaussian 16 at Thu Dec 10 21:22:10 2020.

 ----------------------------------------------------------------------
 # B3LYP/6-311++G(d,p) empiricaldispersion=gd3bj scf=xqc pop=npa geom=c
 heck
 ----------------------------------------------------------------------

 --------------------------------------
 CID_70365275_JID_6130_Energie_neutraal
 --------------------------------------
 Structure from the checkpoint file:  "JID_6130.chk"
 Charge =  0 Multiplicity = 1

 SCF Done:  E(RB3LYP) =  -797.776854626     A.U. after   16 cycles
 Normal termination of Gaussian 16 at Thu Dec 10 21:25:01 2020.

 ----------------------------------------------------------------------
 # B3LYP/6-311++G(d,p) empiricaldispersion=gd3bj scf=xqc pop=npa geom=c
 heck
 ----------------------------------------------------------------------

 ------------------------------------
 CID_70365275_JID_6130_Energie_kation
 ------------------------------------
 Structure from the checkpoint file:  "JID_6130.chk"
 Charge =  1 Multiplicity = 2

 SCF Done:  E(UB3LYP) =  -797.499801522     A.U. after   22 cycles
 Normal termination of Gaussian 16 at Thu Dec 10 21:30:05 2020.
 Gaussian 16:  ES64L-G16RevA.03 25-Dec-2016

 ----------------------------------------------------------------------
 # B3LYP/6-311++G(d,p) empiricaldispersion=gd3bj scf=xqc pop=npa geom=c
 heck
 ----------------------------------------------------------------------

 -----------------------------------
 CID_70365275_JID_6130_Energie_anion
 -----------------------------------
 Structure from the checkpoint file:  "JID_6130.chk"
 Charge = -1 Multiplicity = 2

                         Standard orientation:
 ---------------------------------------------------------------------
 Center     Atomic      Atomic             Coordinates (Angstroms)
 Number     Number       Type             X           Y           Z
 ---------------------------------------------------------------------
      1          6           0        3.763691   -2.900455    0.000158
      2          6           0        2.546100   -1.995928   -0.000129
      3          8           0        3.035953   -0.645480   -0.000057
      4          6           0        2.169213    0.396714    0.000003
      5          6           0        2.742194    1.673951    0.000150
      6          6           0        1.964995    2.838774    0.000179
      7          6           0        0.572115    2.794591    0.000068
      8          6           0        0.007688    1.521806   -0.000103
      9          6           0        0.760904    0.318238   -0.000131
     10          7           0       -0.097318   -0.786645   -0.000133
     11          6           0       -1.284038   -0.264489   -0.000156
     12          7           0       -1.318599    1.104139   -0.000027
     13          8           0       -2.397882   -1.066260   -0.000246
     14          6           0       -3.639236   -0.546484    0.000017
     15          8           0       -3.945840    0.626845   -0.000156
     16          8           0       -4.499689   -1.569572    0.000445
     17          1           0        4.379518   -2.720972   -0.886974
     18          1           0        3.450044   -3.949917   -0.000176
     19          1           0        4.378875   -2.721340    0.887804
     20          1           0        1.919076   -2.161356   -0.881952
     21          1           0        1.918653   -2.161348    0.881396
     22          1           0        3.825344    1.734445    0.000276
     23          1           0        2.466926    3.801832    0.000288
     24          1           0       -0.032632    3.695047    0.000052
     25          1           0       -2.166968    1.652299   -0.000318
     26          1           0       -5.389514   -1.175725    0.000504
 ---------------------------------------------------------------------

 SCF Done:  E(UB3LYP) =  -797.768872205     A.U. after   33 cycles
 SCF Done:  E(UB3LYP) =  -797.768872205     a.u. after    1 cycles

 The electronic state is 2-A.
 Alpha  occ. eigenvalues --  -19.11993 -19.08123 -19.06689 -19.03749 -14.28305
 Alpha  occ. eigenvalues --  -14.21863 -10.27782 -10.22028 -10.15292 -10.13758
 Alpha  occ. eigenvalues --  -10.13183 -10.11870 -10.09112 -10.08746 -10.08698
 Alpha  occ. eigenvalues --  -10.08090  -1.08294  -0.99985  -0.98284  -0.94930
 Alpha  occ. eigenvalues --   -0.93326  -0.80776  -0.76354  -0.69719  -0.67341
 Alpha  occ. eigenvalues --   -0.64528  -0.61404  -0.56158  -0.54605  -0.52512
 Alpha  occ. eigenvalues --   -0.50464  -0.47851  -0.46396  -0.42659  -0.42658
 Alpha  occ. eigenvalues --   -0.41374  -0.40659  -0.40004  -0.38571  -0.36689
 Alpha  occ. eigenvalues --   -0.36623  -0.35088  -0.32592  -0.31881  -0.31844
 Alpha  occ. eigenvalues --   -0.31783  -0.29555  -0.29384  -0.28654  -0.26390
 Alpha  occ. eigenvalues --   -0.25784  -0.24502  -0.23100  -0.22123  -0.21508
 Alpha  occ. eigenvalues --   -0.20429  -0.14706  -0.12442   0.04245
 Alpha virt. eigenvalues --    0.05621   0.05936   0.06813   0.07554   0.08832
 Alpha virt. eigenvalues --    0.08837   0.09000   0.09029   0.10347   0.10533
 Alpha virt. eigenvalues --    0.11285   0.12140   0.12909   0.13449   0.13502

  Beta  occ. eigenvalues --  -19.11958 -19.08007 -19.06687 -19.03721 -14.28284
  Beta  occ. eigenvalues --  -14.21857 -10.27772 -10.22022 -10.15292 -10.13754
  Beta  occ. eigenvalues --  -10.13184 -10.11867 -10.09106 -10.08730 -10.08685
  Beta  occ. eigenvalues --  -10.08088  -1.08208  -0.99849  -0.98280  -0.94829
  Beta  occ. eigenvalues --   -0.93293  -0.80753  -0.76340  -0.69706  -0.67293
  Beta  occ. eigenvalues --   -0.64511  -0.61337  -0.56133  -0.54576  -0.52493
  Beta  occ. eigenvalues --   -0.50365  -0.47761  -0.46377  -0.42624  -0.42589
  Beta  occ. eigenvalues --   -0.41332  -0.40632  -0.39995  -0.38552  -0.36647
  Beta  occ. eigenvalues --   -0.36582  -0.35020  -0.32541  -0.31863  -0.31827
  Beta  occ. eigenvalues --   -0.31749  -0.29535  -0.29347  -0.28636  -0.26375
  Beta  occ. eigenvalues --   -0.25771  -0.24428  -0.23089  -0.22057  -0.21499
  Beta  occ. eigenvalues --   -0.20415  -0.14694  -0.12434
  Beta virt. eigenvalues --    0.05734   0.06388   0.06839   0.07603   0.08441
  Beta virt. eigenvalues --    0.08799   0.09008   0.09018   0.09433   0.10395
  Beta virt. eigenvalues --    0.10683   0.11808   0.12086   0.13023   0.13413

 Mulliken charges and spin densities:
               1          2
     1  C    0.278030  -1.032491
     2  C   -0.468104   0.393980
     3  O   -0.166390   0.003535
     4  C   -0.565521   0.630720
     5  C   -0.728327   0.133844
     6  C    0.496262  -0.628598
     7  C   -1.582174   0.954839
     8  C    1.087342  -0.840786
     9  C    1.249638  -1.123627
    10  N   -0.045416  -0.194868
    11  C    1.503020  -0.893297
    12  N   -0.120965  -0.089318
    13  O   -0.108160  -0.041357
    14  C   -0.042385   0.341696
    15  O   -0.235281  -0.044720
    16  O   -0.143700  -0.032552
    17  H    0.038868   0.105744
    18  H    0.003565   0.135839
    19  H    0.038888   0.105727
    20  H    0.127508   0.074374
    21  H    0.127589   0.074269
    22  H    0.066916   0.095579
    23  H   -0.078777   0.246947
    24  H   -0.660364   0.809687
    25  H    0.197612   0.195727
    26  H   -1.269674   1.619107
 Sum of Mulliken charges =  -1.00000   1.00000

 Dipole moment (field-independent basis, Debye):
    X=             11.0333    Y=              0.8106    Z=             -0.0011  Tot=             11.0631
 Quadrupole moment (field-independent basis, Debye-Ang):
   XX=           -212.7455   YY=           -135.9875   ZZ=           -111.0481
   XY=            -14.6026   XZ=              0.0076   YZ=              0.0021

 Summary of Natural Population Analysis:

                                       Natural Population
                Natural  -----------------------------------------------
    Atom  No    Charge         Core      Valence    Rydberg      Total
 -----------------------------------------------------------------------
      C    1   -0.29211      0.99966     2.28788    0.00456     3.29211
      C    2   -0.01394      0.99959     2.00291    0.01144     3.01394
      O    3   -0.27771      0.99985     3.26878    0.00908     4.27771
      C    4    0.14726      0.99938     1.83652    0.01684     2.85274
      C    5   -0.13608      0.99954     2.12662    0.00992     3.13608
      C    6   -0.09664      0.99958     2.08752    0.00954     3.09664
      C    7   -0.13263      0.99952     2.12386    0.00925     3.13263
      C    8    0.05725      0.99952     1.92703    0.01620     2.94275
      C    9    0.07129      0.99943     1.92129    0.00799     2.92871
      N   10   -0.27677      0.99966     2.76433    0.01277     3.77677
      C   11    0.35012      0.99949     1.62858    0.02182     2.64988
      N   12   -0.29030      0.99962     2.78286    0.00782     3.79030
      O   13   -0.25307      0.99981     3.24449    0.00877     4.25307
      C   14    0.51599      0.99975     1.45662    0.02763     2.48401
      O   15   -0.32523      0.99986     3.31808    0.00730     4.32523
      O   16   -0.32583      0.99987     3.31961    0.00636     4.32583
      H   17    0.09880      0.00000     0.39967    0.00152     0.40120
      H   18    0.10021      0.00000     0.39881    0.00098     0.39979
      H   19    0.09880      0.00000     0.39968    0.00152     0.40120
      H   20    0.09049      0.00000     0.40736    0.00216     0.40951
      H   21    0.09050      0.00000     0.40734    0.00216     0.40950
      H   22    0.10449      0.00000     0.39446    0.00105     0.39551
      H   23    0.10032      0.00000     0.39887    0.00081     0.39968
      H   24    0.10707      0.00000     0.39148    0.00145     0.39293
      H   25    0.22656      0.00000     0.27101    0.00243     0.27344
      H   26    0.26134      0.00000     0.15293    0.08573     0.23866
 =======================================================================
   * Total *    0.00017     15.99415    41.71858    0.28710    57.99983

 Normal termination of Gaussian 16 at Thu Dec 10 21:38:05 2020.
