 Gaussian 16, Revision A.03,

 -----------------------------------------------------------
 # opt freq B3LYP/6-31G(d) empiricaldispersion=gd3bj scf=xqc
 -----------------------------------------------------------

 ------------------------------
 CID_23262996_JID_6424_neutraal
 ------------------------------
 Symbolic Z-matrix:
 Charge =  0 Multiplicity = 1

 SCF Done:  E(RB3LYP) =  -657.700128340     A.U. after   15 cycles
 SCF Done:  E(RB3LYP) =  -657.704096716     A.U. after   13 cycles
 SCF Done:  E(RB3LYP) =  -657.704872123     A.U. after   13 cycles
 SCF Done:  E(RB3LYP) =  -657.705908937     A.U. after   13 cycles
 SCF Done:  E(RB3LYP) =  -657.706887459     A.U. after   13 cycles
 SCF Done:  E(RB3LYP) =  -657.707191385     A.U. after   13 cycles
 SCF Done:  E(RB3LYP) =  -657.707205778     A.U. after   11 cycles
 SCF Done:  E(RB3LYP) =  -657.707242606     A.U. after   11 cycles
 SCF Done:  E(RB3LYP) =  -657.707246935     A.U. after   10 cycles
 SCF Done:  E(RB3LYP) =  -657.707247834     A.U. after    8 cycles
 SCF Done:  E(RB3LYP) =  -657.707250139     A.U. after    9 cycles
 SCF Done:  E(RB3LYP) =  -657.707251046     A.U. after    9 cycles
 SCF Done:  E(RB3LYP) =  -657.707252583     A.U. after    9 cycles
 SCF Done:  E(RB3LYP) =  -657.707253604     A.U. after    9 cycles
 SCF Done:  E(RB3LYP) =  -657.707253835     A.U. after    8 cycles
 SCF Done:  E(RB3LYP) =  -657.707253862     A.U. after    6 cycles
 Optimization completed on the basis of negligible forces.
    -- Stationary point found.
 Normal termination of Gaussian 16 at Thu Dec 10 22:49:41 2020.

 --------------------------------------------------------------------
 #N Geom=AllCheck Guess=TCheck SCRF=Check GenChk RB3LYP/6-31G(d) Freq
 --------------------------------------------------------------------

 Structure from the checkpoint file:  "JID_6424.chk"
 ------------------------------
 CID_23262996_JID_6424_neutraal
 ------------------------------
 Charge =  0 Multiplicity = 1

 SCF Done:  E(RB3LYP) =  -657.707253862     A.U. after    1 cycles

  Exact polarizability: 306.384  12.236 171.466   0.827   1.396  87.403
 Approx polarizability: 460.107  46.133 273.712  10.394   5.446 136.037

                      1                      2                      3
                      A                      A                      A
 Frequencies --     24.2474                35.1297                44.8279
 Red. masses --      4.3062                 1.0471                 3.8793
 Frc consts  --      0.0015                 0.0008                 0.0046
 IR Inten    --      1.0622                 0.1844                 0.9369

                      4                      5                      6
                      A                      A                      A
 Frequencies --     62.7418               113.5116               129.0231
 Red. masses --      3.8907                 3.6966                 3.3471
 Frc consts  --      0.0090                 0.0281                 0.0328
 IR Inten    --      0.7748                 2.1254                 4.1483

                      7                      8                      9
                      A                      A                      A
 Frequencies --    173.0179               175.8533               188.6269
 Red. masses --      1.8770                 2.4700                 1.7190
 Frc consts  --      0.0331                 0.0450                 0.0360
 IR Inten    --      6.6660                 1.3112                 0.9000

                     10                     11                     12
                      A                      A                      A
 Frequencies --    193.9716               216.2226               226.7040
 Red. masses --      1.4859                 2.7380                 2.0971
 Frc consts  --      0.0329                 0.0754                 0.0635
 IR Inten    --      0.6916                 0.8212                 0.0482

                     13                     14                     15
                      A                      A                      A
 Frequencies --    230.6569               237.2072               254.3569
 Red. masses --      1.5093                 3.6599                 1.1168
 Frc consts  --      0.0473                 0.1213                 0.0426
 IR Inten    --      0.1086                 2.0012                 0.5399

                     16                     17                     18
                      A                      A                      A
 Frequencies --    285.5761               323.8231               340.3370
 Red. masses --      2.5478                 3.4510                 3.0744
 Frc consts  --      0.1224                 0.2132                 0.2098
 IR Inten    --      0.8384                 2.1611                 4.2174

                     19                     20                     21
                      A                      A                      A
 Frequencies --    374.5563               423.8757               484.1545
 Red. masses --      2.9202                 4.1309                 3.3275
 Frc consts  --      0.2414                 0.4373                 0.4595
 IR Inten    --      0.5035                 0.3050                13.4241

                     22                     23                     24
                      A                      A                      A
 Frequencies --    499.2409               526.2371               529.1823
 Red. masses --      4.3838                 3.8929                 3.1753
 Frc consts  --      0.6438                 0.6352                 0.5239
 IR Inten    --      9.5837                 0.4853                 0.8665

                     25                     26                     27
                      A                      A                      A
 Frequencies --    535.4338               579.1854               589.2445
 Red. masses --      3.5693                 4.1218                 3.4439
 Frc consts  --      0.6029                 0.8146                 0.7045
 IR Inten    --      0.3399                 0.1452                 1.6932

                     28                     29                     30
                      A                      A                      A
 Frequencies --    595.2301               622.7898               742.8090
 Red. masses --      3.5565                 4.0000                 3.6962
 Frc consts  --      0.7424                 0.9141                 1.2016
 IR Inten    --      1.8962                 4.7967                 0.7307

                     31                     32                     33
                      A                      A                      A
 Frequencies --    832.5509               861.2043               876.9891
 Red. masses --      3.4876                 1.4983                 1.2913
 Frc consts  --      1.4243                 0.6547                 0.5851
 IR Inten    --      6.8552                10.8694                 5.4283

                     34                     35                     36
                      A                      A                      A
 Frequencies --    892.0939               900.2830               910.3293
 Red. masses --      2.3197                 1.2961                 1.8907
 Frc consts  --      1.0877                 0.6190                 0.9231
 IR Inten    --      6.8821                 0.1788                 5.8395

                     37                     38                     39
                      A                      A                      A
 Frequencies --    962.8929               988.4052              1006.7763
 Red. masses --      2.5616                 3.7689                 1.5121
 Frc consts  --      1.3993                 2.1694                 0.9030
 IR Inten    --      0.8906                 0.1410                24.5627

                     40                     41                     42
                      A                      A                      A
 Frequencies --   1014.6249              1046.8253              1047.5803
 Red. masses --      1.3128                 1.5813                 1.5895
 Frc consts  --      0.7963                 1.0210                 1.0277
 IR Inten    --     10.0934                 3.4472                 1.4693

                     43                     44                     45
                      A                      A                      A
 Frequencies --   1051.9628              1065.2271              1071.7936
 Red. masses --      1.4964                 1.6223                 1.5520
 Frc consts  --      0.9757                 1.0846                 1.0504
 IR Inten    --      6.4166                 2.3161                 7.2814

                     46                     47                     48
                      A                      A                      A
 Frequencies --   1074.0804              1074.4531              1077.1928
 Red. masses --      1.5197                 1.5160                 1.5371
 Frc consts  --      1.0329                 1.0312                 1.0508
 IR Inten    --     10.6986                 2.6578                 1.3818

                     49                     50                     51
                      A                      A                      A
 Frequencies --   1143.3490              1188.4970              1237.2811
 Red. masses --      4.5484                 2.2032                 1.7661
 Frc consts  --      3.5032                 1.8336                 1.5929
 IR Inten    --    115.2388                 2.2742                19.5307

                     52                     53                     54
                      A                      A                      A
 Frequencies --   1256.1770              1293.5422              1320.2846
 Red. masses --      1.8334                 1.6272                 5.3742
 Frc consts  --      1.7045                 1.6042                 5.5195
 IR Inten    --      7.4298                 2.4525                 3.4547

                     55                     56                     57
                      A                      A                      A
 Frequencies --   1333.5924              1353.5527              1381.8357
 Red. masses --      2.1066                 1.8626                 1.5416
 Frc consts  --      2.2074                 2.0106                 1.7344
 IR Inten    --      9.8690                 0.4442                14.8203

                     58                     59                     60
                      A                      A                      A
 Frequencies --   1403.6379              1440.4182              1441.7009
 Red. masses --      2.0376                 1.3015                 1.2428
 Frc consts  --      2.3652                 1.5910                 1.5219
 IR Inten    --     21.4721                 9.5279                 0.6405

                     61                     62                     63
                      A                      A                      A
 Frequencies --   1443.9536              1446.7833              1455.1505
 Red. masses --      1.2340                 1.2698                 1.3139
 Frc consts  --      1.5159                 1.5659                 1.6392
 IR Inten    --      0.4288                 0.2072                31.3807

                     64                     65                     66
                      A                      A                      A
 Frequencies --   1466.0503              1491.0827              1511.0285
 Red. masses --      2.5582                 2.1858                 1.0463
 Frc consts  --      3.2396                 2.8633                 1.4075
 IR Inten    --      2.0189                 3.3833                 8.1179

                     67                     68                     69
                      A                      A                      A
 Frequencies --   1516.4830              1518.3569              1519.3023
 Red. masses --      1.0518                 1.0550                 1.0519
 Frc consts  --      1.4251                 1.4330                 1.4306
 IR Inten    --      6.8247                12.5006                 0.9091

                     70                     71                     72
                      A                      A                      A
 Frequencies --   1522.7789              1524.9097              1532.2075
 Red. masses --      1.0795                 1.0944                 1.1564
 Frc consts  --      1.4749                 1.4994                 1.5995
 IR Inten    --      8.3816                 2.4162                27.6540

                     73                     74                     75
                      A                      A                      A
 Frequencies --   1541.9911              1617.3236              1654.8499
 Red. masses --      1.3294                 5.9823                 5.4840
 Frc consts  --      1.8624                 9.2197                 8.8484
 IR Inten    --     11.4572                10.5763                52.2238

                     76                     77                     78
                      A                      A                      A
 Frequencies --   1667.4156              1690.1755              1767.6856
 Red. masses --      5.2557                 4.7490                 8.7736
 Frc consts  --      8.6093                 7.9932                16.1525
 IR Inten    --     88.0786               118.4127               410.0114

                     79                     80                     81
                      A                      A                      A
 Frequencies --   2932.4068              3039.3661              3042.3189
 Red. masses --      1.0823                 1.0413                 1.0402
 Frc consts  --      5.4832                 5.6676                 5.6724
 IR Inten    --     70.9171                26.3224                39.1974

                     82                     83                     84
                      A                      A                      A
 Frequencies --   3043.6230              3048.8345              3093.0501
 Red. masses --      1.0436                 1.0386                 1.0968
 Frc consts  --      5.6961                 5.6880                 6.1826
 IR Inten    --     12.5576                14.1692                18.1587

                     85                     86                     87
                      A                      A                      A
 Frequencies --   3098.5881              3100.9455              3103.0188
 Red. masses --      1.0964                 1.0999                 1.0920
 Frc consts  --      6.2022                 6.2316                 6.1951
 IR Inten    --     21.2819                14.2655                22.4254

                     88                     89                     90
                      A                      A                      A
 Frequencies --   3127.5965              3131.1842              3135.6182
 Red. masses --      1.1023                 1.1004                 1.1026
 Frc consts  --      6.3530                 6.3563                 6.3870
 IR Inten    --     14.7627                19.1963                11.5453

                     91                     92                     93
                      A                      A                      A
 Frequencies --   3146.5772              3172.3660              3174.1771
 Red. masses --      1.1002                 1.0897                 1.0902
 Frc consts  --      6.4181                 6.4611                 6.4716
 IR Inten    --     18.1396                29.2170                25.2747

                     94                     95                     96
                      A                      A                      A
 Frequencies --   3187.2328              3188.6778              3245.4924
 Red. masses --      1.0894                 1.0863                 1.0870
 Frc consts  --      6.5204                 6.5077                 6.7459
 IR Inten    --      5.5287                15.3152                 8.1883

 - Thermochemistry -
 -------------------
 Temperature   298.150 Kelvin.  Pressure   1.00000 Atm.
 Atom     1 has atomic number  6 and mass  12.00000

 Molecular mass:   214.13577 amu.
 Principal axes and moments of inertia in atomic units:
                           1         2         3
     Eigenvalues --  1809.990727559.504268958.04439
           X            0.99985  -0.01570  -0.00738
           Y            0.01563   0.99984  -0.00879
           Z            0.00752   0.00868   0.99993
 This molecule is an asymmetric top.
 Rotational symmetry number  1.
 Warning -- assumption of classical behavior for rotation
           may cause significant error
 Rotational temperatures (Kelvin)      0.04785     0.01146     0.00967
 Rotational constants (GHZ):           0.99710     0.23874     0.20147
 Zero-point vibrational energy     760857.9 (Joules/Mol)
                                  181.84941 (Kcal/Mol)
 Warning -- explicit consideration of  28 degrees of freedom as
           vibrations may cause significant error
 Vibrational temperatures:     34.89    50.54    64.50    90.27   163.32
          (Kelvin)            185.64   248.93   253.01   271.39   279.08
                              311.10   326.18   331.86   341.29   365.96
                              410.88   465.91   489.67   538.90   609.86
                              696.59   718.30   757.14   761.38   770.37
                              833.32   847.79   856.40   896.06  1068.74
                             1197.86  1239.08  1261.79  1283.52  1295.31
                             1309.76  1385.39  1422.09  1448.53  1459.82
                             1506.15  1507.23  1513.54  1532.62  1542.07
                             1545.36  1545.90  1549.84  1645.02  1709.98
                             1780.17  1807.36  1861.12  1899.59  1918.74
                             1947.46  1988.15  2019.52  2072.44  2074.29
                             2077.53  2081.60  2093.64  2109.32  2145.34
                             2174.03  2181.88  2184.58  2185.94  2190.94
                             2194.00  2204.50  2218.58  2326.97  2380.96
                             2399.04  2431.79  2543.31  4219.08  4372.97
                             4377.22  4379.09  4386.59  4450.21  4458.18
                             4461.57  4464.55  4499.91  4505.08  4511.46
                             4527.22  4564.33  4566.93  4585.72  4587.80
                             4669.54

 Zero-point correction=                           0.289795 (Hartree/Particle)
 Thermal correction to Energy=                    0.306919
 Thermal correction to Enthalpy=                  0.307863
 Thermal correction to Gibbs Free Energy=         0.243941
 Sum of electronic and zero-point Energies=           -657.417458
 Sum of electronic and thermal Energies=              -657.400335
 Sum of electronic and thermal Enthalpies=            -657.399390
 Sum of electronic and thermal Free Energies=         -657.463313

                     E (Thermal)             CV                S
                      KCal/Mol        Cal/Mol-Kelvin    Cal/Mol-Kelvin
 Total                  192.595             63.170            134.535
 Electronic               0.000              0.000              0.000
 Translational            0.889              2.981             41.988
 Rotational               0.889              2.981             33.171
 Vibrational            190.817             57.209             59.376
 Vibration     1          0.593              1.985              6.252
 Vibration     2          0.594              1.982              5.516
 Vibration     3          0.595              1.979              5.033
 Vibration     4          0.597              1.972              4.369
 Vibration     5          0.607              1.938              3.208
 Vibration     6          0.612              1.924              2.961
 Vibration     7          0.627              1.876              2.402
 Vibration     8          0.628              1.872              2.372
 Vibration     9          0.633              1.855              2.241
 Vibration    10          0.635              1.848              2.190
 Vibration    11          0.645              1.816              1.990
 Vibration    12          0.650              1.800              1.905
 Vibration    13          0.652              1.794              1.874
 Vibration    14          0.656              1.784              1.824
 Vibration    15          0.665              1.755              1.700
 Vibration    16          0.683              1.700              1.500
 Vibration    17          0.708              1.628              1.291
 Vibration    18          0.720              1.595              1.211
 Vibration    19          0.746              1.524              1.061
 Vibration    20          0.786              1.418              0.879
 Vibration    21          0.840              1.285              0.699
 Vibration    22          0.855              1.252              0.660
 Vibration    23          0.881              1.192              0.596
 Vibration    24          0.884              1.185              0.589
 Vibration    25          0.890              1.172              0.575
 Vibration    26          0.936              1.076              0.487
 Vibration    27          0.947              1.055              0.469
 Vibration    28          0.953              1.042              0.458

 Optimization completed on the basis of negligible forces.
    -- Stationary point found.
 Normal termination of Gaussian 16 at Thu Dec 10 22:59:52 2020.

 ----------------------------------------------------------------------
 # B3LYP/6-311++G(d,p) empiricaldispersion=gd3bj scf=xqc pop=npa geom=c
 heck
 ----------------------------------------------------------------------

 --------------------------------------
 CID_23262996_JID_6424_Energie_neutraal
 --------------------------------------
 Structure from the checkpoint file:  "JID_6424.chk"
 Charge =  0 Multiplicity = 1

 SCF Done:  E(RB3LYP) =  -657.882965095     A.U. after   16 cycles
 Normal termination of Gaussian 16 at Thu Dec 10 23:06:18 2020.

 ----------------------------------------------------------------------
 # B3LYP/6-311++G(d,p) empiricaldispersion=gd3bj scf=xqc pop=npa geom=c
 heck
 ----------------------------------------------------------------------

 ------------------------------------
 CID_23262996_JID_6424_Energie_kation
 ------------------------------------
 Structure from the checkpoint file:  "JID_6424.chk"
 Charge =  1 Multiplicity = 2

 SCF Done:  E(UB3LYP) =  -657.600004883     A.U. after   25 cycles
 Normal termination of Gaussian 16 at Thu Dec 10 23:16:53 2020.
 Gaussian 16:  ES64L-G16RevA.03 25-Dec-2016

 ----------------------------------------------------------------------
 # B3LYP/6-311++G(d,p) empiricaldispersion=gd3bj scf=xqc pop=npa geom=c
 heck
 ----------------------------------------------------------------------

 -----------------------------------
 CID_23262996_JID_6424_Energie_anion
 -----------------------------------
 Structure from the checkpoint file:  "JID_6424.chk"
 Charge = -1 Multiplicity = 2

                         Standard orientation:
 ---------------------------------------------------------------------
 Center     Atomic      Atomic             Coordinates (Angstroms)
 Number     Number       Type             X           Y           Z
 ---------------------------------------------------------------------
      1          6           0        5.092948   -1.039193   -0.344645
      2          6           0        3.673233   -0.570859   -0.147560
      3          6           0        2.671762   -1.450455    0.261330
      4          6           0        1.340619   -1.052520    0.418716
      5          6           0        0.991627    0.296310    0.162381
      6          6           0        2.009177    1.209056   -0.223755
      7          6           0        3.317801    0.761370   -0.380086
      8          6           0        1.693086    2.661740   -0.496003
      9          6           0       -0.369140    0.820696    0.310638
     10          6           0       -1.530661    0.185034    0.036142
     11          6           0       -2.850619    0.776563    0.203399
     12          6           0       -4.000665    0.107184   -0.090283
     13          6           0       -4.120244   -1.261283   -0.588998
     14          8           0       -5.195802   -1.789506   -0.828660
     15          6           0       -2.942444    2.190446    0.723975
     16          6           0        0.351084   -2.086414    0.904221
     17          1           0        5.283914   -1.973905    0.191763
     18          1           0        5.305167   -1.220274   -1.406627
     19          1           0        5.813306   -0.291542    0.005058
     20          1           0        2.933010   -2.484566    0.475174
     21          1           0        4.083167    1.469713   -0.689828
     22          1           0        0.905931    2.773482   -1.250423
     23          1           0        1.348255    3.182381    0.407207
     24          1           0        2.581362    3.188131   -0.856178
     25          1           0       -0.427960    1.852610    0.645506
     26          1           0       -1.491423   -0.820672   -0.360487
     27          1           0       -4.956990    0.605464    0.050950
     28          1           0       -3.181045   -1.830291   -0.747586
     29          1           0       -2.483455    2.275767    1.716173
     30          1           0       -2.412684    2.888010    0.063851
     31          1           0       -3.982761    2.514821    0.799229
     32          1           0       -0.203093   -2.547429    0.076495
     33          1           0        0.874558   -2.893806    1.425126
     34          1           0       -0.388232   -1.657907    1.587033
 ---------------------------------------------------------------------

 SCF Done:  E(UB3LYP) =  -657.915682712     A.U. after   25 cycles

 The electronic state is 2-A.
 Alpha  occ. eigenvalues --  -18.93694 -10.07802 -10.07419 -10.06213 -10.06181
 Alpha  occ. eigenvalues --  -10.06067 -10.06049 -10.05380 -10.05285 -10.05281
 Alpha  occ. eigenvalues --  -10.05168 -10.04262 -10.03521 -10.02382 -10.02235
 Alpha  occ. eigenvalues --  -10.00696  -0.87083  -0.74931  -0.69116  -0.67378
 Alpha  occ. eigenvalues --   -0.66900  -0.61806  -0.59533  -0.57226  -0.56821
 Alpha  occ. eigenvalues --   -0.56210  -0.48688  -0.46320  -0.45048  -0.43259
 Alpha  occ. eigenvalues --   -0.39153  -0.37746  -0.35902  -0.33898  -0.32796
 Alpha  occ. eigenvalues --   -0.32080  -0.31507  -0.30710  -0.30361  -0.30118
 Alpha  occ. eigenvalues --   -0.29637  -0.29397  -0.28825  -0.27950  -0.26341
 Alpha  occ. eigenvalues --   -0.26030  -0.25283  -0.23984  -0.23723  -0.23066
 Alpha  occ. eigenvalues --   -0.22843  -0.21956  -0.19815  -0.17703  -0.13514
 Alpha  occ. eigenvalues --   -0.12964  -0.09277  -0.08583   0.02240
 Alpha virt. eigenvalues --    0.06715   0.07961   0.08718   0.09279   0.09397
 Alpha virt. eigenvalues --    0.09726   0.10387   0.11057   0.11267   0.11613
 Alpha virt. eigenvalues --    0.12352   0.12547   0.13077   0.13398   0.14079

  Beta  occ. eigenvalues --  -18.93252 -10.07676 -10.07433 -10.06194 -10.06104
  Beta  occ. eigenvalues --  -10.05931 -10.05897 -10.05392 -10.05328 -10.05294
  Beta  occ. eigenvalues --  -10.05217 -10.04282 -10.03254 -10.02287 -10.01965
  Beta  occ. eigenvalues --  -10.00510  -0.86303  -0.74758  -0.68688  -0.67086
  Beta  occ. eigenvalues --   -0.66709  -0.61461  -0.59506  -0.56979  -0.56723
  Beta  occ. eigenvalues --   -0.56060  -0.48096  -0.46206  -0.44621  -0.42960
  Beta  occ. eigenvalues --   -0.38942  -0.37618  -0.35749  -0.33694  -0.32614
  Beta  occ. eigenvalues --   -0.31951  -0.31360  -0.30600  -0.30260  -0.29998
  Beta  occ. eigenvalues --   -0.29374  -0.29278  -0.28790  -0.27721  -0.26169
  Beta  occ. eigenvalues --   -0.25949  -0.25065  -0.23804  -0.22916  -0.22624
  Beta  occ. eigenvalues --   -0.21825  -0.21771  -0.19601  -0.16371  -0.12688
  Beta  occ. eigenvalues --   -0.12272  -0.08864  -0.06972
  Beta virt. eigenvalues --    0.06692   0.07592   0.07928   0.08703   0.09371
  Beta virt. eigenvalues --    0.09685   0.09967   0.10366   0.11265   0.11638
  Beta virt. eigenvalues --    0.12194   0.12437   0.12660   0.13087   0.13388

 Mulliken charges and spin densities:
               1          2
     1  C   -0.451413  -0.014701
     2  C    0.743082   0.106582
     3  C   -0.612816  -0.043428
     4  C    0.411613   0.081265
     5  C    0.442323   0.016628
     6  C    0.333423   0.070743
     7  C   -0.276829  -0.028060
     8  C   -0.578068  -0.002741
     9  C   -0.469659   0.191102
    10  C   -1.055634  -0.021426
    11  C    1.117404   0.237573
    12  C   -0.435748   0.113287
    13  C   -0.169816   0.120863
    14  O   -0.370841   0.143053
    15  C   -0.798837  -0.005464
    16  C   -0.795852  -0.008439
    17  H    0.132526   0.001298
    18  H    0.133945   0.013546
    19  H    0.126591   0.003654
    20  H    0.085220   0.002759
    21  H    0.078021   0.001969
    22  H    0.143410   0.010092
    23  H    0.153275   0.005307
    24  H    0.110705   0.004432
    25  H    0.078861  -0.011752
    26  H   -0.068576  -0.010094
    27  H    0.119720  -0.012491
    28  H    0.079828  -0.006995
    29  H    0.121179   0.020980
    30  H    0.117689   0.012263
    31  H    0.125126  -0.000651
    32  H    0.169462   0.003975
    33  H    0.106594  -0.000631
    34  H    0.154094   0.005501
 Sum of Mulliken charges =  -1.00000   1.00000

 Dipole moment (field-independent basis, Debye):
    X=             10.1733    Y=              2.6557    Z=              1.3194  Tot=             10.5967
 Quadrupole moment (field-independent basis, Debye-Ang):
   XX=           -185.8020   YY=           -112.2529   ZZ=           -109.0969
   XY=            -17.7838   XZ=             -9.3368   YZ=             -3.5886

 Summary of Natural Population Analysis:

                                       Natural Population
                Natural  -----------------------------------------------
    Atom  No    Charge         Core      Valence    Rydberg      Total
 -----------------------------------------------------------------------
      C    1   -0.29079      0.99965     2.28661    0.00453     3.29079
      C    2    0.00691      0.99951     1.98583    0.00774     2.99309
      C    3   -0.12022      0.99948     2.11272    0.00802     3.12022
      C    4    0.01719      0.99950     1.97579    0.00752     2.98281
      C    5   -0.03294      0.99938     2.02366    0.00990     3.03294
      C    6    0.01514      0.99950     1.97777    0.00758     2.98486
      C    7   -0.12298      0.99948     2.11533    0.00818     3.12298
      C    8   -0.29381      0.99964     2.28962    0.00455     3.29381
      C    9   -0.04707      0.99947     2.03942    0.00817     3.04707
      C   10   -0.09025      0.99951     2.08268    0.00806     3.09025
      C   11    0.04334      0.99951     1.94847    0.00867     2.95666
      C   12   -0.11267      0.99948     2.10289    0.01030     3.11267
      C   13    0.20217      0.99970     1.77788    0.02025     2.79783
      O   14   -0.25915      0.99988     3.25083    0.00843     4.25915
      C   15   -0.29807      0.99964     2.29406    0.00437     3.29807
      C   16   -0.29569      0.99964     2.29124    0.00480     3.29569
      H   17    0.09716      0.00000     0.40196    0.00088     0.40284
      H   18    0.09957      0.00000     0.39940    0.00103     0.40043
      H   19    0.09737      0.00000     0.40169    0.00094     0.40263
      H   20    0.08954      0.00000     0.40918    0.00128     0.41046
      H   21    0.08918      0.00000     0.40951    0.00131     0.41082
      H   22    0.10646      0.00000     0.39248    0.00105     0.39354
      H   23    0.10099      0.00000     0.39802    0.00099     0.39901
      H   24    0.09422      0.00000     0.40493    0.00086     0.40578
      H   25    0.08804      0.00000     0.41036    0.00160     0.41196
      H   26    0.09147      0.00000     0.40647    0.00206     0.40853
      H   27    0.08628      0.00000     0.41170    0.00202     0.41372
      H   28    0.03545      0.00000     0.46242    0.00212     0.46455
      H   29    0.09962      0.00000     0.39913    0.00124     0.40038
      H   30    0.09892      0.00000     0.39980    0.00128     0.40108
      H   31    0.09659      0.00000     0.40252    0.00089     0.40341
      H   32    0.10268      0.00000     0.39634    0.00098     0.39732
      H   33    0.09363      0.00000     0.40546    0.00091     0.40637
      H   34    0.11167      0.00000     0.38743    0.00090     0.38833
 =======================================================================
   * Total *    0.00000     15.99299    41.85361    0.15340    58.00000

 Normal termination of Gaussian 16 at Thu Dec 10 23:26:52 2020.
