 Gaussian 16, Revision A.03,

 -----------------------------------------------------------
 # opt freq B3LYP/6-31G(d) empiricaldispersion=gd3bj scf=xqc
 -----------------------------------------------------------

 ------------------------------
 CID_150239112_JID_877_neutraal
 ------------------------------
 Symbolic Z-matrix:
 Charge =  0 Multiplicity = 1

 SCF Done:  E(RB3LYP) =  -520.367625451     A.U. after   17 cycles
 SCF Done:  E(RB3LYP) =  -520.377169243     A.U. after   15 cycles
 SCF Done:  E(RB3LYP) =  -520.377990158     A.U. after   14 cycles
 SCF Done:  E(RB3LYP) =  -520.378460914     A.U. after   14 cycles
 SCF Done:  E(RB3LYP) =  -520.378639985     A.U. after   13 cycles
 SCF Done:  E(RB3LYP) =  -520.378643762     A.U. after   10 cycles
 SCF Done:  E(RB3LYP) =  -520.378644481     A.U. after    9 cycles
 SCF Done:  E(RB3LYP) =  -520.378645666     A.U. after   10 cycles
 SCF Done:  E(RB3LYP) =  -520.378650660     A.U. after   13 cycles
 SCF Done:  E(RB3LYP) =  -520.295320249     A.U. after   17 cycles
 SCF Done:  E(RB3LYP) =  -520.381658434     A.U. after   12 cycles
 SCF Done:  E(RB3LYP) =  -520.381718258     A.U. after   11 cycles
 SCF Done:  E(RB3LYP) =  -520.381724045     A.U. after   11 cycles
 SCF Done:  E(RB3LYP) =  -520.381726727     A.U. after   11 cycles
 SCF Done:  E(RB3LYP) =  -520.381726887     A.U. after    9 cycles
 SCF Done:  E(RB3LYP) =  -520.381726935     A.U. after    8 cycles
 Optimization completed.
    -- Stationary point found.
 Normal termination of Gaussian 16 at Tue Dec  8 13:29:37 2020.

 --------------------------------------------------------------------
 #N Geom=AllCheck Guess=TCheck SCRF=Check GenChk RB3LYP/6-31G(d) Freq
 --------------------------------------------------------------------

 Structure from the checkpoint file:  "JID_877.chk"
 ------------------------------
 CID_150239112_JID_877_neutraal
 ------------------------------
 Charge =  0 Multiplicity = 1

 SCF Done:  E(RB3LYP) =  -520.381726934     A.U. after    1 cycles

  Exact polarizability: 102.563   9.081  74.542   5.393   2.199  39.970
 Approx polarizability: 167.500  24.811 119.822  24.488   7.603  70.778

                      1                      2                      3
                      A                      A                      A
 Frequencies --     33.5094                95.6634               113.1258
 Red. masses --     10.7751                 6.3757                 5.8817
 Frc consts  --      0.0071                 0.0344                 0.0443
 IR Inten    --      3.1623                 9.9336                 1.7798

                      4                      5                      6
                      A                      A                      A
 Frequencies --    179.7866               254.2873               296.7447
 Red. masses --      3.6871                 9.4163                 9.0883
 Frc consts  --      0.0702                 0.3587                 0.4715
 IR Inten    --     15.8725                 4.3298                 2.2830

                      7                      8                      9
                      A                      A                      A
 Frequencies --    349.0275               433.9957               528.4490
 Red. masses --      7.8341                 1.2031                10.9849
 Frc consts  --      0.5623                 0.1335                 1.8074
 IR Inten    --     12.4987               135.2204                10.4580

                     10                     11                     12
                      A                      A                      A
 Frequencies --    542.3194               546.3974               587.5892
 Red. masses --      6.9514                 3.8939                 3.9242
 Frc consts  --      1.2046                 0.6849                 0.7983
 IR Inten    --      7.4082                 9.1296                20.2880

                     13                     14                     15
                      A                      A                      A
 Frequencies --    656.3458               725.9228               737.3457
 Red. masses --      8.4629                 7.0921                 9.8623
 Frc consts  --      2.1480                 2.2020                 3.1591
 IR Inten    --     20.9785                56.2811                26.3536

                     16                     17                     18
                      A                      A                      A
 Frequencies --    808.1038               842.2800               987.6737
 Red. masses --      5.6501                 1.2636                 3.2738
 Frc consts  --      2.1739                 0.5282                 1.8816
 IR Inten    --      9.3217                46.8592                19.4000

                     19                     20                     21
                      A                      A                      A
 Frequencies --   1033.5633              1082.6847              1133.5439
 Red. masses --      1.7689                 2.2324                 4.8334
 Frc consts  --      1.1133                 1.5418                 3.6592
 IR Inten    --      3.4343                17.9859                22.1424

                     22                     23                     24
                      A                      A                      A
 Frequencies --   1167.4360              1217.7916              1252.8291
 Red. masses --      2.5232                 1.1022                 5.0008
 Frc consts  --      2.0261                 0.9630                 4.6246
 IR Inten    --    179.4064                 3.8000               180.9139

                     25                     26                     27
                      A                      A                      A
 Frequencies --   1278.3936              1342.7001              1437.3677
 Red. masses --      3.4364                 1.9907                 2.3045
 Frc consts  --      3.3089                 2.1145                 2.8052
 IR Inten    --     10.1185                41.1638                15.2105

                     28                     29                     30
                      A                      A                      A
 Frequencies --   1449.5392              1533.8227              1772.1052
 Red. masses --      2.7903                 1.0985                 9.6396
 Frc consts  --      3.4544                 1.5226                17.8356
 IR Inten    --    128.0037                14.2523               382.9540

                     31                     32                     33
                      A                      A                      A
 Frequencies --   1882.2322              2246.6741              3043.2108
 Red. masses --     11.1900                13.9894                 1.0631
 Frc consts  --     23.3576                41.6034                 5.8006
 IR Inten    --    300.7168               412.9658                26.9590

                     34                     35                     36
                      A                      A                      A
 Frequencies --   3091.9479              3475.6999              3648.2581
 Red. masses --      1.1022                 1.0759                 1.0786
 Frc consts  --      6.2084                 7.6578                 8.4582
 IR Inten    --     15.9373                 0.4629                50.5160

 - Thermochemistry -
 -------------------
 Temperature   298.150 Kelvin.  Pressure   1.00000 Atm.
 Atom     1 has atomic number  6 and mass  12.00000

 Molecular mass:   140.04466 amu.
 Principal axes and moments of inertia in atomic units:
                           1         2         3
     Eigenvalues --   816.691431454.989922167.93026
           X            0.99992   0.00948  -0.00860
           Y           -0.00945   0.99995   0.00346
           Z            0.00863  -0.00338   0.99996
 This molecule is an asymmetric top.
 Rotational symmetry number  1.
 Warning -- assumption of classical behavior for rotation
           may cause significant error
 Rotational temperatures (Kelvin)      0.10605     0.05953     0.03995
 Rotational constants (GHZ):           2.20982     1.24038     0.83247
 Zero-point vibrational energy     250069.6 (Joules/Mol)
                                   59.76806 (Kcal/Mol)
 Warning -- explicit consideration of  12 degrees of freedom as
           vibrations may cause significant error
 Vibrational temperatures:     48.21   137.64   162.76   258.67   365.86
          (Kelvin)            426.95   502.17   624.42   760.32   780.28
                              786.14   845.41   944.34  1044.44  1060.88
                             1162.68  1211.85  1421.04  1487.07  1557.74
                             1630.92  1679.68  1752.13  1802.54  1839.32
                             1931.85  2068.05  2085.56  2206.83  2549.66
                             2708.11  3232.46  4378.50  4448.62  5000.76
                             5249.03

 Zero-point correction=                           0.095246 (Hartree/Particle)
 Thermal correction to Energy=                    0.103982
 Thermal correction to Enthalpy=                  0.104926
 Thermal correction to Gibbs Free Energy=         0.060322
 Sum of electronic and zero-point Energies=           -520.286480
 Sum of electronic and thermal Energies=              -520.277745
 Sum of electronic and thermal Enthalpies=            -520.276801
 Sum of electronic and thermal Free Energies=         -520.321405

                     E (Thermal)             CV                S
                      KCal/Mol        Cal/Mol-Kelvin    Cal/Mol-Kelvin
 Total                   65.249             30.798             93.878
 Electronic               0.000              0.000              0.000
 Translational            0.889              2.981             40.722
 Rotational               0.889              2.981             29.334
 Vibrational             63.472             24.837             23.822
 Vibration     1          0.594              1.983              5.610
 Vibration     2          0.603              1.952              3.541
 Vibration     3          0.607              1.939              3.215
 Vibration     4          0.629              1.867              2.331
 Vibration     5          0.665              1.756              1.701
 Vibration     6          0.690              1.680              1.435
 Vibration     7          0.726              1.577              1.171
 Vibration     8          0.795              1.396              0.846
 Vibration     9          0.883              1.187              0.591
 Vibration    10          0.897              1.157              0.560
 Vibration    11          0.902              1.148              0.552
 Vibration    12          0.945              1.058              0.471

 Optimization completed.
    -- Stationary point found.
 Normal termination of Gaussian 16 at Tue Dec  8 13:32:01 2020.

 ----------------------------------------------------------------------
 # B3LYP/6-311++G(d,p) empiricaldispersion=gd3bj scf=xqc pop=npa geom=c
 heck
 ----------------------------------------------------------------------

 --------------------------------------
 CID_150239112_JID_877_Energie_neutraal
 --------------------------------------
 Structure from the checkpoint file:  "JID_877.chk"
 Charge =  0 Multiplicity = 1

 SCF Done:  E(RB3LYP) =  -520.537279823     A.U. after   16 cycles
 Normal termination of Gaussian 16 at Tue Dec  8 13:33:03 2020.

 ----------------------------------------------------------------------
 # B3LYP/6-311++G(d,p) empiricaldispersion=gd3bj scf=xqc pop=npa geom=c
 heck
 ----------------------------------------------------------------------

 ------------------------------------
 CID_150239112_JID_877_Energie_kation
 ------------------------------------
 Structure from the checkpoint file:  "JID_877.chk"
 Charge =  1 Multiplicity = 2

 SCF Done:  E(UB3LYP) =  -520.202451736     A.U. after   28 cycles
 Normal termination of Gaussian 16 at Tue Dec  8 13:38:27 2020.
 Gaussian 16:  ES64L-G16RevA.03 25-Dec-2016

 ----------------------------------------------------------------------
 # B3LYP/6-311++G(d,p) empiricaldispersion=gd3bj scf=xqc pop=npa geom=c
 heck
 ----------------------------------------------------------------------

 -----------------------------------
 CID_150239112_JID_877_Energie_anion
 -----------------------------------
 Structure from the checkpoint file:  "JID_877.chk"
 Charge = -1 Multiplicity = 2

                         Standard orientation:
 ---------------------------------------------------------------------
 Center     Atomic      Atomic             Coordinates (Angstroms)
 Number     Number       Type             X           Y           Z
 ---------------------------------------------------------------------
      1          6           0       -2.252860    0.039844    0.302758
      2          6           0       -1.136124   -0.968395    0.022069
      3          7           0       -1.149334   -2.232039   -0.082185
      4          7           0        0.012179   -0.189385   -0.091759
      5          6           0       -0.249562    1.203281   -0.107585
      6          8           0        0.587877    2.069118   -0.223308
      7          7           0       -1.609242    1.320731    0.054560
      8          7           0        1.192730   -0.708570   -0.641590
      9          7           0        2.191561   -0.436196    0.074314
     10          7           0        3.206916   -0.271371    0.556498
     11          1           0       -2.596750   -0.062757    1.340845
     12          1           0       -3.104536   -0.130746   -0.364906
     13          1           0       -2.100216   -2.588285    0.033910
     14          1           0       -1.983909    2.198284    0.384303
 ---------------------------------------------------------------------

 SCF Done:  E(UB3LYP) =  -520.544781694     A.U. after   28 cycles

 The electronic state is 2-A.
 Alpha  occ. eigenvalues --  -18.98760 -14.31289 -14.26522 -14.24489 -14.23411
 Alpha  occ. eigenvalues --  -14.22836 -14.17846 -10.19317 -10.14879 -10.11929
 Alpha  occ. eigenvalues --   -1.00162  -0.95691  -0.89737  -0.84825  -0.79901
 Alpha  occ. eigenvalues --   -0.74466  -0.62197  -0.55391  -0.51931  -0.43036
 Alpha  occ. eigenvalues --   -0.40539  -0.38858  -0.37748  -0.36569  -0.35994
 Alpha  occ. eigenvalues --   -0.33231  -0.32055  -0.31433  -0.30034  -0.26232
 Alpha  occ. eigenvalues --   -0.21064  -0.17764  -0.16674  -0.16479  -0.14790
 Alpha  occ. eigenvalues --   -0.10961   0.04035
 Alpha virt. eigenvalues --    0.06418   0.08241   0.08890   0.11232   0.11464
 Alpha virt. eigenvalues --    0.12928   0.14250   0.15648   0.15919   0.16365
 Alpha virt. eigenvalues --    0.17303   0.17649   0.18252   0.18908   0.19640

  Beta  occ. eigenvalues --  -18.98758 -14.30926 -14.26377 -14.24513 -14.23372
  Beta  occ. eigenvalues --  -14.22266 -14.17841 -10.19317 -10.14879 -10.11867
  Beta  occ. eigenvalues --   -0.99544  -0.95517  -0.89561  -0.84619  -0.79833
  Beta  occ. eigenvalues --   -0.74209  -0.62077  -0.55067  -0.51787  -0.42893
  Beta  occ. eigenvalues --   -0.40397  -0.38651  -0.37359  -0.35796  -0.35464
  Beta  occ. eigenvalues --   -0.32926  -0.31989  -0.30687  -0.29373  -0.25750
  Beta  occ. eigenvalues --   -0.20424  -0.17648  -0.16625  -0.16388  -0.14616
  Beta  occ. eigenvalues --   -0.10786
  Beta virt. eigenvalues --    0.07389   0.09058   0.09543   0.10803   0.11756
  Beta virt. eigenvalues --    0.11937   0.13165   0.14554   0.15850   0.16077
  Beta virt. eigenvalues --    0.16401   0.17357   0.17809   0.18329   0.19408

 Mulliken charges and spin densities:
               1          2
     1  C    1.489685  -1.815561
     2  C   -0.257560   0.204388
     3  N   -0.449214   0.071167
     4  N    0.253486  -0.074031
     5  C    0.434474  -0.170220
     6  O   -0.408189   0.010925
     7  N   -0.443009   0.178926
     8  N   -0.722318   0.026767
     9  N    0.299810   0.111572
    10  N   -0.014118   0.351406
    11  H   -0.535474   0.739262
    12  H   -0.522709   0.716974
    13  H    0.106830   0.105033
    14  H   -0.231695   0.543392
 Sum of Mulliken charges =  -1.00000   1.00000

 Dipole moment (field-independent basis, Debye):
    X=             -0.4244    Y=             -0.7142    Z=             -0.4128  Tot=              0.9276
 Quadrupole moment (field-independent basis, Debye-Ang):
   XX=           -103.9912   YY=            -85.3445   ZZ=            -73.1645
   XY=              3.0562   XZ=              2.3329   YZ=             -1.6299

 Summary of Natural Population Analysis:

                                       Natural Population
                Natural  -----------------------------------------------
    Atom  No    Charge         Core      Valence    Rydberg      Total
 -----------------------------------------------------------------------
      C    1   -0.11168      0.99959     2.10063    0.01146     3.11168
      C    2    0.22719      0.99964     1.75504    0.01812     2.77281
      N    3   -0.34483      0.99969     2.83665    0.00849     3.84483
      N    4   -0.16693      0.99955     2.65533    0.01205     3.66693
      C    5    0.40783      0.99968     1.56763    0.02487     2.59217
      O    6   -0.31563      0.99987     3.30977    0.00600     4.31563
      N    7   -0.32734      0.99969     2.81690    0.01075     3.82734
      N    8   -0.12949      0.99971     2.61363    0.01615     3.62949
      N    9    0.13898      0.99970     2.34521    0.01610     3.36102
      N   10    0.04546      0.99982     2.44173    0.01300     3.45454
      H   11    0.10653      0.00000     0.38926    0.00420     0.39347
      H   12    0.10485      0.00000     0.39198    0.00317     0.39515
      H   13    0.16316      0.00000     0.33478    0.00206     0.33684
      H   14    0.20191      0.00000     0.29303    0.00506     0.29809
 =======================================================================
   * Total *   -0.00000      9.99694    25.85157    0.15148    36.00000

 Normal termination of Gaussian 16 at Tue Dec  8 13:43:00 2020.
