 Gaussian 16, Revision A.03,

 ----------------------------------------------------------------------
 # opt=(cartesian,calcfc) freq B3LYP/6-31G(d) empiricaldispersion=gd3bj
  scf=xqc
 ----------------------------------------------------------------------

 -----------------------------
 CID_7148396_JID_7484_neutraal
 -----------------------------
 Symbolic Z-matrix:
 Charge =  0 Multiplicity = 1

 SCF Done:  E(RB3LYP) =  -746.351715539     A.U. after   15 cycles
 SCF Done:  E(RB3LYP) =  -746.352779971     A.U. after   11 cycles
 SCF Done:  E(RB3LYP) =  -746.352780772     A.U. after   11 cycles
 SCF Done:  E(RB3LYP) =  -746.352792311     A.U. after   11 cycles
 SCF Done:  E(RB3LYP) =  -746.352793068     A.U. after    8 cycles
 SCF Done:  E(RB3LYP) =  -746.352793048     A.U. after    8 cycles
 SCF Done:  E(RB3LYP) =  -746.352793109     A.U. after    7 cycles
 Optimization completed.
    -- Stationary point found.
 Normal termination of Gaussian 16 at Mon Jan  4 10:03:02 2021.

 --------------------------------------------------------------------
 #N Geom=AllCheck Guess=TCheck SCRF=Check GenChk RB3LYP/6-31G(d) Freq
 --------------------------------------------------------------------

 Structure from the checkpoint file:  "JID_7484.chk"
 -----------------------------
 CID_7148396_JID_7484_neutraal
 -----------------------------
 Charge =  0 Multiplicity = 1

 SCF Done:  E(RB3LYP) =  -746.352793109     A.U. after    1 cycles

  Exact polarizability: 200.036   0.246 168.714  -5.288  10.265 108.087
 Approx polarizability: 285.435   2.160 263.951 -15.527  28.017 166.074

                      1                      2                      3
                      A                      A                      A
 Frequencies --     33.7756                50.1712                63.7710
 Red. masses --      5.0895                 3.5747                 3.9421
 Frc consts  --      0.0034                 0.0053                 0.0094
 IR Inten    --      2.9788                 0.7859                 1.4984

                      4                      5                      6
                      A                      A                      A
 Frequencies --     97.0122               119.3110               139.6917
 Red. masses --      3.5699                 4.4284                 2.5450
 Frc consts  --      0.0198                 0.0371                 0.0293
 IR Inten    --      0.8491                 2.2376                 6.5912

                      7                      8                      9
                      A                      A                      A
 Frequencies --    173.3563               189.6203               215.0212
 Red. masses --      4.1578                 2.8489                 2.2489
 Frc consts  --      0.0736                 0.0604                 0.0613
 IR Inten    --      0.9506                 1.6184                 2.4462

                     10                     11                     12
                      A                      A                      A
 Frequencies --    222.6667               247.6895               257.2822
 Red. masses --      1.2495                 2.0885                 2.4588
 Frc consts  --      0.0365                 0.0755                 0.0959
 IR Inten    --      1.8684                 8.0450                 5.8219

                     13                     14                     15
                      A                      A                      A
 Frequencies --    270.6153               310.7345               362.2814
 Red. masses --      1.8795                 3.2746                 3.2302
 Frc consts  --      0.0811                 0.1863                 0.2498
 IR Inten    --     11.3722                 3.3732                 1.4806

                     16                     17                     18
                      A                      A                      A
 Frequencies --    369.3896               380.6188               419.5738
 Red. masses --      2.5144                 3.0701                 3.0897
 Frc consts  --      0.2021                 0.2620                 0.3205
 IR Inten    --      0.4141                 1.2093                 3.3342

                     19                     20                     21
                      A                      A                      A
 Frequencies --    443.9113               473.1341               497.2269
 Red. masses --      2.7520                 2.8695                 2.5437
 Frc consts  --      0.3195                 0.3785                 0.3705
 IR Inten    --      3.8333                 7.3702                 5.9923

                     22                     23                     24
                      A                      A                      A
 Frequencies --    520.4492               533.1944               583.7388
 Red. masses --      2.9492                 5.0168                 2.4620
 Frc consts  --      0.4707                 0.8403                 0.4943
 IR Inten    --      3.8586                 9.8302                 5.6606

                     25                     26                     27
                      A                      A                      A
 Frequencies --    602.3143               615.5794               692.0208
 Red. masses --      4.8643                 2.5404                 5.3296
 Frc consts  --      1.0397                 0.5672                 1.5038
 IR Inten    --     16.9378                49.6273                 6.1236

                     28                     29                     30
                      A                      A                      A
 Frequencies --    722.6982               738.2310               744.5911
 Red. masses --      2.8481                 4.0100                 2.2653
 Frc consts  --      0.8764                 1.2876                 0.7400
 IR Inten    --     72.9801                18.1042                33.4217

                     31                     32                     33
                      A                      A                      A
 Frequencies --    781.9268               819.7408               828.2748
 Red. masses --      3.3886                 1.5289                 2.9388
 Frc consts  --      1.2207                 0.6053                 1.1879
 IR Inten    --     58.8226                 0.1298                 6.5579

                     34                     35                     36
                      A                      A                      A
 Frequencies --    831.7130               870.0348               871.1043
 Red. masses --      1.6150                 1.6367                 2.6811
 Frc consts  --      0.6582                 0.7300                 1.1987
 IR Inten    --     26.6643                12.1946                 8.6342

                     37                     38                     39
                      A                      A                      A
 Frequencies --    897.7110               912.6779               935.7278
 Red. masses --      2.4920                 1.5550                 1.4214
 Frc consts  --      1.1832                 0.7632                 0.7333
 IR Inten    --      2.0725                11.6334                84.5651

                     40                     41                     42
                      A                      A                      A
 Frequencies --    957.0460               974.3170               977.3531
 Red. masses --      1.6829                 1.7728                 1.4923
 Frc consts  --      0.9082                 0.9915                 0.8399
 IR Inten    --    115.5588                26.8601                11.9270

                     43                     44                     45
                      A                      A                      A
 Frequencies --   1024.4701              1040.8933              1053.9012
 Red. masses --      1.5022                 2.4032                 2.2888
 Frc consts  --      0.9289                 1.5341                 1.4978
 IR Inten    --      5.6568                 7.5853                32.1451

                     46                     47                     48
                      A                      A                      A
 Frequencies --   1075.4453              1079.6871              1128.2629
 Red. masses --      1.4984                 1.6446                 2.7753
 Frc consts  --      1.0211                 1.1295                 2.0815
 IR Inten    --      6.7280                 1.2323                 7.8138

                     49                     50                     51
                      A                      A                      A
 Frequencies --   1147.0721              1167.5028              1183.4246
 Red. masses --      2.1847                 2.1766                 1.6005
 Frc consts  --      1.6936                 1.7480                 1.3206
 IR Inten    --     17.7194                10.0382                 1.1427

                     52                     53                     54
                      A                      A                      A
 Frequencies --   1193.7838              1223.0547              1238.5381
 Red. masses --      1.2554                 2.5642                 2.1282
 Frc consts  --      1.0541                 2.2599                 1.9234
 IR Inten    --      4.9201                23.0044                14.1783

                     55                     56                     57
                      A                      A                      A
 Frequencies --   1249.6024              1267.7755              1299.3805
 Red. masses --      2.1422                 2.0710                 1.2583
 Frc consts  --      1.9709                 1.9612                 1.2518
 IR Inten    --     20.7397                48.4162                 6.3476

                     58                     59                     60
                      A                      A                      A
 Frequencies --   1317.4227              1332.9506              1344.7096
 Red. masses --      1.3518                 1.2475                 1.4555
 Frc consts  --      1.3823                 1.3059                 1.5507
 IR Inten    --     15.6776                10.9884                52.8328

                     61                     62                     63
                      A                      A                      A
 Frequencies --   1356.7544              1372.3984              1378.7702
 Red. masses --      4.8233                 1.3021                 2.9685
 Frc consts  --      5.2312                 1.4449                 3.3248
 IR Inten    --      4.5266                 0.5812               246.8571

                     64                     65                     66
                      A                      A                      A
 Frequencies --   1394.2856              1399.0025              1405.0723
 Red. masses --      1.6612                 1.3448                 1.4300
 Frc consts  --      1.9027                 1.5508                 1.6634
 IR Inten    --      1.3675                 7.0313                 4.4916

                     67                     68                     69
                      A                      A                      A
 Frequencies --   1416.2810              1427.4101              1437.4050
 Red. masses --      1.3873                 1.5298                 1.2811
 Frc consts  --      1.6395                 1.8364                 1.5596
 IR Inten    --     14.2757                23.8157                12.0779

                     70                     71                     72
                      A                      A                      A
 Frequencies --   1455.8325              1470.0042              1505.9930
 Red. masses --      1.2664                 3.1273                 1.0844
 Frc consts  --      1.5815                 3.9815                 1.4490
 IR Inten    --      6.0605               177.5233                 3.9668

                     73                     74                     75
                      A                      A                      A
 Frequencies --   1508.8091              1514.4033              1515.7230
 Red. masses --      1.1019                 1.0793                 1.0897
 Frc consts  --      1.4780                 1.4584                 1.4750
 IR Inten    --      5.6439                16.3502                 2.3425

                     76                     77                     78
                      A                      A                      A
 Frequencies --   1518.3425              1529.3252              1533.5712
 Red. masses --      1.0932                 1.1010                 1.1220
 Frc consts  --      1.4849                 1.5172                 1.5548
 IR Inten    --      4.6564                 0.6813                 7.0322

                     79                     80                     81
                      A                      A                      A
 Frequencies --   1551.4140              1618.1430              1660.8774
 Red. masses --      2.7385                 5.6017                 5.8612
 Frc consts  --      3.8834                 8.6417                 9.5261
 IR Inten    --     42.2340                40.7059                39.4700

                     82                     83                     84
                      A                      A                      A
 Frequencies --   1728.8454              1766.9288              3012.9128
 Red. masses --      1.0640                 8.8232                 1.0723
 Frc consts  --      1.8738                16.2298                 5.7353
 IR Inten    --     30.1578               219.9422                29.8794

                     85                     86                     87
                      A                      A                      A
 Frequencies --   3019.7264              3023.3141              3036.7890
 Red. masses --      1.0716                 1.0705                 1.0599
 Frc consts  --      5.7575                 5.7649                 5.7590
 IR Inten    --     21.8593                68.1133                29.3967

                     88                     89                     90
                      A                      A                      A
 Frequencies --   3040.2035              3050.7033              3077.8637
 Red. masses --      1.0436                 1.0612                 1.0956
 Frc consts  --      5.6829                 5.8191                 6.1148
 IR Inten    --     32.1116                20.5158                68.3255

                     91                     92                     93
                      A                      A                      A
 Frequencies --   3081.3516              3094.1431              3098.3208
 Red. masses --      1.1022                 1.1031                 1.0916
 Frc consts  --      6.1660                 6.2225                 6.1738
 IR Inten    --     42.0512                75.3538                22.1124

                     94                     95                     96
                      A                      A                      A
 Frequencies --   3118.1438              3133.6713              3154.5213
 Red. masses --      1.0934                 1.1030                 1.0906
 Frc consts  --      6.2636                 6.3818                 6.3941
 IR Inten    --     21.2955                12.3841                18.3136

                     97                     98                     99
                      A                      A                      A
 Frequencies --   3178.4547              3209.6878              3249.3516
 Red. masses --      1.0883                 1.0927                 1.0888
 Frc consts  --      6.4776                 6.6324                 6.7729
 IR Inten    --     18.1089                18.0429                 2.3893

                    100                    101                    102
                      A                      A                      A
 Frequencies --   3464.5526              3552.9028              3572.7963
 Red. masses --      1.0473                 1.0959                 1.0766
 Frc consts  --      7.4062                 8.1502                 8.0969
 IR Inten    --      2.2577                 1.3926                26.8424

 - Thermochemistry -
 -------------------
 Temperature   298.150 Kelvin.  Pressure   1.00000 Atm.
 Atom     1 has atomic number  6 and mass  12.00000

 Molecular mass:   233.15281 amu.
 Principal axes and moments of inertia in atomic units:
                           1         2         3
     Eigenvalues --  2592.793875829.288817248.37134
           X            0.99983  -0.01802  -0.00237
           Y            0.01801   0.99983  -0.00440
           Z            0.00245   0.00436   0.99999
 This molecule is an asymmetric top.
 Rotational symmetry number  1.
 Warning -- assumption of classical behavior for rotation
           may cause significant error
 Rotational temperatures (Kelvin)      0.03341     0.01486     0.01195
 Rotational constants (GHZ):           0.69606     0.30960     0.24899
 Zero-point vibrational energy     823929.0 (Joules/Mol)
                                  196.92377 (Kcal/Mol)
 Warning -- explicit consideration of  26 degrees of freedom as
           vibrations may cause significant error
 Vibrational temperatures:     48.60    72.19    91.75   139.58   171.66
          (Kelvin)            200.99   249.42   272.82   309.37   320.37
                              356.37   370.17   389.36   447.08   521.24
                              531.47   547.63   603.67   638.69   680.73
                              715.40   748.81   767.15   839.87   866.60
                              885.68   995.66  1039.80  1062.15  1071.30
                             1125.02  1179.42  1191.70  1196.65  1251.79
                             1253.32  1291.61  1313.14  1346.30  1376.98
                             1401.82  1406.19  1473.98  1497.61  1516.33
                             1547.33  1553.43  1623.32  1650.38  1679.78
                             1702.68  1717.59  1759.70  1781.98  1797.90
                             1824.05  1869.52  1895.48  1917.82  1934.74
                             1952.07  1974.58  1983.74  2006.07  2012.85
                             2021.59  2037.71  2053.72  2068.11  2094.62
                             2115.01  2166.79  2170.84  2178.89  2180.79
                             2184.56  2200.36  2206.47  2232.14  2328.15
                             2389.63  2487.42  2542.22  4334.91  4344.71
                             4349.87  4369.26  4374.17  4389.28  4428.36
                             4433.38  4451.78  4457.79  4486.31  4508.65
                             4538.65  4573.09  4618.02  4675.09  4984.72
                             5111.83  5140.46

 Zero-point correction=                           0.313818 (Hartree/Particle)
 Thermal correction to Energy=                    0.329850
 Thermal correction to Enthalpy=                  0.330794
 Thermal correction to Gibbs Free Energy=         0.270277
 Sum of electronic and zero-point Energies=           -746.038975
 Sum of electronic and thermal Energies=              -746.022943
 Sum of electronic and thermal Enthalpies=            -746.021999
 Sum of electronic and thermal Free Energies=         -746.082517

                     E (Thermal)             CV                S
                      KCal/Mol        Cal/Mol-Kelvin    Cal/Mol-Kelvin
 Total                  206.984             62.637            127.370
 Electronic               0.000              0.000              0.000
 Translational            0.889              2.981             42.241
 Rotational               0.889              2.981             33.060
 Vibrational            205.207             56.675             52.069
 Vibration     1          0.594              1.983              5.594
 Vibration     2          0.595              1.978              4.811
 Vibration     3          0.597              1.972              4.337
 Vibration     4          0.603              1.951              3.513
 Vibration     5          0.609              1.933              3.112
 Vibration     6          0.615              1.914              2.808
 Vibration     7          0.627              1.875              2.399
 Vibration     8          0.633              1.854              2.232
 Vibration     9          0.645              1.818              2.001
 Vibration    10          0.648              1.807              1.937
 Vibration    11          0.661              1.767              1.747
 Vibration    12          0.667              1.750              1.680
 Vibration    13          0.674              1.727              1.592
 Vibration    14          0.700              1.653              1.358
 Vibration    15          0.736              1.550              1.112
 Vibration    16          0.742              1.535              1.082
 Vibration    17          0.750              1.511              1.037
 Vibration    18          0.782              1.428              0.893
 Vibration    19          0.803              1.374              0.814
 Vibration    20          0.830              1.310              0.729
 Vibration    21          0.853              1.256              0.665
 Vibration    22          0.875              1.205              0.609
 Vibration    23          0.888              1.177              0.580
 Vibration    24          0.941              1.067              0.478
 Vibration    25          0.961              1.027              0.446
 Vibration    26          0.975              0.999              0.424

 Optimization completed.
    -- Stationary point found.
 Normal termination of Gaussian 16 at Mon Jan  4 10:15:55 2021.

 ----------------------------------------------------------------------
 # B3LYP/6-311++G(d,p) empiricaldispersion=gd3bj scf=xqc pop=npa geom=c
 heck
 ----------------------------------------------------------------------

 -------------------------------------
 CID_7148396_JID_7484_Energie_neutraal
 -------------------------------------
 Structure from the checkpoint file:  "JID_7484.chk"
 Charge =  0 Multiplicity = 1

 SCF Done:  E(RB3LYP) =  -746.563094506     A.U. after   16 cycles
 Normal termination of Gaussian 16 at Mon Jan  4 10:22:08 2021.

 ----------------------------------------------------------------------
 # B3LYP/6-311++G(d,p) empiricaldispersion=gd3bj scf=xqc pop=npa geom=c
 heck
 ----------------------------------------------------------------------

 -----------------------------------
 CID_7148396_JID_7484_Energie_kation
 -----------------------------------
 Structure from the checkpoint file:  "JID_7484.chk"
 Charge =  1 Multiplicity = 2

 SCF Done:  E(UB3LYP) =  -746.294765496     A.U. after   23 cycles
 Normal termination of Gaussian 16 at Mon Jan  4 10:34:02 2021.
 Gaussian 16:  ES64L-G16RevA.03 25-Dec-2016

 ----------------------------------------------------------------------
 # B3LYP/6-311++G(d,p) empiricaldispersion=gd3bj scf=xqc pop=npa geom=c
 heck
 ----------------------------------------------------------------------

 ----------------------------------
 CID_7148396_JID_7484_Energie_anion
 ----------------------------------
 Structure from the checkpoint file:  "JID_7484.chk"
 Charge = -1 Multiplicity = 2

                         Standard orientation:
 ---------------------------------------------------------------------
 Center     Atomic      Atomic             Coordinates (Angstroms)
 Number     Number       Type             X           Y           Z
 ---------------------------------------------------------------------
      1          6           0        1.217466    3.157647   -0.290216
      2          6           0        0.203555    2.044605   -0.218749
      3          6           0        0.578629    0.682965   -0.367133
      4          6           0       -0.432715   -0.286032   -0.429029
      5          6           0       -1.782802    0.045539   -0.294001
      6          6           0       -2.145972    1.383551   -0.111487
      7          6           0       -1.152367    2.358019   -0.088593
      8          6           0       -2.770768   -1.072551   -0.423066
      9          8           0       -2.585654   -2.016581   -1.183054
     10          7           0       -3.925077   -1.009608    0.338056
     11          7           0       -4.033277   -0.383380    1.604485
     12          7           0        1.940691    0.350960   -0.531183
     13          6           0        2.295988   -0.871350   -1.255694
     14          6           0        2.451956   -2.119243   -0.369064
     15          6           0        3.403667   -1.835262    0.799898
     16          6           0        2.960187   -0.574936    1.551805
     17          6           0        2.852948    0.615410    0.588266
     18          1           0        1.656362    3.396845    0.687315
     19          1           0        2.040373    2.880875   -0.956620
     20          1           0        0.751899    4.074523   -0.664886
     21          1           0       -0.190271   -1.328129   -0.589969
     22          1           0       -3.189895    1.673586   -0.055457
     23          1           0       -1.435733    3.404507   -0.005314
     24          1           0       -4.465596   -1.865734    0.280208
     25          1           0       -3.117939   -0.364130    2.052254
     26          1           0       -4.316870    0.583912    1.469415
     27          1           0        3.259330   -0.677848   -1.751140
     28          1           0        1.557780   -1.032648   -2.045581
     29          1           0        2.822976   -2.951299   -0.980292
     30          1           0        1.476605   -2.425847    0.027101
     31          1           0        3.450595   -2.696717    1.476323
     32          1           0        4.421730   -1.681278    0.412166
     33          1           0        1.979561   -0.744245    2.017364
     34          1           0        3.664891   -0.332613    2.357472
     35          1           0        2.517479    1.503745    1.123493
     36          1           0        3.846957    0.839167    0.173456
 ---------------------------------------------------------------------

 SCF Done:  E(UB3LYP) =  -746.556852581     A.U. after   33 cycles
 SCF Done:  E(UB3LYP) =  -746.556852581     a.u. after    1 cycles

 The electronic state is 2-A.
 Alpha  occ. eigenvalues --  -18.95836 -14.23603 -14.23242 -14.20457 -10.13551
 Alpha  occ. eigenvalues --  -10.09270 -10.09056 -10.08610 -10.06697 -10.06521
 Alpha  occ. eigenvalues --  -10.06452 -10.05667 -10.05214 -10.05122 -10.04928
 Alpha  occ. eigenvalues --  -10.04875 -10.04249  -0.91720  -0.85946  -0.83215
 Alpha  occ. eigenvalues --   -0.73483  -0.69370  -0.68240  -0.66215  -0.65040
 Alpha  occ. eigenvalues --   -0.62210  -0.58485  -0.54349  -0.52748  -0.50259
 Alpha  occ. eigenvalues --   -0.48787  -0.46759  -0.44461  -0.41530  -0.40418
 Alpha  occ. eigenvalues --   -0.39161  -0.36891  -0.36448  -0.35805  -0.34945
 Alpha  occ. eigenvalues --   -0.34048  -0.32976  -0.31560  -0.30913  -0.30698
 Alpha  occ. eigenvalues --   -0.29022  -0.28831  -0.28581  -0.28147  -0.27186
 Alpha  occ. eigenvalues --   -0.25450  -0.25110  -0.23851  -0.23403  -0.22960
 Alpha  occ. eigenvalues --   -0.22148  -0.21557  -0.19113  -0.15727  -0.14400
 Alpha  occ. eigenvalues --   -0.13951  -0.12317  -0.08948   0.04572
 Alpha virt. eigenvalues --    0.06203   0.07282   0.07644   0.07953   0.08730
 Alpha virt. eigenvalues --    0.09309   0.09968   0.10407   0.10684   0.10876
 Alpha virt. eigenvalues --    0.11033   0.11725   0.12087   0.12671   0.13059

  Beta  occ. eigenvalues --  -18.95642 -14.23582 -14.23217 -14.20468 -10.13384
  Beta  occ. eigenvalues --  -10.09260 -10.09041 -10.08632 -10.06677 -10.06513
  Beta  occ. eigenvalues --  -10.06449 -10.05679 -10.05250 -10.04871 -10.04824
  Beta  occ. eigenvalues --  -10.04770 -10.04152  -0.91415  -0.85786  -0.83204
  Beta  occ. eigenvalues --   -0.73263  -0.69310  -0.68115  -0.66022  -0.64912
  Beta  occ. eigenvalues --   -0.62048  -0.58318  -0.54241  -0.52723  -0.49919
  Beta  occ. eigenvalues --   -0.48715  -0.46658  -0.44299  -0.41456  -0.40320
  Beta  occ. eigenvalues --   -0.39104  -0.36806  -0.36357  -0.35722  -0.34876
  Beta  occ. eigenvalues --   -0.33917  -0.32847  -0.31381  -0.30836  -0.30562
  Beta  occ. eigenvalues --   -0.28831  -0.28719  -0.28402  -0.27855  -0.26747
  Beta  occ. eigenvalues --   -0.25369  -0.25065  -0.23801  -0.23046  -0.22765
  Beta  occ. eigenvalues --   -0.22114  -0.21477  -0.18963  -0.15396  -0.13995
  Beta  occ. eigenvalues --   -0.13513  -0.11645  -0.08507
  Beta virt. eigenvalues --    0.06667   0.07279   0.07849   0.08149   0.08866
  Beta virt. eigenvalues --    0.08992   0.09428   0.09989   0.10501   0.10771
  Beta virt. eigenvalues --    0.10984   0.11179   0.11833   0.12199   0.12747

 Mulliken charges and spin densities:
               1          2
     1  C   -0.164405  -0.530343
     2  C    0.395152   0.302760
     3  C   -1.556367   0.851777
     4  C    0.060709  -0.115033
     5  C    1.458731  -0.477916
     6  C   -0.925050   0.338487
     7  C    0.285170  -0.642191
     8  C   -0.345282   0.033940
     9  O   -0.353510   0.067882
    10  N   -0.273200   0.011279
    11  N   -0.374102  -0.033592
    12  N    0.298424   0.048723
    13  C   -0.057300  -0.238998
    14  C   -0.318870   0.242434
    15  C    0.538038  -1.072703
    16  C   -0.300721   0.082742
    17  C   -0.064450  -0.201807
    18  H    0.145543   0.009405
    19  H    0.056748   0.109576
    20  H   -0.056700   0.193584
    21  H    0.198107  -0.085093
    22  H   -0.015945   0.128158
    23  H    0.066913   0.060986
    24  H    0.272726   0.025177
    25  H    0.170813   0.068286
    26  H    0.182907   0.038957
    27  H   -0.215253   0.379074
    28  H    0.136232   0.043098
    29  H   -0.004197   0.162410
    30  H    0.098476   0.020224
    31  H   -0.182939   0.336797
    32  H   -0.069510   0.201213
    33  H    0.160077  -0.029032
    34  H   -0.299229   0.461467
    35  H    0.111089  -0.005222
    36  H   -0.058825   0.213496
 Sum of Mulliken charges =  -1.00000   1.00000

 Dipole moment (field-independent basis, Debye):
    X=             -0.7098    Y=              2.3350    Z=              1.7844  Tot=              3.0233
 Quadrupole moment (field-independent basis, Debye-Ang):
   XX=           -172.3465   YY=           -136.9986   ZZ=           -131.0025
   XY=             -2.2043   XZ=             -6.7544   YZ=              1.7798

 Summary of Natural Population Analysis:

                                       Natural Population
                Natural  -----------------------------------------------
    Atom  No    Charge         Core      Valence    Rydberg      Total
 -----------------------------------------------------------------------
      C    1   -0.29677      0.99964     2.29258    0.00454     3.29677
      C    2    0.01738      0.99948     1.97282    0.01032     2.98262
      C    3    0.08234      0.99943     1.90726    0.01097     2.91766
      C    4   -0.08239      0.99949     2.07551    0.00738     3.08239
      C    5   -0.05595      0.99946     2.04658    0.00990     3.05595
      C    6   -0.08657      0.99953     2.07757    0.00947     3.08657
      C    7   -0.11353      0.99953     2.10484    0.00916     3.11353
      C    8    0.35369      0.99961     1.62399    0.02270     2.64631
      O    9   -0.30633      0.99988     3.30072    0.00573     4.30633
      N   10   -0.24309      0.99967     2.73044    0.01299     3.74309
      N   11   -0.32122      0.99978     2.81063    0.01081     3.82122
      N   12   -0.27422      0.99968     2.76187    0.01267     3.77422
      C   13   -0.08446      0.99962     2.07364    0.01121     3.08446
      C   14   -0.19964      0.99962     2.19197    0.00804     3.19964
      C   15   -0.19106      0.99963     2.18258    0.00885     3.19106
      C   16   -0.19948      0.99963     2.19127    0.00858     3.19948
      C   17   -0.07938      0.99960     2.06890    0.01088     3.07938
      H   18    0.09781      0.00000     0.40096    0.00123     0.40219
      H   19    0.10766      0.00000     0.39087    0.00146     0.39234
      H   20    0.09961      0.00000     0.39941    0.00098     0.40039
      H   21    0.10452      0.00000     0.39312    0.00236     0.39548
      H   22    0.09163      0.00000     0.40680    0.00158     0.40837
      H   23    0.09297      0.00000     0.40604    0.00099     0.40703
      H   24    0.18061      0.00000     0.31594    0.00345     0.31939
      H   25    0.17523      0.00000     0.32252    0.00226     0.32477
      H   26    0.16860      0.00000     0.32874    0.00266     0.33140
      H   27    0.09062      0.00000     0.40823    0.00115     0.40938
      H   28    0.10465      0.00000     0.39447    0.00088     0.39535
      H   29    0.09688      0.00000     0.40222    0.00090     0.40312
      H   30    0.09681      0.00000     0.40189    0.00129     0.40319
      H   31    0.09777      0.00000     0.40124    0.00099     0.40223
      H   32    0.09256      0.00000     0.40559    0.00185     0.40744
      H   33    0.09662      0.00000     0.40218    0.00120     0.40338
      H   34    0.09761      0.00000     0.40123    0.00116     0.40239
      H   35    0.10004      0.00000     0.39872    0.00125     0.39996
      H   36    0.08847      0.00000     0.41025    0.00128     0.41153
 =======================================================================
   * Total *   -0.00000     16.99328    45.80358    0.20314    63.00000

 Normal termination of Gaussian 16 at Mon Jan  4 10:51:21 2021.
