 Gaussian 16, Revision A.03,

 -----------------------------------------------------------
 # opt freq B3LYP/6-31G(d) empiricaldispersion=gd3bj scf=xqc
 -----------------------------------------------------------

 -------------------------------
 CID_131601781_JID_5178_neutraal
 -------------------------------
 Symbolic Z-matrix:
 Charge =  0 Multiplicity = 1

 SCF Done:  E(RB3LYP) =  -681.352103572     A.U. after   15 cycles
 SCF Done:  E(RB3LYP) =  -681.374030146     A.U. after   13 cycles
 SCF Done:  E(RB3LYP) =  -681.375064689     A.U. after   13 cycles
 SCF Done:  E(RB3LYP) =  -681.375653466     A.U. after   12 cycles
 SCF Done:  E(RB3LYP) =  -681.376032416     A.U. after   13 cycles
 SCF Done:  E(RB3LYP) =  -681.376398974     A.U. after   13 cycles
 SCF Done:  E(RB3LYP) =  -681.376747648     A.U. after   13 cycles
 SCF Done:  E(RB3LYP) =  -681.376952510     A.U. after   12 cycles
 SCF Done:  E(RB3LYP) =  -681.376759469     A.U. after   14 cycles
 SCF Done:  E(RB3LYP) =  -681.377163542     A.U. after   12 cycles
 SCF Done:  E(RB3LYP) =  -681.377187772     A.U. after   12 cycles
 SCF Done:  E(RB3LYP) =  -681.377209067     A.U. after   11 cycles
 SCF Done:  E(RB3LYP) =  -681.377211498     A.U. after   10 cycles
 SCF Done:  E(RB3LYP) =  -681.377212033     A.U. after    9 cycles
 Optimization completed.
    -- Stationary point found.
 Normal termination of Gaussian 16 at Thu Dec 10 14:49:09 2020.

 --------------------------------------------------------------------
 #N Geom=AllCheck Guess=TCheck SCRF=Check GenChk RB3LYP/6-31G(d) Freq
 --------------------------------------------------------------------

 Structure from the checkpoint file:  "JID_5178.chk"
 -------------------------------
 CID_131601781_JID_5178_neutraal
 -------------------------------
 Charge =  0 Multiplicity = 1

 SCF Done:  E(RB3LYP) =  -681.377212033     A.U. after    1 cycles

  Exact polarizability: 188.311   2.923 135.689   2.806   1.194  61.873
 Approx polarizability: 269.239  13.333 240.103   6.845   5.450  95.740

                      1                      2                      3
                      A                      A                      A
 Frequencies --     24.5518                69.3401               108.6981
 Red. masses --      5.1674                 4.8857                 9.8840
 Frc consts  --      0.0018                 0.0138                 0.0688
 IR Inten    --      1.0601                 0.1252                 3.4438

                      4                      5                      6
                      A                      A                      A
 Frequencies --    131.6828               145.2516               154.6677
 Red. masses --      3.3930                 1.1410                 4.2407
 Frc consts  --      0.0347                 0.0142                 0.0598
 IR Inten    --      1.5552                 0.2453                 2.8768

                      7                      8                      9
                      A                      A                      A
 Frequencies --    190.7720               238.2062               258.2914
 Red. masses --      4.7062                 4.9201                 3.8202
 Frc consts  --      0.1009                 0.1645                 0.1502
 IR Inten    --      5.1955                 4.6766                 3.6155

                     10                     11                     12
                      A                      A                      A
 Frequencies --    284.2051               293.0654               340.3536
 Red. masses --      3.3904                 3.1641                 2.1962
 Frc consts  --      0.1613                 0.1601                 0.1499
 IR Inten    --     15.3347                15.3411                38.5737

                     13                     14                     15
                      A                      A                      A
 Frequencies --    365.4163               380.4786               418.6881
 Red. masses --      4.4307                 3.6601                 1.7485
 Frc consts  --      0.3486                 0.3122                 0.1806
 IR Inten    --      8.0061                15.4076                45.4162

                     16                     17                     18
                      A                      A                      A
 Frequencies --    453.4137               465.5207               551.6694
 Red. masses --      4.5145                 1.8626                 6.5801
 Frc consts  --      0.5468                 0.2378                 1.1799
 IR Inten    --     17.3649                62.8446                 7.9390

                     19                     20                     21
                      A                      A                      A
 Frequencies --    575.8380               581.1196               612.7269
 Red. masses --      5.0545                 4.8618                 4.8093
 Frc consts  --      0.9875                 0.9673                 1.0638
 IR Inten    --     20.0313                 3.5112                 4.7628

                     22                     23                     24
                      A                      A                      A
 Frequencies --    662.2030               715.2797               736.7029
 Red. masses --      4.7366                 5.7816                 9.9575
 Frc consts  --      1.2238                 1.7428                 3.1841
 IR Inten    --      2.2219                22.4137                 9.8861

                     25                     26                     27
                      A                      A                      A
 Frequencies --    740.9913               758.4230               795.9995
 Red. masses --      5.3410                 4.3438                 3.7833
 Frc consts  --      1.7278                 1.4721                 1.4123
 IR Inten    --      1.5563                 7.2039                19.8589

                     28                     29                     30
                      A                      A                      A
 Frequencies --    832.9515               867.3181               883.2801
 Red. masses --      1.5599                 2.1555                 1.4399
 Frc consts  --      0.6376                 0.9553                 0.6619
 IR Inten    --     20.0309                78.7447                13.1699

                     31                     32                     33
                      A                      A                      A
 Frequencies --    942.5057               944.6204               962.0460
 Red. masses --      1.6781                 1.8593                 2.7097
 Frc consts  --      0.8783                 0.9775                 1.4776
 IR Inten    --      4.4933                 7.3379                29.5603

                     34                     35                     36
                      A                      A                      A
 Frequencies --    983.1833              1090.5118              1120.7386
 Red. masses --      3.3954                 2.2737                 2.6167
 Frc consts  --      1.9338                 1.5931                 1.9365
 IR Inten    --     61.7810                15.6085                16.6202

                     37                     38                     39
                      A                      A                      A
 Frequencies --   1167.9954              1169.5907              1178.6896
 Red. masses --      1.4473                 1.2848                 3.2384
 Frc consts  --      1.1633                 1.0355                 2.6508
 IR Inten    --      4.6821                 0.4600                13.0312

                     40                     41                     42
                      A                      A                      A
 Frequencies --   1198.1845              1205.9224              1269.3965
 Red. masses --      2.1654                 1.3239                 2.0307
 Frc consts  --      1.8316                 1.1344                 1.9280
 IR Inten    --     52.0617                 6.6812                10.8812

                     43                     44                     45
                      A                      A                      A
 Frequencies --   1284.4351              1326.8220              1349.7517
 Red. masses --      1.5043                 2.1518                 2.4784
 Frc consts  --      1.4622                 2.2319                 2.6603
 IR Inten    --     14.2237                55.1009                52.0955

                     46                     47                     48
                      A                      A                      A
 Frequencies --   1365.9507              1406.0811              1419.7036
 Red. masses --      1.7431                 1.2635                 6.9714
 Frc consts  --      1.9163                 1.4718                 8.2787
 IR Inten    --     31.5530                16.4315                60.2855

                     49                     50                     51
                      A                      A                      A
 Frequencies --   1429.8524              1475.2925              1521.7748
 Red. masses --      2.9457                 1.3708                 3.6299
 Frc consts  --      3.5483                 1.7578                 4.9528
 IR Inten    --     37.4465                17.5356                64.0071

                     52                     53                     54
                      A                      A                      A
 Frequencies --   1522.2569              1540.5724              1554.0561
 Red. masses --      1.0428                 1.1497                 3.1109
 Frc consts  --      1.4238                 1.6076                 4.4266
 IR Inten    --      9.0930                26.4276               115.2112

                     55                     56                     57
                      A                      A                      A
 Frequencies --   1659.0908              1687.5161              1694.3765
 Red. masses --      6.6075                 3.0356                 1.3998
 Frc consts  --     10.7158                 5.0931                 2.3678
 IR Inten    --     16.2301                25.2328                28.1556

                     58                     59                     60
                      A                      A                      A
 Frequencies --   1849.6988              2352.3935              3031.5170
 Red. masses --     10.4694                12.6605                 1.0825
 Frc consts  --     21.1044                41.2782                 5.8614
 IR Inten    --    808.2538                 3.6803                11.6803

                     61                     62                     63
                      A                      A                      A
 Frequencies --   3051.9307              3108.2489              3173.2873
 Red. masses --      1.0353                 1.1063                 1.1001
 Frc consts  --      5.6813                 6.2971                 6.5266
 IR Inten    --     49.5432                25.3249                 0.2218

                     64                     65                     66
                      A                      A                      A
 Frequencies --   3210.4103              3214.3100              3231.3664
 Red. masses --      1.0893                 1.0909                 1.0927
 Frc consts  --      6.6148                 6.6409                 6.7226
 IR Inten    --      7.8865                 0.9601                 2.4161

                     67                     68                     69
                      A                      A                      A
 Frequencies --   3475.7966              3566.4599              3678.3396
 Red. masses --      1.0494                 1.0940                 1.0802
 Frc consts  --      7.4696                 8.1983                 8.6112
 IR Inten    --      0.6262                 1.1970                73.2737

 - Thermochemistry -
 -------------------
 Temperature   298.150 Kelvin.  Pressure   1.00000 Atm.
 Atom     1 has atomic number  6 and mass  12.00000

 Molecular mass:   202.08546 amu.
 Principal axes and moments of inertia in atomic units:
                           1         2         3
     Eigenvalues --  1238.812205398.873836542.97571
           X            1.00000  -0.00305  -0.00043
           Y            0.00305   0.99998  -0.00477
           Z            0.00045   0.00477   0.99999
 This molecule is an asymmetric top.
 Rotational symmetry number  1.
 Warning -- assumption of classical behavior for rotation
           may cause significant error
 Rotational temperatures (Kelvin)      0.06992     0.01604     0.01324
 Rotational constants (GHZ):           1.45683     0.33428     0.27583
 Zero-point vibrational energy     514704.0 (Joules/Mol)
                                  123.01720 (Kcal/Mol)
 Warning -- explicit consideration of  21 degrees of freedom as
           vibrations may cause significant error
 Vibrational temperatures:     35.32    99.76   156.39   189.46   208.98
          (Kelvin)            222.53   274.48   342.73   371.62   408.91
                              421.66   489.69   525.75   547.42   602.40
                              652.36   669.78   793.73   828.50   836.10
                              881.58   952.76  1029.13  1059.95  1066.12
                             1091.20  1145.27  1198.43  1247.88  1270.84
                             1356.06  1359.10  1384.17  1414.58  1569.00
                             1612.49  1680.48  1682.78  1695.87  1723.92
                             1735.05  1826.38  1848.02  1909.00  1941.99
                             1965.30  2023.04  2042.64  2057.24  2122.62
                             2189.49  2190.19  2216.54  2235.94  2387.06
                             2427.96  2437.83  2661.30  3384.57  4361.68
                             4391.05  4472.08  4565.65  4619.06  4624.68
                             4649.22  5000.90  5131.34  5292.31

 Zero-point correction=                           0.196040 (Hartree/Particle)
 Thermal correction to Energy=                    0.209401
 Thermal correction to Enthalpy=                  0.210346
 Thermal correction to Gibbs Free Energy=         0.155481
 Sum of electronic and zero-point Energies=           -681.181172
 Sum of electronic and thermal Energies=              -681.167811
 Sum of electronic and thermal Enthalpies=            -681.166866
 Sum of electronic and thermal Free Energies=         -681.221731

                     E (Thermal)             CV                S
                      KCal/Mol        Cal/Mol-Kelvin    Cal/Mol-Kelvin
 Total                  131.401             50.497            115.473
 Electronic               0.000              0.000              0.000
 Translational            0.889              2.981             41.815
 Rotational               0.889              2.981             32.148
 Vibrational            129.624             44.536             41.510
 Vibration     1          0.593              1.985              6.227
 Vibration     2          0.598              1.969              4.172
 Vibration     3          0.606              1.942              3.292
 Vibration     4          0.612              1.922              2.921
 Vibration     5          0.617              1.908              2.734
 Vibration     6          0.620              1.897              2.614
 Vibration     7          0.634              1.853              2.220
 Vibration     8          0.656              1.782              1.816
 Vibration     9          0.667              1.749              1.673
 Vibration    10          0.683              1.703              1.508
 Vibration    11          0.688              1.687              1.456
 Vibration    12          0.720              1.595              1.210
 Vibration    13          0.739              1.543              1.099
 Vibration    14          0.750              1.512              1.037
 Vibration    15          0.782              1.430              0.896
 Vibration    16          0.812              1.353              0.786
 Vibration    17          0.823              1.327              0.750
 Vibration    18          0.907              1.136              0.541
 Vibration    19          0.932              1.084              0.493
 Vibration    20          0.938              1.072              0.483
 Vibration    21          0.972              1.005              0.428

                           ! Non-Optimized Parameters !
 Normal termination of Gaussian 16 at Thu Dec 10 14:55:55 2020.

 ----------------------------------------------------------------------
 # B3LYP/6-311++G(d,p) empiricaldispersion=gd3bj scf=xqc pop=npa geom=c
 heck
 ----------------------------------------------------------------------

 ---------------------------------------
 CID_131601781_JID_5178_Energie_neutraal
 ---------------------------------------
 Structure from the checkpoint file:  "JID_5178.chk"
 Charge =  0 Multiplicity = 1

 SCF Done:  E(RB3LYP) =  -681.570930517     A.U. after   15 cycles
 Normal termination of Gaussian 16 at Thu Dec 10 14:58:55 2020.

 ----------------------------------------------------------------------
 # B3LYP/6-311++G(d,p) empiricaldispersion=gd3bj scf=xqc pop=npa geom=c
 heck
 ----------------------------------------------------------------------

 -------------------------------------
 CID_131601781_JID_5178_Energie_kation
 -------------------------------------
 Structure from the checkpoint file:  "JID_5178.chk"
 Charge =  1 Multiplicity = 2

 SCF Done:  E(UB3LYP) =  -681.280720191     A.U. after   22 cycles
 Normal termination of Gaussian 16 at Thu Dec 10 15:05:15 2020.
 Gaussian 16:  ES64L-G16RevA.03 25-Dec-2016

 ----------------------------------------------------------------------
 # B3LYP/6-311++G(d,p) empiricaldispersion=gd3bj scf=xqc pop=npa geom=c
 heck
 ----------------------------------------------------------------------

 ------------------------------------
 CID_131601781_JID_5178_Energie_anion
 ------------------------------------
 Structure from the checkpoint file:  "JID_5178.chk"
 Charge = -1 Multiplicity = 2

                         Standard orientation:
 ---------------------------------------------------------------------
 Center     Atomic      Atomic             Coordinates (Angstroms)
 Number     Number       Type             X           Y           Z
 ---------------------------------------------------------------------
      1          6           0       -3.609995    1.434916   -0.094053
      2          7           0       -2.586474    0.416171   -0.033739
      3          6           0       -1.216393    0.618737    0.052349
      4          6           0       -0.605392   -0.652669    0.081470
      5          6           0        0.770997   -0.791999    0.160228
      6          6           0        1.546235    0.377144    0.211823
      7          6           0        0.937945    1.638927    0.182547
      8          6           0       -0.451926    1.776589    0.101584
      9          6           0        3.067262    0.313693    0.342549
     10          6           0        3.587440   -1.048816    0.070642
     11          7           0        4.039442   -2.089902   -0.175111
     12          7           0        3.705536    1.333882   -0.496061
     13          7           0       -1.635009   -1.581705    0.009113
     14          6           0       -2.878361   -0.953365   -0.062453
     15          8           0       -3.977322   -1.473243   -0.133978
     16          1           0       -3.586995    2.063089    0.803425
     17          1           0       -3.476993    2.068480   -0.978163
     18          1           0       -4.571565    0.922935   -0.154960
     19          1           0        1.235344   -1.772472    0.173831
     20          1           0        1.567765    2.520581    0.210882
     21          1           0       -0.913550    2.758224    0.075928
     22          1           0        3.342831    0.545552    1.381050
     23          1           0        4.717032    1.295571   -0.383151
     24          1           0        3.502769    1.141956   -1.475941
     25          1           0       -1.549389   -2.586029    0.009393
 ---------------------------------------------------------------------

 SCF Done:  E(UB3LYP) =  -681.564579654     A.U. after   32 cycles

 The electronic state is 2-A.
 Alpha  occ. eigenvalues --  -19.00595 -14.27384 -14.27351 -14.21699 -14.20988
 Alpha  occ. eigenvalues --  -10.21477 -10.14962 -10.12960 -10.12255 -10.11995
 Alpha  occ. eigenvalues --  -10.11328 -10.09291 -10.08835 -10.08671 -10.07604
 Alpha  occ. eigenvalues --   -0.97958  -0.90673  -0.83607  -0.82770  -0.79939
 Alpha  occ. eigenvalues --   -0.75880  -0.67949  -0.65664  -0.64484  -0.60311
 Alpha  occ. eigenvalues --   -0.54286  -0.52747  -0.51238  -0.45801  -0.43849
 Alpha  occ. eigenvalues --   -0.43186  -0.40822  -0.39913  -0.39326  -0.36184
 Alpha  occ. eigenvalues --   -0.35727  -0.35357  -0.34316  -0.33846  -0.33161
 Alpha  occ. eigenvalues --   -0.31106  -0.28757  -0.28613  -0.27787  -0.26659
 Alpha  occ. eigenvalues --   -0.24762  -0.23665  -0.23323  -0.21436  -0.19628
 Alpha  occ. eigenvalues --   -0.16812  -0.15081  -0.12066   0.04003
 Alpha virt. eigenvalues --    0.05779   0.07039   0.07242   0.08260   0.08752
 Alpha virt. eigenvalues --    0.08898   0.09682   0.10374   0.10717   0.11361
 Alpha virt. eigenvalues --    0.11714   0.12184   0.12933   0.13137   0.13449

  Beta  occ. eigenvalues --  -19.00591 -14.27377 -14.27346 -14.21663 -14.20903
  Beta  occ. eigenvalues --  -10.21473 -10.14940 -10.12970 -10.12199 -10.11957
  Beta  occ. eigenvalues --  -10.11324 -10.09251 -10.08799 -10.08666 -10.07571
  Beta  occ. eigenvalues --   -0.97943  -0.90653  -0.83585  -0.82667  -0.79842
  Beta  occ. eigenvalues --   -0.75805  -0.67839  -0.65603  -0.64407  -0.60206
  Beta  occ. eigenvalues --   -0.54244  -0.52692  -0.51187  -0.45760  -0.43770
  Beta  occ. eigenvalues --   -0.43112  -0.40714  -0.39851  -0.39285  -0.36109
  Beta  occ. eigenvalues --   -0.35682  -0.35299  -0.34260  -0.33805  -0.33078
  Beta  occ. eigenvalues --   -0.31058  -0.28697  -0.28507  -0.27724  -0.26617
  Beta  occ. eigenvalues --   -0.24655  -0.23602  -0.23241  -0.21285  -0.19620
  Beta  occ. eigenvalues --   -0.16723  -0.14932  -0.11893
  Beta virt. eigenvalues --    0.06380   0.06975   0.07249   0.07376   0.08932
  Beta virt. eigenvalues --    0.09227   0.09565   0.10197   0.10861   0.10976
  Beta virt. eigenvalues --    0.11533   0.11804   0.12370   0.13092   0.13407

 Mulliken charges and spin densities:
               1          2
     1  C    0.787781  -1.103757
     2  N   -0.278554   0.135571
     3  C    0.368859  -0.244666
     4  C   -0.127793   0.103612
     5  C   -0.996223   0.222144
     6  C    1.514771  -0.497336
     7  C   -0.287517   0.118842
     8  C   -0.460274   0.202455
     9  C    0.688460  -0.893957
    10  C    0.469626  -0.941595
    11  N   -0.311909   0.036353
    12  N   -0.125089  -0.074262
    13  N   -0.351007   0.013050
    14  C    0.191075   0.198365
    15  O   -0.409623  -0.003036
    16  H   -0.251406   0.422633
    17  H   -0.285468   0.461475
    18  H    0.041397   0.140806
    19  H    0.029106   0.087784
    20  H   -0.175416   0.406185
    21  H   -0.519319   0.681866
    22  H   -0.493580   0.715352
    23  H   -0.286696   0.539266
    24  H    0.009874   0.193619
    25  H    0.258923   0.079230
 Sum of Mulliken charges =  -1.00000   1.00000

 Dipole moment (field-independent basis, Debye):
    X=             -4.1273    Y=             -3.3237    Z=             -0.3792  Tot=              5.3127
 Quadrupole moment (field-independent basis, Debye-Ang):
   XX=           -188.1846   YY=           -130.3246   ZZ=           -110.8783
   XY=              0.8849   XZ=             -2.8172   YZ=             -2.0408

 Summary of Natural Population Analysis:

                                       Natural Population
                Natural  -----------------------------------------------
    Atom  No    Charge         Core      Valence    Rydberg      Total
 -----------------------------------------------------------------------
      C    1   -0.17877      0.99965     2.17081    0.00831     3.17877
      N    2   -0.23504      0.99960     2.72648    0.00896     3.73504
      C    3    0.08479      0.99946     1.90499    0.01076     2.91521
      C    4    0.07188      0.99947     1.91867    0.00998     2.92812
      C    5   -0.11123      0.99948     2.10459    0.00716     3.11123
      C    6   -0.01693      0.99951     2.00602    0.01140     3.01693
      C    7   -0.09362      0.99952     2.08389    0.01021     3.09362
      C    8   -0.11461      0.99953     2.10617    0.00891     3.11461
      C    9   -0.06848      0.99949     2.05442    0.01457     3.06848
      C   10    0.15457      0.99965     1.82618    0.01961     2.84543
      N   11   -0.18745      0.99979     2.67563    0.01203     3.68745
      N   12   -0.40066      0.99978     2.89053    0.01034     3.90066
      N   13   -0.30233      0.99964     2.79533    0.00736     3.80233
      C   14    0.40155      0.99969     1.57516    0.02361     2.59845
      O   15   -0.33401      0.99987     3.32865    0.00548     4.33401
      H   16    0.09822      0.00000     0.40053    0.00125     0.40178
      H   17    0.09983      0.00000     0.39846    0.00170     0.40017
      H   18    0.11329      0.00000     0.38572    0.00099     0.38671
      H   19    0.10953      0.00000     0.38917    0.00130     0.39047
      H   20    0.11410      0.00000     0.38413    0.00177     0.38590
      H   21    0.10784      0.00000     0.39067    0.00149     0.39216
      H   22    0.12197      0.00000     0.37332    0.00471     0.37803
      H   23    0.18402      0.00000     0.30982    0.00616     0.31598
      H   24    0.17774      0.00000     0.31962    0.00263     0.32226
      H   25    0.20380      0.00000     0.29431    0.00189     0.29620
 =======================================================================
   * Total *    0.00000     14.99413    37.81328    0.19259    53.00000

 Normal termination of Gaussian 16 at Thu Dec 10 15:14:23 2020.
