 Gaussian 16, Revision A.03,

 -----------------------------------------------------------
 # opt freq B3LYP/6-31G(d) empiricaldispersion=gd3bj scf=xqc
 -----------------------------------------------------------

 ------------------------------
 CID_62402641_JID_8784_neutraal
 ------------------------------
 Symbolic Z-matrix:
 Charge =  0 Multiplicity = 1

 SCF Done:  E(RB3LYP) =  -798.035715261     A.U. after   14 cycles
 SCF Done:  E(RB3LYP) =  -798.043595359     A.U. after   12 cycles
 SCF Done:  E(RB3LYP) =  -798.045033775     A.U. after   12 cycles
 SCF Done:  E(RB3LYP) =  -798.045362982     A.U. after   11 cycles
 SCF Done:  E(RB3LYP) =  -798.045503148     A.U. after   11 cycles
 SCF Done:  E(RB3LYP) =  -798.045594478     A.U. after   11 cycles
 SCF Done:  E(RB3LYP) =  -798.045833576     A.U. after   12 cycles
 SCF Done:  E(RB3LYP) =  -798.046036042     A.U. after   12 cycles
 SCF Done:  E(RB3LYP) =  -798.046195289     A.U. after   12 cycles
 SCF Done:  E(RB3LYP) =  -798.046695620     A.U. after   12 cycles
 SCF Done:  E(RB3LYP) =  -798.048946466     A.U. after   10 cycles
 SCF Done:  E(RB3LYP) =  -798.048945371     A.U. after   10 cycles
 SCF Done:  E(RB3LYP) =  -798.048952039     A.U. after   10 cycles
 SCF Done:  E(RB3LYP) =  -798.048951980     A.U. after    8 cycles
 SCF Done:  E(RB3LYP) =  -798.048952171     A.U. after    7 cycles
 Optimization completed.
    -- Stationary point found.
 Normal termination of Gaussian 16 at Fri Dec 11 21:25:07 2020.

 --------------------------------------------------------------------
 #N Geom=AllCheck Guess=TCheck SCRF=Check GenChk RB3LYP/6-31G(d) Freq
 --------------------------------------------------------------------

 Structure from the checkpoint file:  "JID_8784.chk"
 ------------------------------
 CID_62402641_JID_8784_neutraal
 ------------------------------
 Charge =  0 Multiplicity = 1

 SCF Done:  E(RB3LYP) =  -798.048952171     A.U. after    1 cycles

  Exact polarizability: 246.578  21.353 150.057  -1.000  -2.890  96.808
 Approx polarizability: 327.820  38.182 270.456  -3.384  -6.872 160.716

                      1                      2                      3
                      A                      A                      A
 Frequencies --     18.7323                26.0840                48.4130
 Red. masses --      4.9637                 4.8132                 4.2664
 Frc consts  --      0.0010                 0.0019                 0.0059
 IR Inten    --      0.0060                 0.5030                 0.2893

                      4                      5                      6
                      A                      A                      A
 Frequencies --     58.1995                68.2714                92.4869
 Red. masses --      2.8189                 1.2138                 5.1705
 Frc consts  --      0.0056                 0.0033                 0.0261
 IR Inten    --      0.0970                 0.6931                 0.6150

                      7                      8                      9
                      A                      A                      A
 Frequencies --    124.4369               170.0199               191.9597
 Red. masses --      3.2324                 3.6213                 3.6365
 Frc consts  --      0.0295                 0.0617                 0.0790
 IR Inten    --      2.9148                 0.7979                 0.5747

                     10                     11                     12
                      A                      A                      A
 Frequencies --    239.0611               247.9495               304.9351
 Red. masses --      5.1289                 3.4234                 3.9595
 Frc consts  --      0.1727                 0.1240                 0.2169
 IR Inten    --      0.8114                 1.2432                 1.7488

                     13                     14                     15
                      A                      A                      A
 Frequencies --    343.4902               347.4251               381.9082
 Red. masses --      2.3675                 3.8094                 3.2586
 Frc consts  --      0.1646                 0.2709                 0.2800
 IR Inten    --      4.3414                 1.2736                 2.5833

                     16                     17                     18
                      A                      A                      A
 Frequencies --    438.3450               446.4455               507.9028
 Red. masses --      4.5831                 4.3152                 4.1638
 Frc consts  --      0.5189                 0.5067                 0.6329
 IR Inten    --      8.8141                 0.4786                10.5417

                     19                     20                     21
                      A                      A                      A
 Frequencies --    548.0599               594.7999               614.0158
 Red. masses --      4.5436                 3.7434                 3.3858
 Frc consts  --      0.8041                 0.7803                 0.7521
 IR Inten    --      6.2627                10.5673                 5.5286

                     22                     23                     24
                      A                      A                      A
 Frequencies --    627.1620               644.0781               671.2311
 Red. masses --      5.2506                 4.7227                 4.4700
 Frc consts  --      1.2168                 1.1543                 1.1866
 IR Inten    --      1.7749                 3.6318                 0.5306

                     25                     26                     27
                      A                      A                      A
 Frequencies --    694.0442               729.5723               746.9917
 Red. masses --      6.2547                 1.6375                 2.0637
 Frc consts  --      1.7751                 0.5135                 0.6785
 IR Inten    --      5.3857                 7.5045                27.4881

                     28                     29                     30
                      A                      A                      A
 Frequencies --    749.1760               786.5365               792.9486
 Red. masses --      2.0078                 3.8367                 2.3087
 Frc consts  --      0.6639                 1.3984                 0.8553
 IR Inten    --     24.9362                10.6306                23.1807

                     31                     32                     33
                      A                      A                      A
 Frequencies --    814.0574               830.7259               867.2728
 Red. masses --      1.2411                 1.8813                 1.3126
 Frc consts  --      0.4846                 0.7649                 0.5817
 IR Inten    --     19.0679                97.9478                 0.5995

                     34                     35                     36
                      A                      A                      A
 Frequencies --    877.1547               903.5653               913.9827
 Red. masses --      2.8774                 3.7103                 2.9604
 Frc consts  --      1.3044                 1.7847                 1.4571
 IR Inten    --      0.5756                 3.1621                 5.0517

                     37                     38                     39
                      A                      A                      A
 Frequencies --    918.7997               958.2868               960.8326
 Red. masses --      1.5930                 1.3433                 2.9341
 Frc consts  --      0.7923                 0.7268                 1.5959
 IR Inten    --     27.3874                 0.6339                15.4592

                     40                     41                     42
                      A                      A                      A
 Frequencies --    982.3126              1000.5019              1008.9529
 Red. masses --      2.8676                 2.7171                 1.6112
 Frc consts  --      1.6303                 1.6025                 0.9664
 IR Inten    --      9.7537                11.9446                 4.2507

                     43                     44                     45
                      A                      A                      A
 Frequencies --   1041.4686              1047.6652              1075.8383
 Red. masses --      1.4094                 3.2665                 1.5040
 Frc consts  --      0.9007                 2.1124                 1.0257
 IR Inten    --     38.3151                13.0577                 2.6621

                     46                     47                     48
                      A                      A                      A
 Frequencies --   1094.1610              1119.6890              1134.6483
 Red. masses --      1.8012                 2.8493                 3.4702
 Frc consts  --      1.2705                 2.1047                 2.6322
 IR Inten    --     17.6887                 7.4006                30.6786

                     49                     50                     51
                      A                      A                      A
 Frequencies --   1148.0705              1183.2418              1184.5550
 Red. masses --      3.5559                 1.7415                 1.8051
 Frc consts  --      2.7614                 1.4365                 1.4924
 IR Inten    --     32.6541                 3.4401                16.0325

                     52                     53                     54
                      A                      A                      A
 Frequencies --   1221.1522              1234.9713              1256.1423
 Red. masses --      1.6153                 3.1211                 2.3952
 Frc consts  --      1.4192                 2.8046                 2.2268
 IR Inten    --     10.4466                 6.0766                 6.8722

                     55                     56                     57
                      A                      A                      A
 Frequencies --   1274.6489              1293.1184              1305.5761
 Red. masses --      1.4441                 3.2730                 1.9024
 Frc consts  --      1.3824                 3.2246                 1.9105
 IR Inten    --      5.3092                17.4545                60.8191

                     58                     59                     60
                      A                      A                      A
 Frequencies --   1345.1140              1384.6398              1399.8216
 Red. masses --      1.3558                 1.3057                 3.2924
 Frc consts  --      1.4454                 1.4749                 3.8011
 IR Inten    --      6.9195                41.3754                22.7099

                     61                     62                     63
                      A                      A                      A
 Frequencies --   1410.3375              1429.9235              1435.6565
 Red. masses --      2.0628                 1.4614                 2.5315
 Frc consts  --      2.4175                 1.7606                 3.0742
 IR Inten    --     26.4429                 5.0833                 0.5007

                     64                     65                     66
                      A                      A                      A
 Frequencies --   1438.6442              1457.2896              1488.3133
 Red. masses --      1.7336                 3.5766                 1.0780
 Frc consts  --      2.1140                 4.4752                 1.4069
 IR Inten    --      1.1199                 3.2984                 3.5970

                     67                     68                     69
                      A                      A                      A
 Frequencies --   1512.8278              1513.0489              1519.1631
 Red. masses --      1.2286                 1.0448                 1.2937
 Frc consts  --      1.6566                 1.4093                 1.7591
 IR Inten    --     49.2166                 5.8408                16.7309

                     70                     71                     72
                      A                      A                      A
 Frequencies --   1533.0196              1537.8220              1548.7548
 Red. masses --      4.8687                 1.1065                 4.7302
 Frc consts  --      6.7415                 1.5417                 6.6849
 IR Inten    --     42.1716                18.5182                11.8714

                     73                     74                     75
                      A                      A                      A
 Frequencies --   1557.1366              1608.7108              1646.1289
 Red. masses --      4.7844                 5.3949                 5.9846
 Frc consts  --      6.8349                 8.2261                 9.5547
 IR Inten    --     83.6581                58.5560                 1.4212

                     76                     77                     78
                      A                      A                      A
 Frequencies --   1685.2765              2994.0624              3040.0239
 Red. masses --      6.8911                 1.0674                 1.0930
 Frc consts  --     11.5313                 5.6376                 5.9514
 IR Inten    --     94.7924                34.4548                22.8158

                     79                     80                     81
                      A                      A                      A
 Frequencies --   3053.8698              3059.8985              3106.4735
 Red. masses --      1.0377                 1.0610                 1.1011
 Frc consts  --      5.7018                 5.8530                 6.2605
 IR Inten    --     31.2850                29.8553                16.6337

                     82                     83                     84
                      A                      A                      A
 Frequencies --   3109.2161              3149.2294              3160.4303
 Red. masses --      1.1039                 1.1007                 1.0899
 Frc consts  --      6.2877                 6.4317                 6.4142
 IR Inten    --     17.4387                 9.6938                22.0952

                     85                     86                     87
                      A                      A                      A
 Frequencies --   3261.8033              3264.2267              3274.1716
 Red. masses --      1.0925                 1.0932                 1.0958
 Frc consts  --      6.8482                 6.8628                 6.9210
 IR Inten    --      4.3838                 1.1723                 1.8609

                     88                     89                     90
                      A                      A                      A
 Frequencies --   3289.3642              3302.9996              3480.4294
 Red. masses --      1.0974                 1.1049                 1.0739
 Frc consts  --      6.9961                 7.1019                 7.6647
 IR Inten    --      0.2857                 1.4088                 0.0783

 - Thermochemistry -
 -------------------
 Temperature   298.150 Kelvin.  Pressure   1.00000 Atm.
 Atom     1 has atomic number  6 and mass  12.00000

 Molecular mass:   242.11676 amu.
 Principal axes and moments of inertia in atomic units:
                           1         2         3
     Eigenvalues --  1251.96710********************
           X            0.99999   0.00345  -0.00004
           Y           -0.00345   0.99998  -0.00466
           Z            0.00003   0.00466   0.99999
 This molecule is an asymmetric top.
 Rotational symmetry number  1.
 Warning -- assumption of classical behavior for rotation
           may cause significant error
 Rotational temperatures (Kelvin)      0.06918     0.00727     0.00683
 Rotational constants (GHZ):           1.44152     0.15142     0.14226
 Zero-point vibrational energy     681296.6 (Joules/Mol)
                                  162.83380 (Kcal/Mol)
 Warning -- explicit consideration of  21 degrees of freedom as
           vibrations may cause significant error
 Vibrational temperatures:     26.95    37.53    69.66    83.74    98.23
          (Kelvin)            133.07   179.04   244.62   276.19   343.96
                              356.74   438.73   494.21   499.87   549.48
                              630.68   642.34   730.76   788.54   855.78
                              883.43   902.35   926.68   965.75   998.57
                             1049.69  1074.75  1077.90  1131.65  1140.88
                             1171.25  1195.23  1247.81  1262.03  1300.03
                             1315.02  1321.95  1378.76  1382.42  1413.33
                             1439.50  1451.66  1498.44  1507.36  1547.89
                             1574.25  1610.98  1632.51  1651.82  1702.42
                             1704.31  1756.97  1776.85  1807.31  1833.94
                             1860.51  1878.43  1935.32  1992.19  2014.03
                             2029.16  2057.34  2065.59  2069.89  2096.71
                             2141.35  2176.62  2176.94  2185.74  2205.67
                             2212.58  2228.31  2240.37  2314.58  2368.41
                             2424.74  4307.79  4373.92  4393.84  4402.51
                             4469.52  4473.47  4531.04  4547.15  4693.01
                             4696.49  4710.80  4732.66  4752.28  5007.56

 Zero-point correction=                           0.259492 (Hartree/Particle)
 Thermal correction to Energy=                    0.274906
 Thermal correction to Enthalpy=                  0.275850
 Thermal correction to Gibbs Free Energy=         0.213611
 Sum of electronic and zero-point Energies=           -797.789460
 Sum of electronic and thermal Energies=              -797.774047
 Sum of electronic and thermal Enthalpies=            -797.773102
 Sum of electronic and thermal Free Energies=         -797.835341

                     E (Thermal)             CV                S
                      KCal/Mol        Cal/Mol-Kelvin    Cal/Mol-Kelvin
 Total                  172.506             58.449            130.992
 Electronic               0.000              0.000              0.000
 Translational            0.889              2.981             42.354
 Rotational               0.889              2.981             33.603
 Vibrational            170.728             52.487             55.034
 Vibration     1          0.593              1.986              6.764
 Vibration     2          0.593              1.985              6.107
 Vibration     3          0.595              1.978              4.881
 Vibration     4          0.596              1.974              4.517
 Vibration     5          0.598              1.969              4.203
 Vibration     6          0.602              1.955              3.607
 Vibration     7          0.610              1.929              3.030
 Vibration     8          0.625              1.879              2.435
 Vibration     9          0.634              1.851              2.209
 Vibration    10          0.657              1.781              1.810
 Vibration    11          0.662              1.766              1.745
 Vibration    12          0.696              1.664              1.390
 Vibration    13          0.722              1.589              1.196
 Vibration    14          0.725              1.581              1.178
 Vibration    15          0.751              1.509              1.032
 Vibration    16          0.799              1.387              0.832
 Vibration    17          0.806              1.369              0.807
 Vibration    18          0.863              1.232              0.639
 Vibration    19          0.903              1.144              0.548
 Vibration    20          0.952              1.043              0.459
 Vibration    21          0.973              1.002              0.426

                           ! Non-Optimized Parameters !
 Normal termination of Gaussian 16 at Fri Dec 11 21:34:55 2020.

 ----------------------------------------------------------------------
 # B3LYP/6-311++G(d,p) empiricaldispersion=gd3bj scf=xqc pop=npa geom=c
 heck
 ----------------------------------------------------------------------

 --------------------------------------
 CID_62402641_JID_8784_Energie_neutraal
 --------------------------------------
 Structure from the checkpoint file:  "JID_8784.chk"
 Charge =  0 Multiplicity = 1

 SCF Done:  E(RB3LYP) =  -798.260598609     A.U. after   16 cycles
 Normal termination of Gaussian 16 at Fri Dec 11 21:40:17 2020.

 ----------------------------------------------------------------------
 # B3LYP/6-311++G(d,p) empiricaldispersion=gd3bj scf=xqc pop=npa geom=c
 heck
 ----------------------------------------------------------------------

 ------------------------------------
 CID_62402641_JID_8784_Energie_kation
 ------------------------------------
 Structure from the checkpoint file:  "JID_8784.chk"
 Charge =  1 Multiplicity = 2

 SCF Done:  E(UB3LYP) =  -797.981278634     A.U. after   23 cycles
 Normal termination of Gaussian 16 at Fri Dec 11 21:51:40 2020.
 Gaussian 16:  ES64L-G16RevA.03 25-Dec-2016

 ----------------------------------------------------------------------
 # B3LYP/6-311++G(d,p) empiricaldispersion=gd3bj scf=xqc pop=npa geom=c
 heck
 ----------------------------------------------------------------------

 -----------------------------------
 CID_62402641_JID_8784_Energie_anion
 -----------------------------------
 Structure from the checkpoint file:  "JID_8784.chk"
 Charge = -1 Multiplicity = 2

                         Standard orientation:
 ---------------------------------------------------------------------
 Center     Atomic      Atomic             Coordinates (Angstroms)
 Number     Number       Type             X           Y           Z
 ---------------------------------------------------------------------
      1          6           0       -6.058230   -1.074032    0.401811
      2          6           0       -4.723246   -0.416456    0.245983
      3          7           0       -3.641322   -1.175463   -0.018578
      4          7           0       -2.625324   -0.288811   -0.098469
      5          6           0       -1.327742   -0.589541   -0.353178
      6          6           0       -0.417510    0.436951   -0.394272
      7          6           0       -0.904872    1.756434   -0.159225
      8          7           0       -2.162817    2.062223    0.083641
      9          6           0       -3.044780    1.040570    0.115387
     10          6           0       -4.414957    0.953842    0.339828
     11          6           0        1.040873    0.185149   -0.694704
     12          7           0        1.450579   -1.137313   -0.221906
     13          6           0        2.811179   -1.527782   -0.616316
     14          6           0        3.924810   -0.702635   -0.054043
     15          6           0        4.766331   -0.864602    1.008599
     16          6           0        5.577910    0.316545    1.080975
     17          6           0        5.171286    1.115732    0.058069
     18          8           0        4.165848    0.514584   -0.644497
     19          1           0       -6.772595   -0.699231   -0.340382
     20          1           0       -6.482862   -0.876959    1.393007
     21          1           0       -5.958755   -2.154748    0.274152
     22          1           0       -1.080834   -1.632885   -0.501051
     23          1           0       -0.199500    2.587021   -0.173179
     24          1           0       -5.082911    1.776722    0.542929
     25          1           0        1.210382    0.205413   -1.780573
     26          1           0        1.642336    1.012153   -0.283609
     27          1           0        1.382598   -1.157127    0.795271
     28          1           0        2.962982   -2.565490   -0.301551
     29          1           0        2.854382   -1.510553   -1.711977
     30          1           0        4.808309   -1.726622    1.660164
     31          1           0        6.359772    0.532646    1.795274
     32          1           0        5.475778    2.087480   -0.298807
 ---------------------------------------------------------------------

 SCF Done:  E(UB3LYP) =  -798.263219177     A.U. after   33 cycles
 SCF Done:  E(UB3LYP) =  -798.263219177     a.u. after    1 cycles

 The electronic state is 2-A.
 Alpha  occ. eigenvalues --  -19.10239 -14.26549 -14.20579 -14.19986 -14.16309
 Alpha  occ. eigenvalues --  -10.13757 -10.13644 -10.11697 -10.10610 -10.09170
 Alpha  occ. eigenvalues --  -10.08850 -10.08558 -10.08004 -10.07143 -10.06857
 Alpha  occ. eigenvalues --  -10.06793 -10.05374 -10.03387  -1.02529  -0.93199
 Alpha  occ. eigenvalues --   -0.81657  -0.80512  -0.73549  -0.71713  -0.68740
 Alpha  occ. eigenvalues --   -0.66267  -0.64214  -0.62090  -0.58315  -0.54120
 Alpha  occ. eigenvalues --   -0.52046  -0.51644  -0.49152  -0.47240  -0.45500
 Alpha  occ. eigenvalues --   -0.44546  -0.41177  -0.39316  -0.37954  -0.37518
 Alpha  occ. eigenvalues --   -0.35476  -0.34977  -0.34117  -0.33698  -0.33254
 Alpha  occ. eigenvalues --   -0.32207  -0.31382  -0.30740  -0.29834  -0.29216
 Alpha  occ. eigenvalues --   -0.29020  -0.28367  -0.27551  -0.26968  -0.25503
 Alpha  occ. eigenvalues --   -0.23183  -0.19980  -0.19170  -0.18514  -0.15422
 Alpha  occ. eigenvalues --   -0.13332  -0.12873  -0.12147  -0.09363   0.03966
 Alpha virt. eigenvalues --    0.05362   0.06812   0.07448   0.07587   0.08024
 Alpha virt. eigenvalues --    0.08923   0.09880   0.10268   0.10356   0.10739
 Alpha virt. eigenvalues --    0.11303   0.11702   0.12112   0.12584   0.13262

  Beta  occ. eigenvalues --  -19.10232 -14.26366 -14.20577 -14.20023 -14.15939
  Beta  occ. eigenvalues --  -10.13754 -10.13633 -10.11689 -10.10647 -10.09161
  Beta  occ. eigenvalues --  -10.08838 -10.08543 -10.07954 -10.06863 -10.06729
  Beta  occ. eigenvalues --  -10.06578 -10.05458 -10.03369  -1.02515  -0.92928
  Beta  occ. eigenvalues --   -0.81609  -0.80057  -0.73163  -0.71691  -0.68689
  Beta  occ. eigenvalues --   -0.66112  -0.64099  -0.62026  -0.58209  -0.53958
  Beta  occ. eigenvalues --   -0.51795  -0.51265  -0.49054  -0.47206  -0.45423
  Beta  occ. eigenvalues --   -0.44513  -0.40982  -0.39254  -0.37789  -0.37430
  Beta  occ. eigenvalues --   -0.35404  -0.34548  -0.33945  -0.33592  -0.33188
  Beta  occ. eigenvalues --   -0.32172  -0.31128  -0.30633  -0.29781  -0.29140
  Beta  occ. eigenvalues --   -0.28956  -0.28254  -0.27457  -0.26931  -0.25382
  Beta  occ. eigenvalues --   -0.21911  -0.19950  -0.18468  -0.18113  -0.15390
  Beta  occ. eigenvalues --   -0.13238  -0.12519  -0.11555  -0.08548
  Beta virt. eigenvalues --    0.06002   0.07090   0.07543   0.07687   0.08143
  Beta virt. eigenvalues --    0.09043   0.09434   0.09869   0.10323   0.10363
  Beta virt. eigenvalues --    0.10797   0.11333   0.11627   0.12121   0.12625

 Mulliken charges and spin densities:
               1          2
     1  C   -0.808204  -0.008920
     2  C   -0.197191   0.023768
     3  N    0.089487   0.002764
     4  N   -0.020468   0.022728
     5  C   -0.006380   0.273135
     6  C    0.020021   0.132834
     7  C   -0.414173   0.442124
     8  N   -0.142217   0.160847
     9  C   -0.094909  -0.029671
    10  C    0.000057  -0.003968
    11  C   -0.583299  -0.350495
    12  N    0.075844  -0.011272
    13  C    0.698969  -1.472907
    14  C    0.405325  -0.315918
    15  C   -1.258064   1.388427
    16  C    1.100010  -1.476626
    17  C   -0.354530   0.354434
    18  O    0.005183   0.022091
    19  H    0.128004   0.002733
    20  H    0.125342   0.005759
    21  H    0.141338   0.000121
    22  H    0.200655   0.004407
    23  H    0.106359   0.035632
    24  H    0.146850  -0.000195
    25  H    0.092387   0.070470
    26  H    0.284438  -0.094091
    27  H    0.199273   0.002401
    28  H    0.136614   0.056581
    29  H    0.016865   0.159887
    30  H   -0.412909   0.587418
    31  H   -0.562463   0.726291
    32  H   -0.118211   0.289209
 Sum of Mulliken charges =  -1.00000   1.00000

 Dipole moment (field-independent basis, Debye):
    X=             -0.1300    Y=             -1.2321    Z=             -1.3036  Tot=              1.7984
 Quadrupole moment (field-independent basis, Debye-Ang):
   XX=           -197.4170   YY=           -132.5659   ZZ=           -124.7536
   XY=              2.9992   XZ=            -11.9410   YZ=             -2.4733

 Summary of Natural Population Analysis:

                                       Natural Population
                Natural  -----------------------------------------------
    Atom  No    Charge         Core      Valence    Rydberg      Total
 -----------------------------------------------------------------------
      C    1   -0.29780      0.99963     2.29388    0.00428     3.29780
      C    2    0.08506      0.99962     1.90205    0.01327     2.91494
      N    3   -0.18806      0.99971     2.67611    0.01225     3.68806
      N    4   -0.07486      0.99960     2.56415    0.01112     3.57486
      C    5    0.11433      0.99950     1.87527    0.01090     2.88567
      C    6   -0.09248      0.99951     2.08462    0.00834     3.09248
      C    7    0.07710      0.99958     1.90832    0.01501     2.92290
      N    8   -0.20347      0.99967     2.69001    0.01379     3.70347
      C    9    0.17229      0.99955     1.81200    0.01616     2.82771
      C   10   -0.18465      0.99946     2.17672    0.00847     3.18465
      C   11   -0.08875      0.99960     2.07891    0.01024     3.08875
      N   12   -0.32974      0.99976     2.81903    0.01095     3.82974
      C   13   -0.10977      0.99958     2.09908    0.01111     3.10977
      C   14    0.14341      0.99946     1.84319    0.01394     2.85659
      C   15   -0.15142      0.99950     2.14223    0.00970     3.15142
      C   16   -0.15020      0.99957     2.14130    0.00933     3.15020
      C   17    0.05629      0.99951     1.92944    0.01476     2.94371
      O   18   -0.23760      0.99986     3.22934    0.00839     4.23760
      H   19    0.09864      0.00000     0.40036    0.00100     0.40136
      H   20    0.09875      0.00000     0.40025    0.00100     0.40125
      H   21    0.10570      0.00000     0.39331    0.00099     0.39430
      H   22    0.10383      0.00000     0.39432    0.00185     0.39617
      H   23    0.07947      0.00000     0.41850    0.00203     0.42053
      H   24    0.10391      0.00000     0.39527    0.00082     0.39609
      H   25    0.09245      0.00000     0.40612    0.00143     0.40755
      H   26    0.08810      0.00000     0.41000    0.00190     0.41190
      H   27    0.17198      0.00000     0.32514    0.00288     0.32802
      H   28    0.10203      0.00000     0.39700    0.00097     0.39797
      H   29    0.10094      0.00000     0.39770    0.00136     0.39906
      H   30    0.10967      0.00000     0.38931    0.00101     0.39033
      H   31    0.10977      0.00000     0.38882    0.00141     0.39023
      H   32    0.09508      0.00000     0.40396    0.00096     0.40492
 =======================================================================
   * Total *    0.00000     17.99267    45.78572    0.22162    64.00000

 Normal termination of Gaussian 16 at Fri Dec 11 22:08:20 2020.
