 Gaussian 16, Revision A.03,

 -----------------------------------------------------------
 # opt freq B3LYP/6-31G(d) empiricaldispersion=gd3bj scf=xqc
 -----------------------------------------------------------

 -------------------------------
 CID_143269538_JID_4097_neutraal
 -------------------------------
 Symbolic Z-matrix:
 Charge =  0 Multiplicity = 1

 SCF Done:  E(RB3LYP) =  -635.816443216     A.U. after   15 cycles
 SCF Done:  E(RB3LYP) =  -635.822377408     A.U. after   13 cycles
 SCF Done:  E(RB3LYP) =  -635.823186191     A.U. after   13 cycles
 SCF Done:  E(RB3LYP) =  -635.824490701     A.U. after   12 cycles
 SCF Done:  E(RB3LYP) =  -635.824745735     A.U. after   13 cycles
 SCF Done:  E(RB3LYP) =  -635.825424020     A.U. after   12 cycles
 SCF Done:  E(RB3LYP) =  -635.825654195     A.U. after   11 cycles
 SCF Done:  E(RB3LYP) =  -635.825766203     A.U. after   11 cycles
 SCF Done:  E(RB3LYP) =  -635.825794791     A.U. after   10 cycles
 SCF Done:  E(RB3LYP) =  -635.825812964     A.U. after   10 cycles
 SCF Done:  E(RB3LYP) =  -635.825815180     A.U. after    9 cycles
 SCF Done:  E(RB3LYP) =  -635.825815937     A.U. after    8 cycles
 SCF Done:  E(RB3LYP) =  -635.825816127     A.U. after    7 cycles
 Optimization completed.
    -- Stationary point found.
 Normal termination of Gaussian 16 at Thu Dec 10 09:18:09 2020.

 --------------------------------------------------------------------
 #N Geom=AllCheck Guess=TCheck SCRF=Check GenChk RB3LYP/6-31G(d) Freq
 --------------------------------------------------------------------

 Structure from the checkpoint file:  "JID_4097.chk"
 -------------------------------
 CID_143269538_JID_4097_neutraal
 -------------------------------
 Charge =  0 Multiplicity = 1

 SCF Done:  E(RB3LYP) =  -635.825816127     A.U. after    1 cycles

  Exact polarizability: 160.523   0.605 125.397   7.148  -0.763 111.273
 Approx polarizability: 220.111  -1.670 182.932  12.437   3.217 162.210

                      1                      2                      3
                      A                      A                      A
 Frequencies --     28.7300                53.3216                63.5678
 Red. masses --      4.4379                 2.7373                 6.2480
 Frc consts  --      0.0022                 0.0046                 0.0149
 IR Inten    --      0.1460                 0.0327                 1.4072

                      4                      5                      6
                      A                      A                      A
 Frequencies --     77.1584                85.6152               105.4746
 Red. masses --      3.1421                 3.4906                 2.7202
 Frc consts  --      0.0110                 0.0151                 0.0178
 IR Inten    --      0.7059                 1.2442                 0.3926

                      7                      8                      9
                      A                      A                      A
 Frequencies --    118.9514               140.6900               154.1662
 Red. masses --      3.9292                 2.7418                 2.0083
 Frc consts  --      0.0328                 0.0320                 0.0281
 IR Inten    --      3.0129                 1.7114                 0.4453

                     10                     11                     12
                      A                      A                      A
 Frequencies --    174.1683               200.2435               215.2270
 Red. masses --      2.0046                 2.1739                 2.5749
 Frc consts  --      0.0358                 0.0514                 0.0703
 IR Inten    --      1.5265                 2.4849                 4.9853

                     13                     14                     15
                      A                      A                      A
 Frequencies --    222.0956               235.4258               256.2827
 Red. masses --      2.4613                 1.1609                 1.3053
 Frc consts  --      0.0715                 0.0379                 0.0505
 IR Inten    --      0.6563                 0.3563                 0.5503

                     16                     17                     18
                      A                      A                      A
 Frequencies --    275.4417               347.9401               361.8647
 Red. masses --      1.5654                 2.6599                 3.6203
 Frc consts  --      0.0700                 0.1897                 0.2793
 IR Inten    --      3.5460                 0.9556                 1.9695

                     19                     20                     21
                      A                      A                      A
 Frequencies --    385.7936               414.2030               464.7497
 Red. masses --      2.2442                 3.9085                 3.7441
 Frc consts  --      0.1968                 0.3951                 0.4765
 IR Inten    --      2.1641                 7.2503                 5.5722

                     22                     23                     24
                      A                      A                      A
 Frequencies --    482.1420               506.2116               571.3681
 Red. masses --      2.8740                 3.3914                 2.9760
 Frc consts  --      0.3936                 0.5120                 0.5724
 IR Inten    --      1.7131                 7.8825                 2.9928

                     25                     26                     27
                      A                      A                      A
 Frequencies --    650.9222               672.7774               718.5809
 Red. masses --      1.4075                 2.6402                 3.6726
 Frc consts  --      0.3514                 0.7041                 1.1173
 IR Inten    --    129.7888                11.2581                14.8087

                     28                     29                     30
                      A                      A                      A
 Frequencies --    786.1510               806.3954               812.9257
 Red. masses --      2.2869                 1.3586                 1.3043
 Frc consts  --      0.8327                 0.5205                 0.5078
 IR Inten    --      6.2964                11.8939                 1.3123

                     31                     32                     33
                      A                      A                      A
 Frequencies --    875.1222               889.6968               926.6021
 Red. masses --      1.3425                 1.4951                 1.9698
 Frc consts  --      0.6058                 0.6973                 0.9965
 IR Inten    --      7.4804                14.9790                 2.7595

                     34                     35                     36
                      A                      A                      A
 Frequencies --    951.5067               968.2837              1000.6372
 Red. masses --      3.1384                 2.1870                 2.0442
 Frc consts  --      1.6741                 1.2081                 1.2059
 IR Inten    --     26.1528                 2.4690                 4.0916

                     37                     38                     39
                      A                      A                      A
 Frequencies --   1036.9638              1040.6874              1084.4638
 Red. masses --      1.8050                 1.6702                 2.4920
 Frc consts  --      1.1436                 1.0658                 1.7267
 IR Inten    --      8.1837                 0.4202                 9.2306

                     40                     41                     42
                      A                      A                      A
 Frequencies --   1087.2459              1095.6902              1114.4065
 Red. masses --      2.1060                 1.7358                 1.7978
 Frc consts  --      1.4668                 1.2278                 1.3155
 IR Inten    --      4.5193                 7.6725                11.6186

                     43                     44                     45
                      A                      A                      A
 Frequencies --   1141.2015              1162.2307              1180.4581
 Red. masses --      3.1468                 2.7818                 2.3737
 Frc consts  --      2.4146                 2.2139                 1.9489
 IR Inten    --     70.6292                24.1614                18.9056

                     46                     47                     48
                      A                      A                      A
 Frequencies --   1190.3443              1216.2223              1243.5540
 Red. masses --      1.2983                 1.7638                 2.0457
 Frc consts  --      1.0839                 1.5372                 1.8639
 IR Inten    --      2.6997                15.5576                21.6910

                     49                     50                     51
                      A                      A                      A
 Frequencies --   1275.1696              1292.8118              1304.1996
 Red. masses --      2.7487                 1.2247                 1.2139
 Frc consts  --      2.6334                 1.2060                 1.2166
 IR Inten    --    219.3181                 0.0397                 8.4352

                     52                     53                     54
                      A                      A                      A
 Frequencies --   1319.2552              1334.2955              1365.1556
 Red. masses --      1.2480                 1.2410                 1.5369
 Frc consts  --      1.2798                 1.3017                 1.6876
 IR Inten    --     17.9390                14.3683                 4.1526

                     55                     56                     57
                      A                      A                      A
 Frequencies --   1377.6280              1391.6801              1409.2096
 Red. masses --      1.3666                 1.3562                 1.2381
 Frc consts  --      1.5282                 1.5476                 1.4487
 IR Inten    --      1.3782                 6.3731                32.2630

                     58                     59                     60
                      A                      A                      A
 Frequencies --   1427.3435              1435.6854              1437.6047
 Red. masses --      1.4017                 1.2774                 1.2315
 Frc consts  --      1.6825                 1.5513                 1.4995
 IR Inten    --      3.4438                 3.8513                 3.5686

                     61                     62                     63
                      A                      A                      A
 Frequencies --   1499.8352              1502.1063              1510.0815
 Red. masses --      1.3833                 1.3500                 1.1158
 Frc consts  --      1.8334                 1.7947                 1.4992
 IR Inten    --     19.4703                13.3846                 9.2293

                     64                     65                     66
                      A                      A                      A
 Frequencies --   1515.1347              1519.8273              1522.7998
 Red. masses --      1.0683                 1.0607                 1.0878
 Frc consts  --      1.4450                 1.4435                 1.4862
 IR Inten    --      1.2228                 1.5082                 2.9386

                     67                     68                     69
                      A                      A                      A
 Frequencies --   1527.2817              1530.1664              1537.0001
 Red. masses --      1.0439                 1.0422                 1.0783
 Frc consts  --      1.4347                 1.4378                 1.5008
 IR Inten    --      5.3637                 7.1487                 2.5538

                     70                     71                     72
                      A                      A                      A
 Frequencies --   1539.4868              1545.7708              1715.1421
 Red. masses --      1.0617                 1.0556                 7.1970
 Frc consts  --      1.4826                 1.4861                12.4738
 IR Inten    --      3.1561                13.1751                40.9189

                     73                     74                     75
                      A                      A                      A
 Frequencies --   1743.5586              1809.8722              2998.8460
 Red. masses --      7.9411                 6.9447                 1.0402
 Frc consts  --     14.2234                13.4028                 5.5114
 IR Inten    --     17.0298               469.4029                37.1477

                     76                     77                     78
                      A                      A                      A
 Frequencies --   3006.7362              3025.7561              3034.3172
 Red. masses --      1.0860                 1.0699                 1.0596
 Frc consts  --      5.7846                 5.7711                 5.7481
 IR Inten    --     47.8740                25.6157                36.8790

                     79                     80                     81
                      A                      A                      A
 Frequencies --   3047.1624              3048.5700              3050.1899
 Red. masses --      1.0529                 1.0364                 1.0414
 Frc consts  --      5.7600                 5.6751                 5.7086
 IR Inten    --      3.3547                40.3959                32.4049

                     82                     83                     84
                      A                      A                      A
 Frequencies --   3054.2052              3079.7450              3086.5114
 Red. masses --      1.1005                 1.1028                 1.0983
 Frc consts  --      6.0486                 6.1627                 6.1645
 IR Inten    --     42.0396                25.3277                15.9410

                     85                     86                     87
                      A                      A                      A
 Frequencies --   3089.5473              3117.9499              3119.4597
 Red. masses --      1.0955                 1.1021                 1.1029
 Frc consts  --      6.1612                 6.3124                 6.3233
 IR Inten    --      0.5624                46.6654                40.6593

                     88                     89                     90
                      A                      A                      A
 Frequencies --   3120.9854              3124.7828              3141.2821
 Red. masses --      1.1031                 1.1024                 1.0978
 Frc consts  --      6.3307                 6.3420                 6.3822
 IR Inten    --     33.1827                35.3699                38.8263

                     91                     92                     93
                      A                      A                      A
 Frequencies --   3155.1840              3164.2577              3587.3831
 Red. masses --      1.0889                 1.0888                 1.0757
 Frc consts  --      6.3869                 6.4229                 8.1567
 IR Inten    --     22.8176                19.9939                18.6896

 - Thermochemistry -
 -------------------
 Temperature   298.150 Kelvin.  Pressure   1.00000 Atm.
 Atom     1 has atomic number  6 and mass  12.00000

 Molecular mass:   197.14158 amu.
 Principal axes and moments of inertia in atomic units:
                           1         2         3
     Eigenvalues --  2376.458203992.721854722.93176
           X            0.99993  -0.00927   0.00776
           Y            0.00981   0.99731  -0.07258
           Z           -0.00707   0.07265   0.99733
 This molecule is an asymmetric top.
 Rotational symmetry number  1.
 Warning -- assumption of classical behavior for rotation
           may cause significant error
 Rotational temperatures (Kelvin)      0.03645     0.02169     0.01834
 Rotational constants (GHZ):           0.75942     0.45201     0.38212
 Zero-point vibrational energy     759837.3 (Joules/Mol)
                                  181.60547 (Kcal/Mol)
 Warning -- explicit consideration of  24 degrees of freedom as
           vibrations may cause significant error
 Vibrational temperatures:     41.34    76.72    91.46   111.01   123.18
          (Kelvin)            151.75   171.14   202.42   221.81   250.59
                              288.11   309.66   319.55   338.73   368.73
                              396.30   500.61   520.64   555.07   595.95
                              668.67   693.69   728.33   822.07   936.53
                              967.98  1033.88  1131.10  1160.22  1169.62
                             1259.11  1280.08  1333.17  1369.01  1393.14
                             1439.69  1491.96  1497.32  1560.30  1564.30
                             1576.45  1603.38  1641.93  1672.19  1698.42
                             1712.64  1749.87  1789.20  1834.68  1860.07
                             1876.45  1898.11  1919.75  1964.15  1982.10
                             2002.32  2027.54  2053.63  2065.63  2068.39
                             2157.93  2161.20  2172.67  2179.94  2186.69
                             2190.97  2197.42  2201.57  2211.40  2214.98
                             2224.02  2467.71  2508.59  2604.00  4314.67
                             4326.02  4353.39  4365.71  4384.19  4386.21
                             4388.54  4394.32  4431.07  4440.80  4445.17
                             4486.03  4488.21  4490.40  4495.87  4519.60
                             4539.61  4552.66  5161.44

 Zero-point correction=                           0.289407 (Hartree/Particle)
 Thermal correction to Energy=                    0.306211
 Thermal correction to Enthalpy=                  0.307155
 Thermal correction to Gibbs Free Energy=         0.244321
 Sum of electronic and zero-point Energies=           -635.536409
 Sum of electronic and thermal Energies=              -635.519605
 Sum of electronic and thermal Enthalpies=            -635.518661
 Sum of electronic and thermal Free Energies=         -635.581495

                     E (Thermal)             CV                S
                      KCal/Mol        Cal/Mol-Kelvin    Cal/Mol-Kelvin
 Total                  192.150             59.804            132.245
 Electronic               0.000              0.000              0.000
 Translational            0.889              2.981             41.741
 Rotational               0.889              2.981             32.172
 Vibrational            190.373             53.842             58.332
 Vibration     1          0.593              1.984              5.915
 Vibration     2          0.596              1.976              4.690
 Vibration     3          0.597              1.972              4.343
 Vibration     4          0.599              1.964              3.962
 Vibration     5          0.601              1.959              3.758
 Vibration     6          0.605              1.945              3.351
 Vibration     7          0.609              1.934              3.117
 Vibration     8          0.615              1.913              2.794
 Vibration     9          0.620              1.898              2.620
 Vibration    10          0.627              1.874              2.390
 Vibration    11          0.638              1.840              2.131
 Vibration    12          0.645              1.818              1.999
 Vibration    13          0.648              1.807              1.942
 Vibration    14          0.655              1.787              1.837
 Vibration    15          0.666              1.752              1.687
 Vibration    16          0.677              1.719              1.562
 Vibration    17          0.726              1.579              1.176
 Vibration    18          0.736              1.551              1.114
 Vibration    19          0.754              1.501              1.016
 Vibration    20          0.778              1.439              0.912
 Vibration    21          0.822              1.328              0.752
 Vibration    22          0.838              1.290              0.704
 Vibration    23          0.861              1.236              0.643
 Vibration    24          0.928              1.093              0.502

 Optimization completed.
    -- Stationary point found.
 Normal termination of Gaussian 16 at Thu Dec 10 09:27:49 2020.

 ----------------------------------------------------------------------
 # B3LYP/6-311++G(d,p) empiricaldispersion=gd3bj scf=xqc pop=npa geom=c
 heck
 ----------------------------------------------------------------------

 ---------------------------------------
 CID_143269538_JID_4097_Energie_neutraal
 ---------------------------------------
 Structure from the checkpoint file:  "JID_4097.chk"
 Charge =  0 Multiplicity = 1

 SCF Done:  E(RB3LYP) =  -636.013933571     A.U. after   17 cycles
 Normal termination of Gaussian 16 at Thu Dec 10 09:32:29 2020.

 ----------------------------------------------------------------------
 # B3LYP/6-311++G(d,p) empiricaldispersion=gd3bj scf=xqc pop=npa geom=c
 heck
 ----------------------------------------------------------------------

 -------------------------------------
 CID_143269538_JID_4097_Energie_kation
 -------------------------------------
 Structure from the checkpoint file:  "JID_4097.chk"
 Charge =  1 Multiplicity = 2

 SCF Done:  E(UB3LYP) =  -635.711644951     A.U. after   24 cycles
 Normal termination of Gaussian 16 at Thu Dec 10 09:43:49 2020.
 Gaussian 16:  ES64L-G16RevA.03 25-Dec-2016

 ----------------------------------------------------------------------
 # B3LYP/6-311++G(d,p) empiricaldispersion=gd3bj scf=xqc pop=npa geom=c
 heck
 ----------------------------------------------------------------------

 ------------------------------------
 CID_143269538_JID_4097_Energie_anion
 ------------------------------------
 Structure from the checkpoint file:  "JID_4097.chk"
 Charge = -1 Multiplicity = 2

                         Standard orientation:
 ---------------------------------------------------------------------
 Center     Atomic      Atomic             Coordinates (Angstroms)
 Number     Number       Type             X           Y           Z
 ---------------------------------------------------------------------
      1          6           0       -4.070037    0.449917   -0.754370
      2          6           0       -2.662780    0.378047   -1.368189
      3          6           0       -1.628163    1.058754   -0.518874
      4          6           0       -0.577360    0.452292    0.056660
      5          6           0       -0.356421   -1.029812    0.082033
      6          6           0        0.665282   -1.608121   -0.565953
      7          6           0        1.657758   -0.928642   -1.470449
      8          8           0        3.003528   -1.198029   -1.102210
      9          6           0        3.396771   -0.548379    0.092243
     10          6           0       -1.311411   -1.826564    0.945828
     11          6           0       -1.249626   -1.415925    2.424981
     12          7           0        0.425419    1.193772    0.730617
     13          6           0        0.981985    2.373982    0.307351
     14          8           0        1.914532    2.923708    0.864408
     15          1           0       -4.101174   -0.061023    0.214372
     16          1           0       -4.810895   -0.017075   -1.412582
     17          1           0       -4.374461    1.489853   -0.588634
     18          1           0       -2.379090   -0.665172   -1.543851
     19          1           0       -2.684730    0.858352   -2.357293
     20          1           0       -1.751282    2.131005   -0.374531
     21          1           0        0.809510   -2.683684   -0.462285
     22          1           0        1.556281   -1.329643   -2.486156
     23          1           0        1.474692    0.153768   -1.520692
     24          1           0        3.302116    0.544851    0.014808
     25          1           0        2.808916   -0.889585    0.958745
     26          1           0        4.445802   -0.804861    0.258632
     27          1           0       -2.337681   -1.682244    0.584330
     28          1           0       -1.086016   -2.894143    0.843247
     29          1           0       -1.492881   -0.354813    2.548115
     30          1           0       -1.962787   -1.994590    3.021378
     31          1           0       -0.247956   -1.587222    2.836084
     32          1           0        0.933886    0.729027    1.474157
     33          1           0        0.499347    2.762063   -0.607312
 ---------------------------------------------------------------------

 SCF Done:  E(UB3LYP) =  -636.003872472     A.U. after   33 cycles
 SCF Done:  E(UB3LYP) =  -636.003872472     a.u. after    1 cycles

 The electronic state is 2-A.
 Alpha  occ. eigenvalues --  -19.03259 -18.99647 -14.24657 -10.16811 -10.12387
 Alpha  occ. eigenvalues --  -10.11601 -10.10077 -10.08424 -10.07732 -10.07030
 Alpha  occ. eigenvalues --  -10.06861 -10.06451 -10.05553 -10.05018  -0.94377
 Alpha  occ. eigenvalues --   -0.94277  -0.83814  -0.72646  -0.68475  -0.66295
 Alpha  occ. eigenvalues --   -0.62917  -0.60840  -0.55955  -0.54922  -0.51695
 Alpha  occ. eigenvalues --   -0.50886  -0.47265  -0.44360  -0.40441  -0.39838
 Alpha  occ. eigenvalues --   -0.38806  -0.38579  -0.36193  -0.35197  -0.34747
 Alpha  occ. eigenvalues --   -0.33392  -0.32988  -0.32149  -0.31064  -0.30525
 Alpha  occ. eigenvalues --   -0.29141  -0.28163  -0.27925  -0.27220  -0.25486
 Alpha  occ. eigenvalues --   -0.25408  -0.24160  -0.23172  -0.22496  -0.20801
 Alpha  occ. eigenvalues --   -0.17497  -0.16818  -0.16260  -0.12023   0.04525
 Alpha virt. eigenvalues --    0.06461   0.06920   0.07542   0.08258   0.08577
 Alpha virt. eigenvalues --    0.09123   0.09373   0.09414   0.10038   0.10945
 Alpha virt. eigenvalues --    0.11554   0.11911   0.12265   0.12540   0.13326

  Beta  occ. eigenvalues --  -19.03253 -18.99574 -14.24680 -10.16736 -10.12388
  Beta  occ. eigenvalues --  -10.11584 -10.09951 -10.08377 -10.07715 -10.06980
  Beta  occ. eigenvalues --  -10.06846 -10.06448 -10.05449 -10.04952  -0.94324
  Beta  occ. eigenvalues --   -0.94188  -0.83711  -0.72515  -0.68339  -0.66243
  Beta  occ. eigenvalues --   -0.62795  -0.60750  -0.55837  -0.54772  -0.51587
  Beta  occ. eigenvalues --   -0.50827  -0.47107  -0.44248  -0.40353  -0.39761
  Beta  occ. eigenvalues --   -0.38745  -0.38537  -0.36128  -0.35114  -0.34704
  Beta  occ. eigenvalues --   -0.33301  -0.32878  -0.32040  -0.30841  -0.30456
  Beta  occ. eigenvalues --   -0.29086  -0.28094  -0.27851  -0.27081  -0.25389
  Beta  occ. eigenvalues --   -0.25362  -0.24071  -0.23105  -0.22468  -0.20455
  Beta  occ. eigenvalues --   -0.17373  -0.16757  -0.16069  -0.11555
  Beta virt. eigenvalues --    0.06565   0.07287   0.07621   0.07925   0.08527
  Beta virt. eigenvalues --    0.08890   0.09565   0.09689   0.09889   0.10395
  Beta virt. eigenvalues --    0.11081   0.11829   0.12178   0.12643   0.12731

 Mulliken charges and spin densities:
               1          2
     1  C    1.979098  -2.588829
     2  C   -2.179811   1.736619
     3  C   -0.220395   0.251650
     4  C   -0.371672  -0.762659
     5  C    1.412060   0.116924
     6  C    0.378264  -0.490640
     7  C   -0.043886  -0.537055
     8  O   -0.116336   0.007617
     9  C   -0.124650  -0.243085
    10  C   -1.039285   0.604768
    11  C    0.445608  -1.055258
    12  N    0.024166   0.044924
    13  C    0.073938  -0.016820
    14  O   -0.339943   0.026915
    15  H   -0.147004   0.269484
    16  H   -0.684810   0.834489
    17  H   -0.380839   0.522311
    18  H   -0.005097   0.159401
    19  H   -0.179003   0.346320
    20  H   -0.187462   0.378019
    21  H   -0.056038   0.215576
    22  H    0.005350   0.186720
    23  H    0.261978  -0.068694
    24  H    0.129525   0.022973
    25  H   -0.016890   0.134729
    26  H    0.024317   0.127241
    27  H    0.240570  -0.091588
    28  H   -0.088514   0.224942
    29  H   -0.011645   0.199602
    30  H   -0.163288   0.301878
    31  H    0.014885   0.116489
    32  H    0.318007  -0.023417
    33  H    0.048802   0.048453
 Sum of Mulliken charges =  -1.00000   1.00000

 Dipole moment (field-independent basis, Debye):
    X=              5.5046    Y=             -2.6121    Z=              0.5847  Tot=              6.1209
 Quadrupole moment (field-independent basis, Debye-Ang):
   XX=           -172.3233   YY=           -129.4178   ZZ=           -121.2427
   XY=              3.5199   XZ=             -8.9592   YZ=             -3.2875

 Summary of Natural Population Analysis:

                                       Natural Population
                Natural  -----------------------------------------------
    Atom  No    Charge         Core      Valence    Rydberg      Total
 -----------------------------------------------------------------------
      C    1   -0.27965      0.99966     2.27488    0.00511     3.27965
      C    2   -0.20735      0.99963     2.19813    0.00959     3.20735
      C    3   -0.08434      0.99947     2.07466    0.01022     3.08434
      C    4    0.07418      0.99939     1.91187    0.01456     2.92582
      C    5   -0.00732      0.99944     1.99563    0.01226     3.00732
      C    6   -0.09678      0.99944     2.08767    0.00967     3.09678
      C    7   -0.02566      0.99956     2.01289    0.01320     3.02566
      O    8   -0.29766      0.99989     3.28823    0.00954     4.29766
      C    9   -0.10122      0.99961     2.09304    0.00857     3.10122
      C   10   -0.19767      0.99959     2.18931    0.00877     3.19767
      C   11   -0.28246      0.99966     2.27867    0.00412     3.28246
      N   12   -0.31627      0.99967     2.80661    0.00999     3.81627
      C   13    0.28005      0.99973     1.69831    0.02191     2.71995
      O   14   -0.31053      0.99988     3.30441    0.00624     4.31053
      H   15    0.09499      0.00000     0.40355    0.00145     0.40501
      H   16    0.10000      0.00000     0.39718    0.00282     0.40000
      H   17    0.09768      0.00000     0.40070    0.00162     0.40232
      H   18    0.09801      0.00000     0.40059    0.00140     0.40199
      H   19    0.10136      0.00000     0.39713    0.00151     0.39864
      H   20    0.09601      0.00000     0.40267    0.00132     0.40399
      H   21    0.09385      0.00000     0.40470    0.00145     0.40615
      H   22    0.09307      0.00000     0.40571    0.00122     0.40693
      H   23    0.08453      0.00000     0.41397    0.00150     0.41547
      H   24    0.08512      0.00000     0.41356    0.00133     0.41488
      H   25    0.07862      0.00000     0.41956    0.00182     0.42138
      H   26    0.08655      0.00000     0.41243    0.00102     0.41345
      H   27    0.10355      0.00000     0.39468    0.00177     0.39645
      H   28    0.09544      0.00000     0.40340    0.00116     0.40456
      H   29    0.10233      0.00000     0.39651    0.00116     0.39767
      H   30    0.09813      0.00000     0.40098    0.00089     0.40187
      H   31    0.09408      0.00000     0.40468    0.00124     0.40592
      H   32    0.19452      0.00000     0.30254    0.00294     0.30548
      H   33    0.05482      0.00000     0.44343    0.00174     0.44518
 =======================================================================
   * Total *    0.00000     13.99462    39.83226    0.17312    54.00000

 Normal termination of Gaussian 16 at Thu Dec 10 09:58:33 2020.
