 Gaussian 16, Revision A.03,

 -----------------------------------------------------------
 # opt freq B3LYP/6-31G(d) empiricaldispersion=gd3bj scf=xqc
 -----------------------------------------------------------

 -------------------------------
 CID_136935018_JID_1696_neutraal
 -------------------------------
 Symbolic Z-matrix:
 Charge =  0 Multiplicity = 1

 SCF Done:  E(RB3LYP) =  -542.537100344     A.U. after   15 cycles
 SCF Done:  E(RB3LYP) =  -542.539984078     A.U. after   12 cycles
 SCF Done:  E(RB3LYP) =  -542.540271672     A.U. after   11 cycles
 SCF Done:  E(RB3LYP) =  -542.540320975     A.U. after   11 cycles
 SCF Done:  E(RB3LYP) =  -542.540326992     A.U. after    9 cycles
 SCF Done:  E(RB3LYP) =  -542.540330266     A.U. after    8 cycles
 Optimization completed.
    -- Stationary point found.
 Normal termination of Gaussian 16 at Tue Dec  8 20:46:40 2020.

 --------------------------------------------------------------------
 #N Geom=AllCheck Guess=TCheck SCRF=Check GenChk RB3LYP/6-31G(d) Freq
 --------------------------------------------------------------------

 Structure from the checkpoint file:  "JID_1696.chk"
 -------------------------------
 CID_136935018_JID_1696_neutraal
 -------------------------------
 Charge =  0 Multiplicity = 1

 SCF Done:  E(RB3LYP) =  -542.540330266     A.U. after    1 cycles

  Exact polarizability: 108.577   0.474 104.739  -0.435  -0.478  33.476
 Approx polarizability: 186.389 -12.272 189.585   0.875  -1.349  52.847

                      1                      2                      3
                      A                      A                      A
 Frequencies --    124.1063               177.3847               202.2554
 Red. masses --      6.9681                 7.0140                 4.8777
 Frc consts  --      0.0632                 0.1300                 0.1176
 IR Inten    --      0.8663                 6.4900                 5.1980

                      4                      5                      6
                      A                      A                      A
 Frequencies --    249.0641               268.0620               335.6290
 Red. masses --      1.4646                 2.8261                 6.7934
 Frc consts  --      0.0535                 0.1197                 0.4509
 IR Inten    --     34.8642                 4.5920                 6.0194

                      7                      8                      9
                      A                      A                      A
 Frequencies --    355.2666               478.3381               528.2741
 Red. masses --      3.6341                 8.9913                 2.8774
 Frc consts  --      0.2702                 1.2121                 0.4731
 IR Inten    --      6.1372                 2.3177                13.7236

                     10                     11                     12
                      A                      A                      A
 Frequencies --    559.9394               571.4763               631.7688
 Red. masses --      8.2847                 1.1893                 3.6000
 Frc consts  --      1.5304                 0.2288                 0.8466
 IR Inten    --      7.9299               113.4290                22.0463

                     13                     14                     15
                      A                      A                      A
 Frequencies --    654.6239               663.5875               667.9776
 Red. masses --      1.6843                 6.0959                 4.3112
 Frc consts  --      0.4252                 1.5815                 1.1334
 IR Inten    --    284.7217                 3.3673                27.6950

                     16                     17                     18
                      A                      A                      A
 Frequencies --    722.2641               739.1697               782.7581
 Red. masses --      7.6157                 7.0468                 1.5309
 Frc consts  --      2.3407                 2.2685                 0.5527
 IR Inten    --     15.5871                14.2479                57.3418

                     19                     20                     21
                      A                      A                      A
 Frequencies --    816.1933               825.6033               977.0084
 Red. masses --      5.2674                 1.4058                 7.2041
 Frc consts  --      2.0675                 0.5646                 4.0516
 IR Inten    --     10.5923                 9.4655                 6.9103

                     22                     23                     24
                      A                      A                      A
 Frequencies --   1030.9510              1076.3419              1124.2728
 Red. masses --      7.8230                 1.9640                 3.4830
 Frc consts  --      4.8989                 1.3406                 2.5938
 IR Inten    --      9.2501                14.6603                25.6948

                     25                     26                     27
                      A                      A                      A
 Frequencies --   1196.8811              1209.3851              1278.5685
 Red. masses --      1.5058                 1.5875                 4.4068
 Frc consts  --      1.2709                 1.3680                 4.2444
 IR Inten    --     32.9663                34.5954                46.3986

                     28                     29                     30
                      A                      A                      A
 Frequencies --   1339.4070              1364.2295              1405.3516
 Red. masses --      6.5554                 3.2094                 3.4679
 Frc consts  --      6.9290                 3.5192                 4.0354
 IR Inten    --     26.3526                12.3089                58.5352

                     31                     32                     33
                      A                      A                      A
 Frequencies --   1436.1235              1491.7059              1521.9070
 Red. masses --      2.8775                 2.6031                 4.3555
 Frc consts  --      3.4966                 3.4128                 5.9438
 IR Inten    --     14.3160                 8.0211                36.9674

                     34                     35                     36
                      A                      A                      A
 Frequencies --   1609.3548              1682.5362              1709.4350
 Red. masses --      7.2581                 1.2013                 5.1301
 Frc consts  --     11.0758                 2.0037                 8.8325
 IR Inten    --     53.6561                54.7764               114.3744

                     37                     38                     39
                      A                      A                      A
 Frequencies --   1840.4696              3249.9299              3313.7731
 Red. masses --      9.7083                 1.0929                 1.0989
 Frc consts  --     19.3754                 6.8011                 7.1095
 IR Inten    --    589.3301                 6.7515                 3.5258

                     40                     41                     42
                      A                      A                      A
 Frequencies --   3544.9312              3638.3684              3649.6342
 Red. masses --      1.0481                 1.0778                 1.0986
 Frc consts  --      7.7603                 8.4064                 8.6219
 IR Inten    --     30.8328                87.1616                23.6799

 - Thermochemistry -
 -------------------
 Temperature   298.150 Kelvin.  Pressure   1.00000 Atm.
 Atom     1 has atomic number  6 and mass  12.00000

 Molecular mass:   151.04941 amu.
 Principal axes and moments of inertia in atomic units:
                           1         2         3
     Eigenvalues --  1124.622261304.501812427.14622
           X            0.98957   0.14398  -0.00496
           Y           -0.14399   0.98958  -0.00124
           Z            0.00473   0.00194   0.99999
 This molecule is an asymmetric top.
 Rotational symmetry number  1.
 Warning -- assumption of classical behavior for rotation
           may cause significant error
 Rotational temperatures (Kelvin)      0.07702     0.06640     0.03569
 Rotational constants (GHZ):           1.60475     1.38347     0.74357
 Zero-point vibrational energy     305312.8 (Joules/Mol)
                                   72.97150 (Kcal/Mol)
 Warning -- explicit consideration of  11 degrees of freedom as
           vibrations may cause significant error
 Vibrational temperatures:    178.56   255.22   291.00   358.35   385.68
          (Kelvin)            482.90   511.15   688.22   760.07   805.63
                              822.23   908.97   941.86   954.75   961.07
                             1039.18  1063.50  1126.21  1174.32  1187.86
                             1405.70  1483.31  1548.62  1617.58  1722.04
                             1740.04  1839.57  1927.11  1962.82  2021.99
                             2066.26  2146.23  2189.68  2315.50  2420.79
                             2459.50  2648.03  4675.92  4767.78  5100.37
                             5234.80  5251.01

 Zero-point correction=                           0.116287 (Hartree/Particle)
 Thermal correction to Energy=                    0.124629
 Thermal correction to Enthalpy=                  0.125574
 Thermal correction to Gibbs Free Energy=         0.083140
 Sum of electronic and zero-point Energies=           -542.424043
 Sum of electronic and thermal Energies=              -542.415701
 Sum of electronic and thermal Enthalpies=            -542.414757
 Sum of electronic and thermal Free Energies=         -542.457191

                     E (Thermal)             CV                S
                      KCal/Mol        Cal/Mol-Kelvin    Cal/Mol-Kelvin
 Total                   78.206             32.705             89.310
 Electronic               0.000              0.000              0.000
 Translational            0.889              2.981             40.947
 Rotational               0.889              2.981             29.655
 Vibrational             76.429             26.743             18.707
 Vibration     1          0.610              1.929              3.035
 Vibration     2          0.628              1.870              2.356
 Vibration     3          0.639              1.837              2.112
 Vibration     4          0.662              1.764              1.737
 Vibration     5          0.673              1.732              1.609
 Vibration     6          0.717              1.604              1.233
 Vibration     7          0.731              1.564              1.143
 Vibration     8          0.835              1.298              0.715
 Vibration     9          0.883              1.187              0.591
 Vibration    10          0.916              1.118              0.524
 Vibration    11          0.928              1.093              0.501

                           ! Non-Optimized Parameters !
 Normal termination of Gaussian 16 at Tue Dec  8 20:49:36 2020.

 ----------------------------------------------------------------------
 # B3LYP/6-311++G(d,p) empiricaldispersion=gd3bj scf=xqc pop=npa geom=c
 heck
 ----------------------------------------------------------------------

 ---------------------------------------
 CID_136935018_JID_1696_Energie_neutraal
 ---------------------------------------
 Structure from the checkpoint file:  "JID_1696.chk"
 Charge =  0 Multiplicity = 1

 SCF Done:  E(RB3LYP) =  -542.698541861     A.U. after   15 cycles
 Normal termination of Gaussian 16 at Tue Dec  8 20:51:03 2020.

 ----------------------------------------------------------------------
 # B3LYP/6-311++G(d,p) empiricaldispersion=gd3bj scf=xqc pop=npa geom=c
 heck
 ----------------------------------------------------------------------

 -------------------------------------
 CID_136935018_JID_1696_Energie_kation
 -------------------------------------
 Structure from the checkpoint file:  "JID_1696.chk"
 Charge =  1 Multiplicity = 2

 SCF Done:  E(UB3LYP) =  -542.400640399     A.U. after   19 cycles
 Normal termination of Gaussian 16 at Tue Dec  8 20:55:27 2020.
 Gaussian 16:  ES64L-G16RevA.03 25-Dec-2016

 ----------------------------------------------------------------------
 # B3LYP/6-311++G(d,p) empiricaldispersion=gd3bj scf=xqc pop=npa geom=c
 heck
 ----------------------------------------------------------------------

 ------------------------------------
 CID_136935018_JID_1696_Energie_anion
 ------------------------------------
 Structure from the checkpoint file:  "JID_1696.chk"
 Charge = -1 Multiplicity = 2

                         Standard orientation:
 ---------------------------------------------------------------------
 Center     Atomic      Atomic             Coordinates (Angstroms)
 Number     Number       Type             X           Y           Z
 ---------------------------------------------------------------------
      1          6           0       -0.873574   -1.785393    0.005738
      2          6           0       -1.482300   -0.571305   -0.011993
      3          6           0       -0.607395    0.571218   -0.012195
      4          7           0       -0.891388    1.854239    0.006926
      5          7           0        0.315491    2.538283    0.015482
      6          6           0        1.283873    1.657581    0.002402
      7          7           0        0.764945    0.381966   -0.014714
      8          6           0        1.428383   -0.861838   -0.003114
      9          8           0        2.639788   -0.975838   -0.000302
     10          7           0        0.525090   -1.895128    0.012438
     11          7           0       -2.851359   -0.332194   -0.086468
     12          1           0       -1.410853   -2.724586    0.005486
     13          1           0        2.344375    1.855167    0.005677
     14          1           0        0.946919   -2.813469    0.024023
     15          1           0       -3.094933    0.616847    0.175464
     16          1           0       -3.437193   -1.019009    0.371088
 ---------------------------------------------------------------------

 SCF Done:  E(UB3LYP) =  -542.696823714     A.U. after   29 cycles

 The electronic state is 2-A.
 Alpha  occ. eigenvalues --  -19.00054 -14.28355 -14.26264 -14.22934 -14.21420
 Alpha  occ. eigenvalues --  -14.20971 -10.21631 -10.13177 -10.13086 -10.11174
 Alpha  occ. eigenvalues --  -10.09837  -0.98378  -0.94560  -0.86331  -0.81574
 Alpha  occ. eigenvalues --   -0.80745  -0.71518  -0.65183  -0.58798  -0.55449
 Alpha  occ. eigenvalues --   -0.51404  -0.46922  -0.44946  -0.40974  -0.39370
 Alpha  occ. eigenvalues --   -0.39004  -0.37126  -0.35941  -0.33137  -0.31910
 Alpha  occ. eigenvalues --   -0.30154  -0.27306  -0.22382  -0.21454  -0.20356
 Alpha  occ. eigenvalues --   -0.18824  -0.16587  -0.16312  -0.09381   0.04397
 Alpha virt. eigenvalues --    0.07165   0.07753   0.08814   0.09388   0.10913
 Alpha virt. eigenvalues --    0.12752   0.13245   0.13351   0.14741   0.15181
 Alpha virt. eigenvalues --    0.16959   0.17441   0.17732   0.18779   0.18949

  Beta  occ. eigenvalues --  -19.00058 -14.28281 -14.26171 -14.22967 -14.21341
  Beta  occ. eigenvalues --  -14.20930 -10.21638 -10.13080 -10.13036 -10.11166
  Beta  occ. eigenvalues --  -10.09644  -0.98301  -0.94514  -0.86192  -0.81462
  Beta  occ. eigenvalues --   -0.80625  -0.71387  -0.64970  -0.58726  -0.55180
  Beta  occ. eigenvalues --   -0.51312  -0.46842  -0.44797  -0.40850  -0.39181
  Beta  occ. eigenvalues --   -0.38780  -0.37028  -0.35827  -0.33092  -0.31692
  Beta  occ. eigenvalues --   -0.29993  -0.26948  -0.22338  -0.21183  -0.20123
  Beta  occ. eigenvalues --   -0.18808  -0.16260  -0.16202  -0.08855
  Beta virt. eigenvalues --    0.08137   0.08241   0.08834   0.09300   0.09492
  Beta virt. eigenvalues --    0.11998   0.13065   0.13318   0.13663   0.14889
  Beta virt. eigenvalues --    0.15448   0.17222   0.17685   0.17923   0.18783

 Mulliken charges and spin densities:
               1          2
     1  C   -0.908470   0.993900
     2  C    0.053600  -0.471927
     3  C    2.336514  -2.259786
     4  N   -0.118151   0.059566
     5  N   -0.172642  -0.049119
     6  C    0.398605  -0.156849
     7  N   -0.233542   0.000206
     8  C    0.639711  -0.318347
     9  O   -0.407391   0.022101
    10  N   -0.454794   0.143460
    11  N   -0.353572  -0.016585
    12  H   -1.504264   1.690162
    13  H    0.202194  -0.007918
    14  H   -0.366146   0.733593
    15  H    0.222569   0.037363
    16  H   -0.334222   0.600180
 Sum of Mulliken charges =  -1.00000   1.00000

 Dipole moment (field-independent basis, Debye):
    X=              3.5341    Y=              5.0987    Z=             -0.9214  Tot=              6.2718
 Quadrupole moment (field-independent basis, Debye-Ang):
   XX=           -104.3940   YY=           -122.7016   ZZ=            -78.1870
   XY=             -6.3523   XZ=              2.2209   YZ=              4.4265

 Summary of Natural Population Analysis:

                                       Natural Population
                Natural  -----------------------------------------------
    Atom  No    Charge         Core      Valence    Rydberg      Total
 -----------------------------------------------------------------------
      C    1    0.01778      0.99950     1.96915    0.01357     2.98222
      C    2    0.03913      0.99946     1.94866    0.01276     2.96087
      C    3    0.18757      0.99958     1.79528    0.01757     2.81243
      N    4   -0.16538      0.99968     2.65284    0.01286     3.66538
      N    5   -0.15817      0.99973     2.64512    0.01332     3.65817
      C    6    0.10027      0.99967     1.88340    0.01667     2.89973
      N    7   -0.22010      0.99958     2.71259    0.00794     3.72010
      C    8    0.40271      0.99970     1.57488    0.02271     2.59729
      O    9   -0.32767      0.99987     3.32222    0.00558     4.32767
      N   10   -0.28282      0.99968     2.77374    0.00940     3.78282
      N   11   -0.39801      0.99972     2.88739    0.01091     3.89801
      H   12    0.10905      0.00000     0.37830    0.01265     0.39095
      H   13    0.10307      0.00000     0.39572    0.00121     0.39693
      H   14    0.20936      0.00000     0.28457    0.00606     0.29064
      H   15    0.19131      0.00000     0.30624    0.00245     0.30869
      H   16    0.19190      0.00000     0.30299    0.00511     0.30810
 =======================================================================
   * Total *   -0.00000     10.99615    27.83309    0.17076    39.00000

 Normal termination of Gaussian 16 at Tue Dec  8 21:00:35 2020.
