 Gaussian 16, Revision A.03,

 -----------------------------------------------------------
 # opt freq B3LYP/6-31G(d) empiricaldispersion=gd3bj scf=xqc
 -----------------------------------------------------------

 ------------------------------
 CID_80716414_JID_4284_neutraal
 ------------------------------
 Symbolic Z-matrix:
 Charge =  0 Multiplicity = 1

 SCF Done:  E(RB3LYP) =  -1049.01588533     A.U. after   14 cycles
 SCF Done:  E(RB3LYP) =  -1049.02213222     A.U. after   12 cycles
 SCF Done:  E(RB3LYP) =  -1049.02336470     A.U. after   11 cycles
 SCF Done:  E(RB3LYP) =  -1049.02442268     A.U. after   12 cycles
 SCF Done:  E(RB3LYP) =  -1049.02478955     A.U. after   12 cycles
 SCF Done:  E(RB3LYP) =  -1049.02624507     A.U. after   12 cycles
 SCF Done:  E(RB3LYP) =  -1049.02776683     A.U. after   12 cycles
 SCF Done:  E(RB3LYP) =  -1049.03065911     A.U. after   14 cycles
 SCF Done:  E(RB3LYP) =  -1049.03166531     A.U. after   12 cycles
 SCF Done:  E(RB3LYP) =  -1049.03268378     A.U. after   12 cycles
 SCF Done:  E(RB3LYP) =  -1049.03421874     A.U. after   10 cycles
 SCF Done:  E(RB3LYP) =  -1049.03422029     A.U. after    8 cycles
 SCF Done:  E(RB3LYP) =  -1049.03422191     A.U. after    9 cycles
 SCF Done:  E(RB3LYP) =  -1049.03422205     A.U. after    8 cycles
 SCF Done:  E(RB3LYP) =  -1049.03422209     A.U. after    7 cycles
 SCF Done:  E(RB3LYP) =  -1049.03422209     A.U. after    6 cycles
 Optimization completed.
    -- Stationary point found.
 Normal termination of Gaussian 16 at Thu Dec 10 09:33:40 2020.

 --------------------------------------------------------------------
 #N Geom=AllCheck Guess=TCheck SCRF=Check GenChk RB3LYP/6-31G(d) Freq
 --------------------------------------------------------------------

 Structure from the checkpoint file:  "JID_4284.chk"
 ------------------------------
 CID_80716414_JID_4284_neutraal
 ------------------------------
 Charge =  0 Multiplicity = 1

 SCF Done:  E(RB3LYP) =  -1049.03422209     A.U. after    1 cycles

  Exact polarizability: 139.571   1.635 113.636  -1.857   1.036 109.070
 Approx polarizability: 169.924  -0.207 171.599  -2.376  -0.020 172.048

                      1                      2                      3
                      A                      A                      A
 Frequencies --     30.5183                48.2443                51.2708
 Red. masses --      3.6635                 3.6588                 2.7440
 Frc consts  --      0.0020                 0.0050                 0.0042
 IR Inten    --      1.9405                 0.6305                 1.4661

                      4                      5                      6
                      A                      A                      A
 Frequencies --     70.4685                97.3221               106.2004
 Red. masses --      2.3179                 3.2048                 4.9142
 Frc consts  --      0.0068                 0.0179                 0.0327
 IR Inten    --      1.0506                 3.3978                 2.5463

                      7                      8                      9
                      A                      A                      A
 Frequencies --    147.5503               177.1498               191.3136
 Red. masses --      2.4739                 3.5733                 5.4608
 Frc consts  --      0.0317                 0.0661                 0.1178
 IR Inten    --      0.3377                 1.6356                 4.1046

                     10                     11                     12
                      A                      A                      A
 Frequencies --    224.5552               244.6247               275.9290
 Red. masses --      2.4245                 1.8468                 1.9430
 Frc consts  --      0.0720                 0.0651                 0.0872
 IR Inten    --     14.4053                 5.8867                 9.5788

                     13                     14                     15
                      A                      A                      A
 Frequencies --    296.8617               305.0596               315.7815
 Red. masses --      2.5085                 2.3079                 3.1698
 Frc consts  --      0.1302                 0.1265                 0.1862
 IR Inten    --      3.3428                 4.3217                12.8815

                     16                     17                     18
                      A                      A                      A
 Frequencies --    328.7579               373.6994               413.0109
 Red. masses --      2.1499                 3.0996                 3.0982
 Frc consts  --      0.1369                 0.2550                 0.3114
 IR Inten    --     17.7064                 0.8779                 5.6738

                     19                     20                     21
                      A                      A                      A
 Frequencies --    488.8948               510.8181               540.6026
 Red. masses --      3.5998                 8.8885                 3.4979
 Frc consts  --      0.5069                 1.3665                 0.6023
 IR Inten    --     12.2470                25.8643                15.3749

                     22                     23                     24
                      A                      A                      A
 Frequencies --    619.7270               685.2356               710.1909
 Red. masses --      3.2055                 5.5488                 5.0422
 Frc consts  --      0.7254                 1.5351                 1.4984
 IR Inten    --     20.3026                27.7701                14.9444

                     25                     26                     27
                      A                      A                      A
 Frequencies --    751.2123               783.9195               805.8431
 Red. masses --      2.3505                 2.6593                 1.7345
 Frc consts  --      0.7815                 0.9629                 0.6636
 IR Inten    --     41.5609                22.9529                 4.0998

                     28                     29                     30
                      A                      A                      A
 Frequencies --    824.2957               845.5572               890.0476
 Red. masses --      1.4712                 1.7187                 1.4611
 Frc consts  --      0.5890                 0.7240                 0.6820
 IR Inten    --     11.2520                18.8735               136.7111

                     31                     32                     33
                      A                      A                      A
 Frequencies --    904.6015               921.2845               944.9810
 Red. masses --      2.5634                 2.1753                 3.9288
 Frc consts  --      1.2359                 1.0878                 2.0671
 IR Inten    --     11.3678                10.5877                21.4245

                     34                     35                     36
                      A                      A                      A
 Frequencies --    953.4988               964.4167              1001.2942
 Red. masses --      1.8098                 1.6595                 1.9570
 Frc consts  --      0.9694                 0.9094                 1.1560
 IR Inten    --     21.2157                16.6865                 7.8702

                     37                     38                     39
                      A                      A                      A
 Frequencies --   1009.0893              1018.8326              1051.8923
 Red. masses --      2.3307                 2.1157                 1.6956
 Frc consts  --      1.3983                 1.2939                 1.1054
 IR Inten    --     37.6977                76.0189                19.1020

                     40                     41                     42
                      A                      A                      A
 Frequencies --   1078.4995              1089.3274              1101.1487
 Red. masses --      2.0645                 2.6730                 1.8238
 Frc consts  --      1.4148                 1.8688                 1.3029
 IR Inten    --      2.6566                81.0188                 8.4639

                     43                     44                     45
                      A                      A                      A
 Frequencies --   1115.3842              1117.4273              1156.3801
 Red. masses --      3.2751                 2.6395                 1.9750
 Frc consts  --      2.4006                 1.9418                 1.5560
 IR Inten    --     55.5336                89.6805                 2.1417

                     46                     47                     48
                      A                      A                      A
 Frequencies --   1165.6613              1234.2450              1236.3624
 Red. masses --      2.0014                 1.2449                 1.4658
 Frc consts  --      1.6022                 1.1173                 1.3201
 IR Inten    --     25.4524                 9.1397                 3.7576

                     49                     50                     51
                      A                      A                      A
 Frequencies --   1247.2709              1268.8024              1274.9815
 Red. masses --      1.3406                 1.5971                 1.7480
 Frc consts  --      1.2287                 1.5149                 1.6741
 IR Inten    --     26.9246                23.4535                37.7867

                     52                     53                     54
                      A                      A                      A
 Frequencies --   1280.8573              1294.7794              1299.9241
 Red. masses --      1.6661                 1.5175                 1.4134
 Frc consts  --      1.6105                 1.4988                 1.4072
 IR Inten    --     63.0831                42.2745                24.3266

                     55                     56                     57
                      A                      A                      A
 Frequencies --   1327.8468              1352.6401              1361.0831
 Red. masses --      1.4057                 1.2226                 1.3072
 Frc consts  --      1.4603                 1.3179                 1.4268
 IR Inten    --      8.4390                 1.1695                10.4430

                     58                     59                     60
                      A                      A                      A
 Frequencies --   1368.9979              1375.5567              1397.1696
 Red. masses --      1.2473                 1.2904                 1.4826
 Frc consts  --      1.3773                 1.4386                 1.7052
 IR Inten    --      9.6286                 1.7636                 2.5323

                     61                     62                     63
                      A                      A                      A
 Frequencies --   1414.2226              1440.5062              1444.4662
 Red. masses --      1.3745                 1.3472                 1.2341
 Frc consts  --      1.6197                 1.6471                 1.5171
 IR Inten    --      3.9366                 8.1421                 5.5056

                     64                     65                     66
                      A                      A                      A
 Frequencies --   1485.9565              1517.5240              1522.3839
 Red. masses --      1.2460                 1.0873                 1.0545
 Frc consts  --      1.6210                 1.4753                 1.4399
 IR Inten    --    134.3960                 4.6220                 2.3282

                     67                     68                     69
                      A                      A                      A
 Frequencies --   1528.4360              1536.5595              1538.9263
 Red. masses --      1.0493                 1.0858                 1.0804
 Frc consts  --      1.4443                 1.5104                 1.5076
 IR Inten    --      7.5872                 5.5397                16.6618

                     70                     71                     72
                      A                      A                      A
 Frequencies --   1540.9822              1555.3770              1693.6298
 Red. masses --      1.0658                 1.1001                 1.0877
 Frc consts  --      1.4911                 1.5681                 1.8383
 IR Inten    --      3.8888                 2.5784                35.5027

                     73                     74                     75
                      A                      A                      A
 Frequencies --   2987.4768              3009.6875              3014.5819
 Red. masses --      1.0725                 1.0729                 1.0719
 Frc consts  --      5.6396                 5.7258                 5.7393
 IR Inten    --     73.7841                66.3359                86.9959

                     76                     77                     78
                      A                      A                      A
 Frequencies --   3048.1259              3065.9009              3081.5530
 Red. masses --      1.0368                 1.0831                 1.0618
 Frc consts  --      5.6758                 5.9983                 5.9409
 IR Inten    --     33.2766                 3.4004                 8.9898

                     79                     80                     81
                      A                      A                      A
 Frequencies --   3088.2636              3101.6533              3105.3459
 Red. masses --      1.0629                 1.1021                 1.0950
 Frc consts  --      5.9726                 6.2469                 6.2216
 IR Inten    --     22.8070                10.9034                27.3458

                     82                     83                     84
                      A                      A                      A
 Frequencies --   3123.2679              3128.5133              3134.6102
 Red. masses --      1.1006                 1.1039                 1.0899
 Frc consts  --      6.3257                 6.3657                 6.3099
 IR Inten    --     29.8977                29.4530                 6.0607

                     85                     86                     87
                      A                      A                      A
 Frequencies --   3134.6840              3142.4353              3166.2994
 Red. masses --      1.0900                 1.1030                 1.0938
 Frc consts  --      6.3105                 6.4175                 6.4609
 IR Inten    --      2.5950                31.1137                 4.9366

                     88                     89                     90
                      A                      A                      A
 Frequencies --   3320.7071              3492.1316              3578.7364
 Red. masses --      1.0765                 1.0503                 1.0931
 Frc consts  --      6.9939                 7.5467                 8.2483
 IR Inten    --    166.7193                 0.9741                 2.9846

 - Thermochemistry -
 -------------------
 Temperature   298.150 Kelvin.  Pressure   1.00000 Atm.
 Atom     1 has atomic number  6 and mass  12.00000

 Molecular mass:   222.10381 amu.
 Principal axes and moments of inertia in atomic units:
                           1         2         3
     Eigenvalues --  1890.461964516.910854860.72103
           X            0.99976   0.02177  -0.00367
           Y           -0.02171   0.99966   0.01445
           Z            0.00398  -0.01436   0.99989
 This molecule is an asymmetric top.
 Rotational symmetry number  1.
 Warning -- assumption of classical behavior for rotation
           may cause significant error
 Rotational temperatures (Kelvin)      0.04582     0.01918     0.01782
 Rotational constants (GHZ):           0.95466     0.39955     0.37129
 Zero-point vibrational energy     729792.9 (Joules/Mol)
                                  174.42469 (Kcal/Mol)
 Warning -- explicit consideration of  22 degrees of freedom as
           vibrations may cause significant error
 Vibrational temperatures:     43.91    69.41    73.77   101.39   140.02
          (Kelvin)            152.80   212.29   254.88   275.26   323.08
                              351.96   397.00   427.12   438.91   454.34
                              473.01   537.67   594.23   703.41   734.95
                              777.81   891.65   985.90  1021.81  1080.83
                             1127.89  1159.43  1185.98  1216.57  1280.58
                             1301.52  1325.52  1359.62  1371.87  1387.58
                             1440.64  1451.85  1465.87  1513.44  1551.72
                             1567.30  1584.31  1604.79  1607.73  1663.77
                             1677.13  1775.80  1778.85  1794.54  1825.52
                             1834.41  1842.87  1862.90  1870.30  1910.48
                             1946.15  1958.29  1969.68  1979.12  2010.22
                             2034.75  2072.57  2078.26  2137.96  2183.38
                             2190.37  2199.08  2210.77  2214.17  2217.13
                             2237.84  2436.76  4298.31  4330.27  4337.31
                             4385.57  4411.15  4433.67  4443.32  4462.59
                             4467.90  4493.69  4501.23  4510.00  4510.11
                             4521.26  4555.60  4777.76  5024.40  5149.00

 Zero-point correction=                           0.277963 (Hartree/Particle)
 Thermal correction to Energy=                    0.293359
 Thermal correction to Enthalpy=                  0.294303
 Thermal correction to Gibbs Free Energy=         0.234186
 Sum of electronic and zero-point Energies=          -1048.756259
 Sum of electronic and thermal Energies=             -1048.740863
 Sum of electronic and thermal Enthalpies=           -1048.739919
 Sum of electronic and thermal Free Energies=        -1048.800036

                     E (Thermal)             CV                S
                      KCal/Mol        Cal/Mol-Kelvin    Cal/Mol-Kelvin
 Total                  184.085             56.787            126.527
 Electronic               0.000              0.000              0.000
 Translational            0.889              2.981             42.097
 Rotational               0.889              2.981             32.096
 Vibrational            182.308             50.825             52.335
 Vibration     1          0.594              1.984              5.795
 Vibration     2          0.595              1.978              4.888
 Vibration     3          0.596              1.977              4.768
 Vibration     4          0.598              1.968              4.140
 Vibration     5          0.603              1.951              3.507
 Vibration     6          0.605              1.944              3.337
 Vibration     7          0.617              1.905              2.704
 Vibration     8          0.628              1.870              2.358
 Vibration     9          0.634              1.852              2.215
 Vibration    10          0.649              1.804              1.922
 Vibration    11          0.660              1.772              1.769
 Vibration    12          0.678              1.718              1.559
 Vibration    13          0.691              1.680              1.435
 Vibration    14          0.696              1.664              1.389
 Vibration    15          0.703              1.644              1.332
 Vibration    16          0.712              1.618              1.266
 Vibration    17          0.745              1.526              1.065
 Vibration    18          0.777              1.442              0.916
 Vibration    19          0.845              1.275              0.686
 Vibration    20          0.866              1.226              0.632
 Vibration    21          0.896              1.160              0.564
 Vibration    22          0.980              0.990              0.417

 Optimization completed.
    -- Stationary point found.
 Normal termination of Gaussian 16 at Thu Dec 10 09:43:46 2020.

 ----------------------------------------------------------------------
 # B3LYP/6-311++G(d,p) empiricaldispersion=gd3bj scf=xqc pop=npa geom=c
 heck
 ----------------------------------------------------------------------

 --------------------------------------
 CID_80716414_JID_4284_Energie_neutraal
 --------------------------------------
 Structure from the checkpoint file:  "JID_4284.chk"
 Charge =  0 Multiplicity = 1

 SCF Done:  E(RB3LYP) =  -1049.26063976     A.U. after   14 cycles
 Normal termination of Gaussian 16 at Thu Dec 10 09:48:33 2020.

 ----------------------------------------------------------------------
 # B3LYP/6-311++G(d,p) empiricaldispersion=gd3bj scf=xqc pop=npa geom=c
 heck
 ----------------------------------------------------------------------

 ------------------------------------
 CID_80716414_JID_4284_Energie_kation
 ------------------------------------
 Structure from the checkpoint file:  "JID_4284.chk"
 Charge =  1 Multiplicity = 2

 SCF Done:  E(UB3LYP) =  -1048.94238133     A.U. after   23 cycles
 Normal termination of Gaussian 16 at Thu Dec 10 09:59:33 2020.
 Gaussian 16:  ES64L-G16RevA.03 25-Dec-2016

 ----------------------------------------------------------------------
 # B3LYP/6-311++G(d,p) empiricaldispersion=gd3bj scf=xqc pop=npa geom=c
 heck
 ----------------------------------------------------------------------

 -----------------------------------
 CID_80716414_JID_4284_Energie_anion
 -----------------------------------
 Structure from the checkpoint file:  "JID_4284.chk"
 Charge = -1 Multiplicity = 2

                         Standard orientation:
 ---------------------------------------------------------------------
 Center     Atomic      Atomic             Coordinates (Angstroms)
 Number     Number       Type             X           Y           Z
 ---------------------------------------------------------------------
      1          6           0       -3.838417   -1.062722   -1.165360
      2          6           0       -2.449452   -0.417144   -1.131329
      3          6           0       -2.106948    0.171220    0.242240
      4          6           0       -2.030161   -0.831592    1.401505
      5          7           0       -1.018616   -1.870753    1.160368
      6         16           0       -0.574019    1.169326    0.169926
      7          8           0       -0.711240    2.208511   -0.860751
      8          8           0       -0.268808    1.588346    1.552849
      9          7           0        0.513484    0.023411   -0.419625
     10          6           0        1.880066    0.518234   -0.662249
     11          6           0        2.651226   -0.519695   -1.506188
     12          6           0        3.426659   -1.344917   -0.444810
     13          8           0        3.053313   -0.820484    0.831886
     14          6           0        2.724465    0.550342    0.619778
     15          1           0       -3.908904   -1.927917   -0.495722
     16          1           0       -4.072768   -1.410892   -2.176592
     17          1           0       -4.616864   -0.349825   -0.869200
     18          1           0       -1.680108   -1.141143   -1.418029
     19          1           0       -2.396834    0.390988   -1.867456
     20          1           0       -2.847813    0.936575    0.507658
     21          1           0       -1.742941   -0.285893    2.302901
     22          1           0       -3.041261   -1.233735    1.567497
     23          1           0       -0.798256   -2.350795    2.029097
     24          1           0       -1.372897   -2.573908    0.515291
     25          1           0        0.470021   -0.788086    0.215549
     26          1           0        1.800114    1.487209   -1.158656
     27          1           0        3.337572   -0.017023   -2.193854
     28          1           0        1.959521   -1.121967   -2.099384
     29          1           0        3.173413   -2.408863   -0.448723
     30          1           0        4.513121   -1.248247   -0.589002
     31          1           0        3.633630    1.157265    0.469561
     32          1           0        2.180750    0.915089    1.491647
 ---------------------------------------------------------------------

 SCF Done:  E(UB3LYP) =  -1049.25439490     A.U. after   26 cycles

 The electronic state is 2-A.
 Alpha  occ. eigenvalues --  -88.95452 -19.03604 -19.01399 -19.01253 -14.23160
 Alpha  occ. eigenvalues --  -14.20329 -10.12725 -10.12586 -10.12386 -10.11728
 Alpha  occ. eigenvalues --  -10.10796 -10.08572 -10.07890 -10.06616  -8.01756
 Alpha  occ. eigenvalues --   -5.98021  -5.97988  -5.97824  -1.01263  -0.95471
 Alpha  occ. eigenvalues --   -0.90127  -0.82714  -0.79712  -0.71779  -0.68553
 Alpha  occ. eigenvalues --   -0.65009  -0.63406  -0.56672  -0.53673  -0.51401
 Alpha  occ. eigenvalues --   -0.50527  -0.48438  -0.43466  -0.42037  -0.41204
 Alpha  occ. eigenvalues --   -0.40219  -0.38667  -0.37464  -0.36789  -0.35719
 Alpha  occ. eigenvalues --   -0.35074  -0.34641  -0.33216  -0.32110  -0.30037
 Alpha  occ. eigenvalues --   -0.29429  -0.28295  -0.27855  -0.27647  -0.26902
 Alpha  occ. eigenvalues --   -0.25161  -0.24691  -0.24106  -0.23785  -0.22699
 Alpha  occ. eigenvalues --   -0.21216  -0.19833  -0.18069  -0.16333  -0.15611
 Alpha  occ. eigenvalues --    0.03972
 Alpha virt. eigenvalues --    0.05846   0.07301   0.07821   0.08654   0.08920
 Alpha virt. eigenvalues --    0.09176   0.10247   0.10771   0.11073   0.11613
 Alpha virt. eigenvalues --    0.11985   0.12346   0.12852   0.13670   0.13879

  Beta  occ. eigenvalues --  -88.95451 -19.03600 -19.01397 -19.01248 -14.23151
  Beta  occ. eigenvalues --  -14.20256 -10.12706 -10.12585 -10.12380 -10.11726
  Beta  occ. eigenvalues --  -10.10768 -10.08556 -10.07874 -10.06563  -8.01754
  Beta  occ. eigenvalues --   -5.98020  -5.97987  -5.97823  -1.01255  -0.95463
  Beta  occ. eigenvalues --   -0.90119  -0.82698  -0.79610  -0.71728  -0.68528
  Beta  occ. eigenvalues --   -0.64981  -0.63344  -0.56594  -0.53609  -0.51352
  Beta  occ. eigenvalues --   -0.50500  -0.48394  -0.43431  -0.41996  -0.41178
  Beta  occ. eigenvalues --   -0.40173  -0.38649  -0.37443  -0.36759  -0.35638
  Beta  occ. eigenvalues --   -0.35027  -0.34609  -0.33185  -0.32087  -0.29990
  Beta  occ. eigenvalues --   -0.29381  -0.28250  -0.27816  -0.27625  -0.26880
  Beta  occ. eigenvalues --   -0.25127  -0.24660  -0.24085  -0.23768  -0.22691
  Beta  occ. eigenvalues --   -0.21204  -0.19823  -0.18051  -0.16279  -0.15580
  Beta virt. eigenvalues --    0.06128   0.06890   0.08118   0.08378   0.08864
  Beta virt. eigenvalues --    0.09135   0.09682   0.10732   0.11034   0.11485
  Beta virt. eigenvalues --    0.11790   0.12268   0.12620   0.12916   0.13744

 Mulliken charges and spin densities:
               1          2
     1  C    1.558324  -2.154067
     2  C   -1.425929   1.065736
     3  C   -0.183950   0.317898
     4  C    1.124885  -1.795327
     5  N   -0.641925   0.159592
     6  S   -0.128808   0.159263
     7  O   -0.228253   0.005280
     8  O   -0.124465   0.007190
     9  N    0.059047  -0.104354
    10  C   -1.099992   0.952685
    11  C    0.584025  -0.913535
    12  C    0.033090  -0.265896
    13  O   -0.090425  -0.006632
    14  C   -0.103248  -0.330038
    15  H   -0.454278   0.621202
    16  H   -0.321017   0.464289
    17  H   -0.154336   0.288060
    18  H   -0.052974   0.215556
    19  H    0.099975   0.083688
    20  H    0.225742   0.068813
    21  H    0.127900   0.091369
    22  H   -0.325622   0.495527
    23  H   -0.185193   0.445989
    24  H   -0.286584   0.545102
    25  H    1.080103  -0.700407
    26  H    0.097003   0.099460
    27  H   -0.083202   0.256392
    28  H   -0.048937   0.205642
    29  H   -0.145894   0.319891
    30  H   -0.091808   0.215487
    31  H   -0.045067   0.169406
    32  H    0.231813   0.016740
 Sum of Mulliken charges =  -1.00000   1.00000

 Dipole moment (field-independent basis, Debye):
    X=              3.7616    Y=              4.9095    Z=             -0.5811  Tot=              6.2121
 Quadrupole moment (field-independent basis, Debye-Ang):
   XX=           -154.4307   YY=           -149.7000   ZZ=           -129.6213
   XY=             -9.8615   XZ=             -2.8816   YZ=              2.4819

 Summary of Natural Population Analysis:

                                       Natural Population
                Natural  -----------------------------------------------
    Atom  No    Charge         Core      Valence    Rydberg      Total
 -----------------------------------------------------------------------
      C    1   -0.28554      0.99966     2.28033    0.00555     3.28554
      C    2   -0.20542      0.99960     2.19552    0.01030     3.20542
      C    3   -0.19715      0.99954     2.18178    0.01583     3.19715
      C    4   -0.10119      0.99959     2.08816    0.01345     3.10119
      N    5   -0.43633      0.99977     2.92382    0.01275     3.93633
      S    6    1.09301      4.99924     1.81137    0.09638     6.90699
      O    7   -0.47047      0.99991     3.46524    0.00532     4.47047
      O    8   -0.47402      0.99991     3.46895    0.00516     4.47402
      N    9   -0.44849      0.99974     2.93665    0.01210     3.94849
      C   10   -0.03150      0.99959     2.01792    0.01398     3.03150
      C   11   -0.20907      0.99962     2.20132    0.00813     3.20907
      C   12   -0.01571      0.99962     2.00331    0.01279     3.01571
      O   13   -0.29824      0.99990     3.28975    0.00860     4.29824
      C   14   -0.02168      0.99957     2.01105    0.01107     3.02168
      H   15    0.10215      0.00000     0.39551    0.00233     0.39785
      H   16    0.10306      0.00000     0.39596    0.00098     0.39694
      H   17    0.09500      0.00000     0.40393    0.00107     0.40500
      H   18    0.10786      0.00000     0.39034    0.00180     0.39214
      H   19    0.10792      0.00000     0.39082    0.00127     0.39208
      H   20    0.11581      0.00000     0.38308    0.00112     0.38419
      H   21    0.10640      0.00000     0.39221    0.00139     0.39360
      H   22    0.09372      0.00000     0.40441    0.00187     0.40628
      H   23    0.18722      0.00000     0.30978    0.00300     0.31278
      H   24    0.18669      0.00000     0.30522    0.00810     0.31331
      H   25    0.21650      0.00000     0.27912    0.00439     0.28350
      H   26    0.11085      0.00000     0.38799    0.00117     0.38915
      H   27    0.10185      0.00000     0.39699    0.00117     0.39815
      H   28    0.11187      0.00000     0.38686    0.00127     0.38813
      H   29    0.09308      0.00000     0.40546    0.00146     0.40692
      H   30    0.07804      0.00000     0.42054    0.00141     0.42196
      H   31    0.07663      0.00000     0.42213    0.00125     0.42337
      H   32    0.10719      0.00000     0.39151    0.00130     0.39281
 =======================================================================
   * Total *    0.00000     17.99525    41.73701    0.26774    60.00000

 Normal termination of Gaussian 16 at Thu Dec 10 10:11:55 2020.
