 Gaussian 16, Revision A.03,

 -----------------------------------------------------------
 # opt freq B3LYP/6-31G(d) empiricaldispersion=gd3bj scf=xqc
 -----------------------------------------------------------

 ------------------------------
 CID_85845488_JID_9248_neutraal
 ------------------------------
 Symbolic Z-matrix:
 Charge =  0 Multiplicity = 1

 SCF Done:  E(RB3LYP) =  -786.876182251     A.U. after   14 cycles
 SCF Done:  E(RB3LYP) =  -786.882231330     A.U. after   13 cycles
 SCF Done:  E(RB3LYP) =  -786.885291419     A.U. after   14 cycles
 SCF Done:  E(RB3LYP) =  -786.884551062     A.U. after   15 cycles
 SCF Done:  E(RB3LYP) =  -786.886007518     A.U. after   13 cycles
 SCF Done:  E(RB3LYP) =  -786.886823979     A.U. after   12 cycles
 SCF Done:  E(RB3LYP) =  -786.887013615     A.U. after   11 cycles
 SCF Done:  E(RB3LYP) =  -786.887094058     A.U. after   11 cycles
 SCF Done:  E(RB3LYP) =  -786.887129237     A.U. after   12 cycles
 SCF Done:  E(RB3LYP) =  -786.887175607     A.U. after   10 cycles
 SCF Done:  E(RB3LYP) =  -786.887729034     A.U. after   11 cycles
 SCF Done:  E(RB3LYP) =  -786.887725628     A.U. after   10 cycles
 SCF Done:  E(RB3LYP) =  -786.887729574     A.U. after   11 cycles
 SCF Done:  E(RB3LYP) =  -786.887729543     A.U. after    7 cycles
 SCF Done:  E(RB3LYP) =  -786.887729518     A.U. after    7 cycles
 Optimization completed.
    -- Stationary point found.
 Normal termination of Gaussian 16 at Sun Dec 13 20:41:30 2020.

 --------------------------------------------------------------------
 #N Geom=AllCheck Guess=TCheck SCRF=Check GenChk RB3LYP/6-31G(d) Freq
 --------------------------------------------------------------------

 Structure from the checkpoint file:  "JID_9248.chk"
 ------------------------------
 CID_85845488_JID_9248_neutraal
 ------------------------------
 Charge =  0 Multiplicity = 1

 SCF Done:  E(RB3LYP) =  -786.887729518     A.U. after    1 cycles

  Exact polarizability: 255.736  -3.745 163.767 -45.990   4.320 122.796
 Approx polarizability: 368.634  -6.136 297.197 -92.444  12.231 209.938

                      1                      2                      3
                      A                      A                      A
 Frequencies --     14.4782                24.4419                34.7899
 Red. masses --      4.9803                 4.2414                 4.8153
 Frc consts  --      0.0006                 0.0015                 0.0034
 IR Inten    --      0.0428                 0.1505                 0.7817

                      4                      5                      6
                      A                      A                      A
 Frequencies --     56.5902                99.0841               121.7832
 Red. masses --      3.9986                 4.9803                 4.1227
 Frc consts  --      0.0075                 0.0288                 0.0360
 IR Inten    --      0.9136                 0.3381                 2.0899

                      7                      8                      9
                      A                      A                      A
 Frequencies --    185.9733               216.7095               235.7010
 Red. masses --      4.9490                 4.8686                 3.9027
 Frc consts  --      0.1008                 0.1347                 0.1277
 IR Inten    --      0.7442                 9.4561                 0.4217

                     10                     11                     12
                      A                      A                      A
 Frequencies --    282.9411               321.6887               374.3610
 Red. masses --      3.3820                 3.1260                 3.0274
 Frc consts  --      0.1595                 0.1906                 0.2500
 IR Inten    --      4.3863                 1.3245                 3.9446

                     13                     14                     15
                      A                      A                      A
 Frequencies --    413.5856               416.5686               423.4926
 Red. masses --      3.2087                 2.9939                 3.8925
 Frc consts  --      0.3234                 0.3061                 0.4113
 IR Inten    --      3.5816                 0.6157                 2.8149

                     16                     17                     18
                      A                      A                      A
 Frequencies --    455.5198               482.6102               483.6718
 Red. masses --      4.5167                 3.3837                 2.7795
 Frc consts  --      0.5522                 0.4643                 0.3831
 IR Inten    --      1.5751                 2.5127                10.8710

                     19                     20                     21
                      A                      A                      A
 Frequencies --    514.8855               524.0999               556.1336
 Red. masses --      3.8163                 7.5598                 5.2352
 Frc consts  --      0.5961                 1.2235                 0.9540
 IR Inten    --      5.2123                 1.1697                 9.7274

                     22                     23                     24
                      A                      A                      A
 Frequencies --    619.8232               636.2586               652.1288
 Red. masses --      4.5511                 6.3537                 5.8753
 Frc consts  --      1.0302                 1.5155                 1.4721
 IR Inten    --     14.4854                 0.1041                 1.4047

                     25                     26                     27
                      A                      A                      A
 Frequencies --    675.0344               713.3800               739.5730
 Red. masses --      4.8376                 2.1463                 5.5058
 Frc consts  --      1.2988                 0.6436                 1.7743
 IR Inten    --      1.8481                17.5464                15.2558

                     28                     29                     30
                      A                      A                      A
 Frequencies --    755.9042               766.6891               793.9387
 Red. masses --      1.6365                 1.2466                 3.2806
 Frc consts  --      0.5509                 0.4317                 1.2183
 IR Inten    --     36.7778                33.5246                 0.6755

                     31                     32                     33
                      A                      A                      A
 Frequencies --    803.7740               828.4820               863.9735
 Red. masses --      4.8612                 3.9501                 1.2490
 Frc consts  --      1.8504                 1.5975                 0.5493
 IR Inten    --      1.1179                 5.6740                 0.2323

                     34                     35                     36
                      A                      A                      A
 Frequencies --    877.2555               912.5603               921.0359
 Red. masses --      1.4140                 1.5162                 1.5419
 Frc consts  --      0.6411                 0.7439                 0.7707
 IR Inten    --      0.1884                14.9581                 2.7929

                     37                     38                     39
                      A                      A                      A
 Frequencies --    922.9914               954.0765               961.0735
 Red. masses --      2.9906                 1.3967                 3.0603
 Frc consts  --      1.5011                 0.7491                 1.6654
 IR Inten    --      4.6605                 0.3278                14.9707

                     40                     41                     42
                      A                      A                      A
 Frequencies --    968.3392               970.2792               979.3184
 Red. masses --      1.4859                 1.3645                 4.5035
 Frc consts  --      0.8209                 0.7569                 2.5447
 IR Inten    --      7.9171                 0.5087                12.5930

                     43                     44                     45
                      A                      A                      A
 Frequencies --    996.1381               997.0493              1013.5096
 Red. masses --      1.2592                 1.2852                 1.9536
 Frc consts  --      0.7362                 0.7527                 1.1824
 IR Inten    --      0.3257                 0.0278                14.0795

                     46                     47                     48
                      A                      A                      A
 Frequencies --   1023.0164              1050.1209              1059.2855
 Red. masses --      5.2998                 2.2706                 2.2120
 Frc consts  --      3.2679                 1.4753                 1.4624
 IR Inten    --      0.3994                 1.4204                 4.0318

                     49                     50                     51
                      A                      A                      A
 Frequencies --   1072.1482              1118.7505              1125.1329
 Red. masses --      1.9726                 1.7188                 3.5354
 Frc consts  --      1.3360                 1.2675                 2.6370
 IR Inten    --      1.4030                28.5893               169.0590

                     52                     53                     54
                      A                      A                      A
 Frequencies --   1155.9384              1182.6599              1193.6654
 Red. masses --      1.8520                 1.3382                 1.1021
 Frc consts  --      1.4580                 1.1028                 0.9252
 IR Inten    --     23.6501                 2.2698                 0.2088

                     55                     56                     57
                      A                      A                      A
 Frequencies --   1195.3130              1211.3928              1234.1296
 Red. masses --      1.3967                 1.1365                 2.9925
 Frc consts  --      1.1758                 0.9826                 2.6854
 IR Inten    --      6.6426                 1.2767                16.9467

                     58                     59                     60
                      A                      A                      A
 Frequencies --   1240.0346              1281.4980              1294.7850
 Red. masses --      2.1543                 1.2840                 1.9201
 Frc consts  --      1.9518                 1.2424                 1.8965
 IR Inten    --      1.5091                 9.0759                15.2554

                     61                     62                     63
                      A                      A                      A
 Frequencies --   1306.1686              1321.0386              1354.4152
 Red. masses --      1.6046                 1.3698                 1.9476
 Frc consts  --      1.6130                 1.4084                 2.1050
 IR Inten    --      5.8401                 5.2759                16.2861

                     64                     65                     66
                      A                      A                      A
 Frequencies --   1360.2357              1367.6137              1398.1895
 Red. masses --      1.9948                 1.9860                 2.2345
 Frc consts  --      2.1746                 2.1886                 2.5737
 IR Inten    --      0.8266                 1.2458                21.6913

                     67                     68                     69
                      A                      A                      A
 Frequencies --   1405.3540              1426.6853              1429.5255
 Red. masses --      1.8355                 1.3988                 6.3426
 Frc consts  --      2.1359                 1.6775                 7.6366
 IR Inten    --     31.8207                10.7239                 4.5890

                     70                     71                     72
                      A                      A                      A
 Frequencies --   1487.3824              1500.2298              1504.1593
 Red. masses --      2.4006                 2.3792                 2.1073
 Frc consts  --      3.1291                 3.1549                 2.8091
 IR Inten    --      2.2876                 3.1315                 8.4177

                     73                     74                     75
                      A                      A                      A
 Frequencies --   1514.2039              1524.2125              1548.1891
 Red. masses --      1.1496                 1.1181                 2.1570
 Frc consts  --      1.5530                 1.5304                 3.0461
 IR Inten    --      3.0315                 1.6128                 5.3815

                     76                     77                     78
                      A                      A                      A
 Frequencies --   1550.7062              1626.9009              1649.1140
 Red. masses --      3.1258                 6.6103                 5.6387
 Frc consts  --      4.4287                10.3085                 9.0350
 IR Inten    --     11.7238                 9.0332                11.7126

                     79                     80                     81
                      A                      A                      A
 Frequencies --   1650.9073              1668.9602              1687.9015
 Red. masses --      5.6803                 5.5758                 6.1654
 Frc consts  --      9.1215                 9.1506                10.3492
 IR Inten    --     34.2092                 0.8968                47.4199

                     82                     83                     84
                      A                      A                      A
 Frequencies --   3026.4108              3049.0945              3086.2648
 Red. masses --      1.0641                 1.0584                 1.0990
 Frc consts  --      5.7423                 5.7975                 6.1677
 IR Inten    --     43.6856                14.5404                28.3232

                     85                     86                     87
                      A                      A                      A
 Frequencies --   3090.5503              3145.2654              3176.2744
 Red. masses --      1.1062                 1.0898                 1.0863
 Frc consts  --      6.2252                 6.3522                 6.4570
 IR Inten    --     19.8520                27.4048                 8.1297

                     88                     89                     90
                      A                      A                      A
 Frequencies --   3183.0043              3184.3853              3188.1013
 Red. masses --      1.0858                 1.0868                 1.0882
 Frc consts  --      6.4815                 6.4928                 6.5167
 IR Inten    --      3.5236                 0.5348                 1.4484

                     91                     92                     93
                      A                      A                      A
 Frequencies --   3194.4792              3200.4276              3204.0926
 Red. masses --      1.0907                 1.0937                 1.0936
 Frc consts  --      6.5576                 6.6001                 6.6147
 IR Inten    --     22.1475                26.6531                30.3188

                     94                     95                     96
                      A                      A                      A
 Frequencies --   3211.2102              3211.5099              3212.8096
 Red. masses --      1.0917                 1.0974                 1.0962
 Frc consts  --      6.6328                 6.6688                 6.6666
 IR Inten    --     16.2134                15.0458                20.6834

 - Thermochemistry -
 -------------------
 Temperature   298.150 Kelvin.  Pressure   1.00000 Atm.
 Atom     1 has atomic number  6 and mass  12.00000

 Molecular mass:   249.11536 amu.
 Principal axes and moments of inertia in atomic units:
                           1         2         3
     Eigenvalues --  1745.56798********************
           X            0.99999  -0.00138  -0.00386
           Y            0.00140   0.99998   0.00612
           Z            0.00385  -0.00612   0.99997
 This molecule is an asymmetric top.
 Rotational symmetry number  1.
 Warning -- assumption of classical behavior for rotation
           may cause significant error
 Rotational temperatures (Kelvin)      0.04962     0.00772     0.00751
 Rotational constants (GHZ):           1.03390     0.16079     0.15640
 Zero-point vibrational energy     733583.2 (Joules/Mol)
                                  175.33060 (Kcal/Mol)
 Warning -- explicit consideration of  22 degrees of freedom as
           vibrations may cause significant error
 Vibrational temperatures:     20.83    35.17    50.05    81.42   142.56
          (Kelvin)            175.22   267.57   311.80   339.12   407.09
                              462.84   538.62   595.06   599.35   609.31
                              655.39   694.37   695.90   740.81   754.06
                              800.15   891.79   915.43   938.27   971.22
                             1026.39  1064.08  1087.58  1103.09  1142.30
                             1156.45  1192.00  1243.07  1262.18  1312.97
                             1325.17  1327.98  1372.70  1382.77  1393.22
                             1396.02  1409.02  1433.22  1434.53  1458.21
                             1471.89  1510.89  1524.08  1542.58  1609.63
                             1618.82  1663.14  1701.58  1717.42  1719.79
                             1742.92  1775.64  1784.13  1843.79  1862.91
                             1879.29  1900.68  1948.70  1957.08  1967.69
                             2011.68  2021.99  2052.68  2056.77  2140.01
                             2158.50  2164.15  2178.60  2193.00  2227.50
                             2231.12  2340.75  2372.71  2375.29  2401.26
                             2428.51  4354.33  4386.97  4440.45  4446.61
                             4525.34  4569.95  4579.63  4581.62  4586.97
                             4596.14  4604.70  4609.97  4620.22  4620.65
                             4622.52

 Zero-point correction=                           0.279407 (Hartree/Particle)
 Thermal correction to Energy=                    0.294350
 Thermal correction to Enthalpy=                  0.295294
 Thermal correction to Gibbs Free Energy=         0.234141
 Sum of electronic and zero-point Energies=           -786.608322
 Sum of electronic and thermal Energies=              -786.593379
 Sum of electronic and thermal Enthalpies=            -786.592435
 Sum of electronic and thermal Free Energies=         -786.653588

                     E (Thermal)             CV                S
                      KCal/Mol        Cal/Mol-Kelvin    Cal/Mol-Kelvin
 Total                  184.708             59.529            128.708
 Electronic               0.000              0.000              0.000
 Translational            0.889              2.981             42.439
 Rotational               0.889              2.981             33.780
 Vibrational            182.930             53.568             52.489
 Vibration     1          0.593              1.986              7.276
 Vibration     2          0.593              1.985              6.236
 Vibration     3          0.594              1.983              5.536
 Vibration     4          0.596              1.975              4.573
 Vibration     5          0.604              1.950              3.472
 Vibration     6          0.609              1.931              3.072
 Vibration     7          0.632              1.859              2.268
 Vibration     8          0.646              1.816              1.986
 Vibration     9          0.655              1.786              1.835
 Vibration    10          0.682              1.705              1.516
 Vibration    11          0.707              1.632              1.302
 Vibration    12          0.745              1.525              1.062
 Vibration    13          0.777              1.441              0.914
 Vibration    14          0.780              1.434              0.904
 Vibration    15          0.786              1.419              0.880
 Vibration    16          0.814              1.349              0.779
 Vibration    17          0.839              1.289              0.703
 Vibration    18          0.840              1.286              0.700
 Vibration    19          0.870              1.217              0.622
 Vibration    20          0.879              1.197              0.601
 Vibration    21          0.912              1.126              0.532
 Vibration    22          0.980              0.990              0.417

 Optimization completed.
    -- Stationary point found.
 Normal termination of Gaussian 16 at Sun Dec 13 20:57:35 2020.

 ----------------------------------------------------------------------
 # B3LYP/6-311++G(d,p) empiricaldispersion=gd3bj scf=xqc pop=npa geom=c
 heck
 ----------------------------------------------------------------------

 --------------------------------------
 CID_85845488_JID_9248_Energie_neutraal
 --------------------------------------
 Structure from the checkpoint file:  "JID_9248.chk"
 Charge =  0 Multiplicity = 1

 SCF Done:  E(RB3LYP) =  -787.088364060     A.U. after   15 cycles
 Normal termination of Gaussian 16 at Sun Dec 13 21:04:34 2020.

 ----------------------------------------------------------------------
 # B3LYP/6-311++G(d,p) empiricaldispersion=gd3bj scf=xqc pop=npa geom=c
 heck
 ----------------------------------------------------------------------

 ------------------------------------
 CID_85845488_JID_9248_Energie_kation
 ------------------------------------
 Structure from the checkpoint file:  "JID_9248.chk"
 Charge =  1 Multiplicity = 2

 SCF Done:  E(UB3LYP) =  -786.796162782     A.U. after   29 cycles
 Normal termination of Gaussian 16 at Sun Dec 13 21:24:36 2020.
 Gaussian 16:  ES64L-G16RevA.03 25-Dec-2016

 ----------------------------------------------------------------------
 # B3LYP/6-311++G(d,p) empiricaldispersion=gd3bj scf=xqc pop=npa geom=c
 heck
 ----------------------------------------------------------------------

 -----------------------------------
 CID_85845488_JID_9248_Energie_anion
 -----------------------------------
 Structure from the checkpoint file:  "JID_9248.chk"
 Charge = -1 Multiplicity = 2

                         Standard orientation:
 ---------------------------------------------------------------------
 Center     Atomic      Atomic             Coordinates (Angstroms)
 Number     Number       Type             X           Y           Z
 ---------------------------------------------------------------------
      1          6           0       -5.325282    1.108261   -0.412441
      2          6           0       -5.190607   -0.031611    0.384689
      3          6           0       -4.024887   -0.791896    0.326646
      4          6           0       -2.977342   -0.421104   -0.525494
      5          6           0       -3.114330    0.726621   -1.309918
      6          6           0       -4.284781    1.486256   -1.260293
      7          6           0       -1.724974   -1.267858   -0.599395
      8          8           0       -1.243948   -1.670891    0.680928
      9          6           0       -0.729905   -0.594210    1.450612
     10          6           0        0.645949   -0.140745    1.007680
     11          6           0        1.486622   -0.957342    0.284852
     12          6           0        2.771237   -0.490234   -0.086095
     13          6           0        3.701704   -1.254627   -0.837308
     14          6           0        4.933361   -0.729797   -1.157840
     15          6           0        5.294414    0.578008   -0.746668
     16          6           0        4.412334    1.341922   -0.017102
     17          6           0        3.138493    0.825567    0.327709
     18          6           0        2.184353    1.563285    1.078515
     19          7           0        0.990489    1.119052    1.406115
     20          1           0       -6.234836    1.700719   -0.367227
     21          1           0       -5.996359   -0.326826    1.051314
     22          1           0       -3.908582   -1.672579    0.951668
     23          1           0       -2.297679    1.029989   -1.961009
     24          1           0       -4.377903    2.377322   -1.874956
     25          1           0       -1.927647   -2.207152   -1.125939
     26          1           0       -0.943330   -0.734804   -1.159441
     27          1           0       -1.407263    0.269195    1.442959
     28          1           0       -0.682123   -0.962132    2.482280
     29          1           0        1.159237   -1.953427    0.004552
     30          1           0        3.426335   -2.257303   -1.153131
     31          1           0        5.640530   -1.321040   -1.732818
     32          1           0        6.271363    0.971966   -1.010765
     33          1           0        4.678701    2.345875    0.303824
     34          1           0        2.439562    2.570984    1.409575
 ---------------------------------------------------------------------

 SCF Done:  E(UB3LYP) =  -787.094711799     A.U. after   33 cycles
 SCF Done:  E(UB3LYP) =  -787.094711799     a.u. after    1 cycles

 The electronic state is 2-A.
 Alpha  occ. eigenvalues --  -19.01698 -14.15179 -10.11717 -10.09406 -10.08798
 Alpha  occ. eigenvalues --  -10.08626 -10.08588 -10.08552 -10.08409 -10.07960
 Alpha  occ. eigenvalues --  -10.06025 -10.04607 -10.04376 -10.03896 -10.03612
 Alpha  occ. eigenvalues --  -10.03294 -10.02623 -10.02455 -10.01935  -0.92856
 Alpha  occ. eigenvalues --   -0.79252  -0.76789  -0.71511  -0.67803  -0.65808
 Alpha  occ. eigenvalues --   -0.64666  -0.62966  -0.61184  -0.58484  -0.54179
 Alpha  occ. eigenvalues --   -0.51831  -0.50167  -0.49128  -0.46458  -0.46318
 Alpha  occ. eigenvalues --   -0.42617  -0.39288  -0.38166  -0.37879  -0.37413
 Alpha  occ. eigenvalues --   -0.36551  -0.35302  -0.33925  -0.33265  -0.33051
 Alpha  occ. eigenvalues --   -0.31233  -0.30577  -0.29185  -0.28212  -0.27995
 Alpha  occ. eigenvalues --   -0.27264  -0.26477  -0.26061  -0.25606  -0.25295
 Alpha  occ. eigenvalues --   -0.22459  -0.21622  -0.20579  -0.19681  -0.16850
 Alpha  occ. eigenvalues --   -0.16396  -0.15696  -0.15538  -0.12316  -0.11301
 Alpha  occ. eigenvalues --   -0.09068   0.04500
 Alpha virt. eigenvalues --    0.05915   0.06610   0.07400   0.07663   0.08416
 Alpha virt. eigenvalues --    0.08748   0.09579   0.10116   0.10239   0.10852
 Alpha virt. eigenvalues --    0.11274   0.11815   0.12113   0.12761   0.13060

  Beta  occ. eigenvalues --  -19.01692 -14.15011 -10.11714 -10.09405 -10.08805
  Beta  occ. eigenvalues --  -10.08593 -10.08561 -10.08513 -10.08416 -10.07914
  Beta  occ. eigenvalues --  -10.06028 -10.04648 -10.04042 -10.03970 -10.03623
  Beta  occ. eigenvalues --  -10.03151 -10.02315 -10.02231 -10.01704  -0.92838
  Beta  occ. eigenvalues --   -0.78839  -0.76727  -0.71198  -0.67728  -0.65743
  Beta  occ. eigenvalues --   -0.64302  -0.62746  -0.60865  -0.58244  -0.54022
  Beta  occ. eigenvalues --   -0.51784  -0.49748  -0.48860  -0.46345  -0.45982
  Beta  occ. eigenvalues --   -0.42570  -0.39208  -0.38045  -0.37759  -0.37328
  Beta  occ. eigenvalues --   -0.36350  -0.35199  -0.33841  -0.33206  -0.32985
  Beta  occ. eigenvalues --   -0.31073  -0.30462  -0.29023  -0.28083  -0.27822
  Beta  occ. eigenvalues --   -0.27018  -0.26313  -0.25961  -0.25254  -0.25027
  Beta  occ. eigenvalues --   -0.22278  -0.21341  -0.19993  -0.19257  -0.16692
  Beta  occ. eigenvalues --   -0.16255  -0.15482  -0.14370  -0.11469  -0.11068
  Beta  occ. eigenvalues --   -0.07536
  Beta virt. eigenvalues --    0.05991   0.07002   0.07428   0.07655   0.08399
  Beta virt. eigenvalues --    0.08725   0.09527   0.09736   0.10107   0.10295
  Beta virt. eigenvalues --    0.10810   0.11358   0.11768   0.12070   0.12714

 Mulliken charges and spin densities:
               1          2
     1  C   -0.135177  -0.201629
     2  C   -0.287331  -0.035614
     3  C    0.221280   0.029836
     4  C    0.825022   0.061915
     5  C   -0.732017   0.181657
     6  C   -0.418566   0.026817
     7  C   -0.370922  -0.222852
     8  O   -0.028911  -0.011802
     9  C   -0.539057   0.036461
    10  C   -0.496034  -0.142857
    11  C    0.167950   0.237530
    12  C    0.910260  -0.037754
    13  C   -0.118311   0.150633
    14  C   -0.229303   0.155620
    15  C   -0.352066   0.011131
    16  C   -0.809993   0.206079
    17  C    0.076654  -0.083913
    18  C   -0.429774   0.267606
    19  N    0.042219   0.073517
    20  H    0.032633   0.096209
    21  H    0.051067   0.105345
    22  H    0.125184   0.054601
    23  H    0.128402   0.015156
    24  H    0.100897   0.056077
    25  H    0.141587   0.037191
    26  H    0.174200  -0.014296
    27  H    0.154166  -0.009044
    28  H    0.146919   0.018921
    29  H    0.153230  -0.002389
    30  H    0.078805  -0.013548
    31  H    0.108508  -0.009060
    32  H    0.105307   0.000224
    33  H    0.085235  -0.018961
    34  H    0.117937  -0.018807
 Sum of Mulliken charges =  -1.00000   1.00000

 Dipole moment (field-independent basis, Debye):
    X=             -5.3429    Y=             -0.7047    Z=             -1.7357  Tot=              5.6617
 Quadrupole moment (field-independent basis, Debye-Ang):
   XX=           -181.6134   YY=           -126.7435   ZZ=           -126.9264
   XY=             -0.2028   XZ=             -0.1203   YZ=             -1.9006

 Summary of Natural Population Analysis:

                                       Natural Population
                Natural  -----------------------------------------------
    Atom  No    Charge         Core      Valence    Rydberg      Total
 -----------------------------------------------------------------------
      C    1   -0.10495      0.99957     2.09535    0.01003     3.10495
      C    2   -0.10515      0.99957     2.09549    0.01010     3.10515
      C    3   -0.09093      0.99951     2.08248    0.00893     3.09093
      C    4   -0.02534      0.99950     2.01726    0.00858     3.02534
      C    5   -0.10117      0.99952     2.09219    0.00946     3.10117
      C    6   -0.09665      0.99957     2.08672    0.01036     3.09665
      C    7   -0.01867      0.99953     2.00657    0.01257     3.01867
      O    8   -0.30059      0.99989     3.29177    0.00893     4.30059
      C    9   -0.02180      0.99953     2.00890    0.01337     3.02180
      C   10    0.07281      0.99951     1.91400    0.01369     2.92719
      C   11   -0.08341      0.99946     2.07625    0.00769     3.08341
      C   12   -0.02154      0.99950     2.01402    0.00801     3.02154
      C   13   -0.07050      0.99956     2.06084    0.01009     3.07050
      C   14   -0.06817      0.99944     2.05884    0.00988     3.06817
      C   15   -0.12450      0.99960     2.11436    0.01054     3.12450
      C   16   -0.03631      0.99954     2.02803    0.00874     3.03631
      C   17   -0.06321      0.99948     2.05624    0.00749     3.06321
      C   18    0.10618      0.99958     1.88038    0.01387     2.89382
      N   19   -0.23078      0.99968     2.71968    0.01142     3.73078
      H   20    0.09717      0.00000     0.40198    0.00085     0.40283
      H   21    0.09767      0.00000     0.40146    0.00087     0.40233
      H   22    0.10409      0.00000     0.39405    0.00186     0.39591
      H   23    0.10208      0.00000     0.39671    0.00121     0.39792
      H   24    0.09785      0.00000     0.40125    0.00090     0.40215
      H   25    0.09290      0.00000     0.40597    0.00113     0.40710
      H   26    0.09124      0.00000     0.40726    0.00150     0.40876
      H   27    0.08772      0.00000     0.40847    0.00381     0.41228
      H   28    0.09209      0.00000     0.40662    0.00129     0.40791
      H   29    0.09750      0.00000     0.40070    0.00180     0.40250
      H   30    0.08782      0.00000     0.41048    0.00170     0.41218
      H   31    0.08746      0.00000     0.41136    0.00117     0.41254
      H   32    0.08929      0.00000     0.40956    0.00114     0.41071
      H   33    0.08685      0.00000     0.41134    0.00181     0.41315
      H   34    0.07294      0.00000     0.42538    0.00167     0.42706
 =======================================================================
   * Total *    0.00000     18.99156    46.79199    0.21645    66.00000

 Normal termination of Gaussian 16 at Sun Dec 13 21:47:33 2020.
