 Gaussian 16, Revision A.03,

 -----------------------------------------------------------
 # opt freq B3LYP/6-31G(d) empiricaldispersion=gd3bj scf=xqc
 -----------------------------------------------------------

 -----------------------------
 CID_12567779_JID_885_neutraal
 -----------------------------
 Symbolic Z-matrix:
 Charge =  0 Multiplicity = 1

 SCF Done:  E(RB3LYP) =  -425.385064009     A.U. after   14 cycles
 SCF Done:  E(RB3LYP) =  -425.388525086     A.U. after   12 cycles
 SCF Done:  E(RB3LYP) =  -425.388400629     A.U. after   13 cycles
 SCF Done:  E(RB3LYP) =  -425.388537233     A.U. after   13 cycles
 SCF Done:  E(RB3LYP) =  -425.388943591     A.U. after   12 cycles
 SCF Done:  E(RB3LYP) =  -425.389063352     A.U. after   11 cycles
 SCF Done:  E(RB3LYP) =  -425.389208237     A.U. after   12 cycles
 SCF Done:  E(RB3LYP) =  -425.389241043     A.U. after   11 cycles
 SCF Done:  E(RB3LYP) =  -425.389280445     A.U. after   11 cycles
 SCF Done:  E(RB3LYP) =  -425.389301493     A.U. after   12 cycles
 SCF Done:  E(RB3LYP) =  -425.389304239     A.U. after   10 cycles
 SCF Done:  E(RB3LYP) =  -425.389304416     A.U. after    8 cycles
 SCF Done:  E(RB3LYP) =  -425.389304506     A.U. after    7 cycles
 SCF Done:  E(RB3LYP) =  -425.389304616     A.U. after    8 cycles
 SCF Done:  E(RB3LYP) =  -425.389304619     A.U. after    7 cycles
 Optimization completed.
    -- Stationary point found.

 1\1\GINC-NODE206\FOpt\RB3LYP\6-31G(d)\C9H12O1\VSC10255\08-Dec-2020\0\\
 # opt freq B3LYP/6-31G(d) empiricaldispersion=gd3bj scf=xqc\\CID_12567
 779_JID_885_neutraal\\0,1\C,0.9800205185,0.0685512132,-0.0505399048\C,
 0.3556848993,1.4240103913,0.105258464\C,-0.5407065899,1.9511922115,-0.
 7313231118\C,-1.1520096029,3.3219703486,-0.6033714508\C,-0.9664242327,
 4.0337843039,0.7189205461\C,-0.6274136537,5.3138320395,0.5695145827\C,
 -0.5165591497,5.7093241925,-0.8833390879\C,-0.5389770028,4.3476367592,
 -1.6312776133\C,-1.339507154,4.3826087911,-2.9055019419\O,-0.949489616

 Normal termination of Gaussian 16 at Tue Dec  8 13:29:41 2020.

 --------------------------------------------------------------------
 #N Geom=AllCheck Guess=TCheck SCRF=Check GenChk RB3LYP/6-31G(d) Freq
 --------------------------------------------------------------------

 Structure from the checkpoint file:  "JID_885.chk"
 -----------------------------
 CID_12567779_JID_885_neutraal
 -----------------------------
 Charge =  0 Multiplicity = 1

 SCF Done:  E(RB3LYP) =  -425.389304619     A.U. after    1 cycles

  Exact polarizability: 115.110   0.780  95.459  -1.062   3.269  69.496
 Approx polarizability: 154.230  -3.542 140.186  -0.201   5.594 110.251

                      1                      2                      3
                      A                      A                      A
 Frequencies --     43.7347                59.1387                67.7211
 Red. masses --      5.4238                 2.8386                 2.3259
 Frc consts  --      0.0061                 0.0058                 0.0063
 IR Inten    --      2.8747                 3.1727                 0.4486

                      4                      5                      6
                      A                      A                      A
 Frequencies --    138.5491               167.5718               209.4653
 Red. masses --      2.0566                 2.7944                 1.2934
 Frc consts  --      0.0233                 0.0462                 0.0334
 IR Inten    --      0.1773                 0.2861                 1.0582

                      7                      8                      9
                      A                      A                      A
 Frequencies --    280.7194               296.2059               341.3346
 Red. masses --      2.3977                 3.0441                 2.8593
 Frc consts  --      0.1113                 0.1574                 0.1963
 IR Inten    --      0.9786                 3.8611                 2.7007

                     10                     11                     12
                      A                      A                      A
 Frequencies --    398.8188               407.2232               446.9267
 Red. masses --      2.7390                 2.9382                 5.3178
 Frc consts  --      0.2567                 0.2871                 0.6258
 IR Inten    --      0.4658                 0.2813                 1.4839

                     13                     14                     15
                      A                      A                      A
 Frequencies --    613.6268               680.1967               762.2180
 Red. masses --      2.1337                 3.1194                 1.6344
 Frc consts  --      0.4734                 0.8503                 0.5594
 IR Inten    --     29.3272                 2.3808                17.8692

                     16                     17                     18
                      A                      A                      A
 Frequencies --    774.4798               794.5196               872.8333
 Red. masses --      3.6625                 1.8369                 2.4461
 Frc consts  --      1.2943                 0.6832                 1.0980
 IR Inten    --      2.0797                 0.9850                 4.9546

                     19                     20                     21
                      A                      A                      A
 Frequencies --    908.8081               934.4942               971.8042
 Red. masses --      1.8463                 2.0255                 1.3486
 Frc consts  --      0.8984                 1.0421                 0.7504
 IR Inten    --      1.1031                 6.0750                 2.1268

                     22                     23                     24
                      A                      A                      A
 Frequencies --    982.4624               999.0243              1015.7095
 Red. masses --      2.0602                 1.9370                 1.1653
 Frc consts  --      1.1716                 1.1390                 0.7083
 IR Inten    --      8.9612                 6.5017                13.4045

                     25                     26                     27
                      A                      A                      A
 Frequencies --   1022.3694              1080.2170              1086.2657
 Red. masses --      2.1353                 1.5307                 2.6161
 Frc consts  --      1.3150                 1.0524                 1.8188
 IR Inten    --     13.8883                 0.1736                 9.8388

                     28                     29                     30
                      A                      A                      A
 Frequencies --   1104.5512              1116.6032              1142.7182
 Red. masses --      1.8718                 2.3333                 1.9416
 Frc consts  --      1.3455                 1.7140                 1.4938
 IR Inten    --     18.7946                10.9767                 6.2653

                     31                     32                     33
                      A                      A                      A
 Frequencies --   1150.4989              1205.4142              1241.9858
 Red. masses --      1.3266                 1.2924                 1.2771
 Frc consts  --      1.0346                 1.1064                 1.1607
 IR Inten    --      7.8164                 4.5751                 3.7174

                     34                     35                     36
                      A                      A                      A
 Frequencies --   1304.7612              1319.8270              1336.7726
 Red. masses --      1.3824                 1.3649                 1.3222
 Frc consts  --      1.3866                 1.4008                 1.3921
 IR Inten    --      2.2078                 0.6379                 6.1232

                     37                     38                     39
                      A                      A                      A
 Frequencies --   1347.3108              1356.8719              1362.2150
 Red. masses --      1.2793                 1.3537                 1.5586
 Frc consts  --      1.3682                 1.4684                 1.7040
 IR Inten    --      3.9139                 1.4392                 0.0648

                     40                     41                     42
                      A                      A                      A
 Frequencies --   1391.9556              1440.0901              1443.0823
 Red. masses --      1.6926                 1.2089                 1.2620
 Frc consts  --      1.9323                 1.4771                 1.5484
 IR Inten    --      7.4368                 3.2085                 1.8679

                     43                     44                     45
                      A                      A                      A
 Frequencies --   1509.8422              1517.1731              1521.8937
 Red. masses --      1.0452                 1.0927                 1.0532
 Frc consts  --      1.4038                 1.4819                 1.4373
 IR Inten    --      5.9111                 0.9447                 8.0770

                     46                     47                     48
                      A                      A                      A
 Frequencies --   1708.4963              1758.4330              1831.9820
 Red. masses --      6.4502                 5.7612                10.0800
 Frc consts  --     11.0930                10.4958                19.9321
 IR Inten    --      4.8167                 0.6570               204.9679

                     49                     50                     51
                      A                      A                      A
 Frequencies --   2865.1687              2963.5430              3008.6875
 Red. masses --      1.0823                 1.0809                 1.0714
 Frc consts  --      5.2347                 5.5933                 5.7141
 IR Inten    --    108.9188                35.6998                41.2773

                     52                     53                     54
                      A                      A                      A
 Frequencies --   3032.4460              3078.8203              3079.8181
 Red. masses --      1.0374                 1.1001                 1.0904
 Frc consts  --      5.6207                 6.1438                 6.0935
 IR Inten    --     38.8885                23.8526                22.2618

                     55                     56                     57
                      A                      A                      A
 Frequencies --   3112.7568              3117.7207              3143.4552
 Red. masses --      1.0866                 1.0992                 1.0907
 Frc consts  --      6.2029                 6.2953                 6.3500
 IR Inten    --     14.4421                12.2900                 8.8215

                     58                     59                     60
                      A                      A                      A
 Frequencies --   3152.9436              3198.5361              3222.3267
 Red. masses --      1.0874                 1.0852                 1.1034
 Frc consts  --      6.3690                 6.5412                 6.7502
 IR Inten    --     37.7479                 6.4737                20.5902

 - Thermochemistry -
 -------------------
 Temperature   298.150 Kelvin.  Pressure   1.00000 Atm.
 Atom     1 has atomic number  6 and mass  12.00000

 Molecular mass:   136.08882 amu.
 Principal axes and moments of inertia in atomic units:
                           1         2         3
     Eigenvalues --  1060.739431933.634932757.91139
           X            0.99860   0.05247  -0.00617
           Y           -0.05242   0.99859   0.00843
           Z            0.00661  -0.00810   0.99995
 This molecule is an asymmetric top.
 Rotational symmetry number  1.
 Warning -- assumption of classical behavior for rotation
           may cause significant error
 Rotational temperatures (Kelvin)      0.08165     0.04479     0.03141
 Rotational constants (GHZ):           1.70140     0.93334     0.65439
 Zero-point vibrational energy     493131.4 (Joules/Mol)
                                  117.86124 (Kcal/Mol)
 Warning -- explicit consideration of  13 degrees of freedom as
           vibrations may cause significant error
 Vibrational temperatures:     62.92    85.09    97.44   199.34   241.10
          (Kelvin)            301.37   403.89   426.17   491.10   573.81
                              585.90   643.03   882.87   978.65  1096.66
                             1114.30  1143.14  1255.81  1307.57  1344.53
                             1398.21  1413.54  1437.37  1461.38  1470.96
                             1554.19  1562.89  1589.20  1606.54  1644.12
                             1655.31  1734.32  1786.94  1877.26  1898.94
                             1923.32  1938.48  1952.24  1959.92  2002.71
                             2071.97  2076.27  2172.33  2182.87  2189.67
                             2458.15  2529.99  2635.81  4122.34  4263.88
                             4328.83  4363.01  4429.74  4431.17  4478.56
                             4485.70  4522.73  4536.38  4601.98  4636.21

 Zero-point correction=                           0.187824 (Hartree/Particle)
 Thermal correction to Energy=                    0.198206
 Thermal correction to Enthalpy=                  0.199150
 Thermal correction to Gibbs Free Energy=         0.150809
 Sum of electronic and zero-point Energies=           -425.201481
 Sum of electronic and thermal Energies=              -425.191098
 Sum of electronic and thermal Enthalpies=            -425.190154
 Sum of electronic and thermal Free Energies=         -425.238496

                     E (Thermal)             CV                S
                      KCal/Mol        Cal/Mol-Kelvin    Cal/Mol-Kelvin
 Total                  124.376             37.479            101.743
 Electronic               0.000              0.000              0.000
 Translational            0.889              2.981             40.637
 Rotational               0.889              2.981             30.115
 Vibrational            122.599             31.518             30.991
 Vibration     1          0.595              1.980              5.082
 Vibration     2          0.597              1.974              4.486
 Vibration     3          0.598              1.970              4.219
 Vibration     4          0.614              1.915              2.824
 Vibration     5          0.624              1.882              2.463
 Vibration     6          0.642              1.826              2.048
 Vibration     7          0.680              1.709              1.529
 Vibration     8          0.690              1.681              1.438
 Vibration     9          0.721              1.593              1.206
 Vibration    10          0.765              1.473              0.967
 Vibration    11          0.772              1.455              0.936
 Vibration    12          0.806              1.368              0.805
 Vibration    13          0.973              1.003              0.427

 Optimization completed.
    -- Stationary point found.

 1\1\GINC-NODE206\Freq\RB3LYP\6-31G(d)\C9H12O1\VSC10255\08-Dec-2020\0\\
 #N Geom=AllCheck Guess=TCheck SCRF=Check GenChk RB3LYP/6-31G(d) Freq\\
 CID_12567779_JID_885_neutraal\\0,1\C,0.9800205185,0.0685512132,-0.0505
 399048\C,0.3556848993,1.4240103913,0.105258464\C,-0.5407065899,1.95119
 22115,-0.7313231118\C,-1.1520096029,3.3219703486,-0.6033714508\C,-0.96
 64242327,4.0337843039,0.7189205461\C,-0.6274136537,5.3138320395,0.5695
 145827\C,-0.5165591497,5.7093241925,-0.8833390879\C,-0.5389770028,4.34
 76367592,-1.6312776133\C,-1.339507154,4.3826087911,-2.9055019419\O,-0.

 Normal termination of Gaussian 16 at Tue Dec  8 13:34:27 2020.

 ----------------------------------------------------------------------
 # B3LYP/6-311++G(d,p) empiricaldispersion=gd3bj scf=xqc pop=npa geom=c
 heck
 ----------------------------------------------------------------------

 -------------------------------------
 CID_12567779_JID_885_Energie_neutraal
 -------------------------------------
 Structure from the checkpoint file:  "JID_885.chk"
 Charge =  0 Multiplicity = 1

 SCF Done:  E(RB3LYP) =  -425.511654942     A.U. after   14 cycles
 Normal termination of Gaussian 16 at Tue Dec  8 13:38:20 2020.

 ----------------------------------------------------------------------
 # B3LYP/6-311++G(d,p) empiricaldispersion=gd3bj scf=xqc pop=npa geom=c
 heck
 ----------------------------------------------------------------------

 -----------------------------------
 CID_12567779_JID_885_Energie_kation
 -----------------------------------
 Structure from the checkpoint file:  "JID_885.chk"
 Charge =  1 Multiplicity = 2

 SCF Done:  E(UB3LYP) =  -425.194695606     A.U. after   22 cycles
 Normal termination of Gaussian 16 at Tue Dec  8 13:43:58 2020.
 Gaussian 16:  ES64L-G16RevA.03 25-Dec-2016

 ----------------------------------
 CID_12567779_JID_885_Energie_anion
 ----------------------------------
 Structure from the checkpoint file:  "JID_885.chk"
 Charge = -1 Multiplicity = 2

                         Standard orientation:
 ---------------------------------------------------------------------
 Center     Atomic      Atomic             Coordinates (Angstroms)
 Number     Number       Type             X           Y           Z
 ---------------------------------------------------------------------
      1          6           0       -3.692212   -0.602435    0.386130
      2          6           0       -2.396381    0.111030    0.134880
      3          6           0       -1.330928   -0.430127   -0.459482
      4          6           0       -0.014575    0.264889   -0.690275
      5          6           0        0.008141    1.766744   -0.507270
      6          6           0        1.069787    2.183760    0.181772
      7          6           0        1.965016    1.041491    0.598035
      8          6           0        1.099803   -0.217551    0.314615
      9          6           0        1.888603   -1.363729   -0.259658
     10          8           0        1.887891   -2.498185    0.163888
     11          1           0       -3.658926   -1.634562    0.021856
     12          1           0       -4.530312   -0.093139   -0.108351
     13          1           0       -3.928905   -0.627549    1.458240
     14          1           0       -2.341048    1.145416    0.475579
     15          1           0       -1.376239   -1.469452   -0.787691
     16          1           0        0.309310    0.035278   -1.720918
     17          1           0       -0.747522    2.407512   -0.951373
     18          1           0        1.315187    3.221215    0.389673
     19          1           0        2.276546    1.087228    1.647848
     20          1           0        2.890386    1.040783    0.000146
     21          1           0        0.614715   -0.558953    1.232420
     22          1           0        2.490157   -1.092736   -1.161018
 ---------------------------------------------------------------------

 SCF Done:  E(UB3LYP) =  -425.497165040     A.U. after   33 cycles
 SCF Done:  E(UB3LYP) =  -425.497165040     a.u. after    1 cycles

 The electronic state is 2-A.
 Alpha  occ. eigenvalues --  -18.99162 -10.12427 -10.08269 -10.07124 -10.06932
 Alpha  occ. eigenvalues --  -10.06641 -10.06477 -10.06431 -10.06418 -10.06182
 Alpha  occ. eigenvalues --   -0.92388  -0.75203  -0.68954  -0.63027  -0.62324
 Alpha  occ. eigenvalues --   -0.56307  -0.50409  -0.46405  -0.45336  -0.41800
 Alpha  occ. eigenvalues --   -0.39671  -0.36257  -0.33198  -0.32871  -0.32500
 Alpha  occ. eigenvalues --   -0.31219  -0.29595  -0.28449  -0.27450  -0.26624
 Alpha  occ. eigenvalues --   -0.26454  -0.24620  -0.23166  -0.22955  -0.15160
 Alpha  occ. eigenvalues --   -0.14463  -0.13151   0.04903
 Alpha virt. eigenvalues --    0.06691   0.07193   0.08515   0.08814   0.09978
 Alpha virt. eigenvalues --    0.10029   0.10249   0.10803   0.11316   0.11837
 Alpha virt. eigenvalues --    0.12118   0.12850   0.13275   0.13859   0.16032

  Beta  occ. eigenvalues --  -18.98921 -10.12221 -10.08253 -10.07139 -10.06881
  Beta  occ. eigenvalues --  -10.06631 -10.06445 -10.06429 -10.06395 -10.06162
  Beta  occ. eigenvalues --   -0.91935  -0.75151  -0.68923  -0.62933  -0.62213
  Beta  occ. eigenvalues --   -0.56233  -0.50161  -0.46251  -0.45177  -0.41714
  Beta  occ. eigenvalues --   -0.39611  -0.36148  -0.33055  -0.32741  -0.32401
  Beta  occ. eigenvalues --   -0.31169  -0.29272  -0.28009  -0.27305  -0.26457
  Beta  occ. eigenvalues --   -0.26341  -0.24563  -0.23113  -0.22432  -0.15116
  Beta  occ. eigenvalues --   -0.14393  -0.12988
  Beta virt. eigenvalues --    0.07305   0.07947   0.08795   0.09160   0.09467
  Beta virt. eigenvalues --    0.10396   0.10495   0.10595   0.11015   0.11601
  Beta virt. eigenvalues --    0.12122   0.12530   0.13213   0.13468   0.13969

 Mulliken charges and spin densities:
               1          2
     1  C    1.831460  -2.562523
     2  C   -1.349969   1.341320
     3  C   -0.046266  -0.229391
     4  C    0.776950  -0.107955
     5  C   -0.517357  -0.091749
     6  C    0.709037  -0.483953
     7  C    0.998894  -1.794168
     8  C   -0.651672   0.764351
     9  C   -0.240261   0.007671
    10  O   -0.282403   0.064106
    11  H   -0.114966   0.240625
    12  H   -0.250538   0.391093
    13  H   -0.251235   0.396000
    14  H   -0.226178   0.402964
    15  H    0.097904   0.065941
    16  H    0.156498   0.019007
    17  H   -0.562859   0.734791
    18  H   -0.887183   1.075090
    19  H   -0.100451   0.241858
    20  H   -0.298436   0.452000
    21  H    0.176262   0.059156
    22  H    0.032768   0.013766
 Sum of Mulliken charges =  -1.00000   1.00000

 Dipole moment (field-independent basis, Debye):
    X=              0.8277    Y=             -2.6295    Z=             -1.6346  Tot=              3.2049
 Quadrupole moment (field-independent basis, Debye-Ang):
   XX=           -124.1517   YY=           -114.1911   ZZ=            -83.1471
   XY=              1.9539   XZ=             -1.4692   YZ=              2.1797

 Summary of Natural Population Analysis:

                                       Natural Population
                Natural  -----------------------------------------------
    Atom  No    Charge         Core      Valence    Rydberg      Total
 -----------------------------------------------------------------------
      C    1   -0.29891      0.99966     2.29312    0.00613     3.29891
      C    2   -0.08802      0.99952     2.07996    0.00855     3.08802
      C    3   -0.09200      0.99950     2.08198    0.01052     3.09200
      C    4   -0.13098      0.99956     2.11994    0.01148     3.13098
      C    5   -0.09410      0.99951     2.08310    0.01149     3.09410
      C    6   -0.08561      0.99951     2.07626    0.00984     3.08561
      C    7   -0.19976      0.99962     2.19036    0.00978     3.19976
      C    8   -0.14851      0.99957     2.13765    0.01129     3.14851
      C    9    0.25251      0.99969     1.72581    0.02199     2.74749
      O   10   -0.26052      0.99988     3.25407    0.00657     4.26052
      H   11    0.09773      0.00000     0.40134    0.00092     0.40227
      H   12    0.10276      0.00000     0.39586    0.00138     0.39724
      H   13    0.10246      0.00000     0.39628    0.00126     0.39754
      H   14    0.09539      0.00000     0.40304    0.00157     0.40461
      H   15    0.09343      0.00000     0.40544    0.00113     0.40657
      H   16    0.10104      0.00000     0.39695    0.00202     0.39896
      H   17    0.10466      0.00000     0.39332    0.00202     0.39534
      H   18    0.10067      0.00000     0.39764    0.00168     0.39933
      H   19    0.10377      0.00000     0.39506    0.00117     0.39623
      H   20    0.10158      0.00000     0.39668    0.00174     0.39842
      H   21    0.10677      0.00000     0.39155    0.00169     0.39323
      H   22    0.03562      0.00000     0.46160    0.00278     0.46438
 =======================================================================
   * Total *   -0.00000      9.99600    26.87703    0.12697    37.00000

 Normal termination of Gaussian 16 at Tue Dec  8 13:51:04 2020.
