 Gaussian 16, Revision A.03,

 -----------------------------------------------------------
 # opt freq B3LYP/6-31G(d) empiricaldispersion=gd3bj scf=xqc
 -----------------------------------------------------------

 -------------------------------
 CID_123232932_JID_3665_neutraal
 -------------------------------
 Symbolic Z-matrix:
 Charge =  0 Multiplicity = 1

 SCF Done:  E(RB3LYP) =  -648.490704830     A.U. after   15 cycles
 SCF Done:  E(RB3LYP) =  -648.494530339     A.U. after   12 cycles
 SCF Done:  E(RB3LYP) =  -648.492707382     A.U. after   13 cycles
 SCF Done:  E(RB3LYP) =  -648.494766469     A.U. after   12 cycles
 SCF Done:  E(RB3LYP) =  -648.496031699     A.U. after   12 cycles
 SCF Done:  E(RB3LYP) =  -648.496033260     A.U. after   12 cycles
 SCF Done:  E(RB3LYP) =  -648.496480198     A.U. after   12 cycles
 SCF Done:  E(RB3LYP) =  -648.496666875     A.U. after   12 cycles
 SCF Done:  E(RB3LYP) =  -648.496823870     A.U. after   13 cycles
 SCF Done:  E(RB3LYP) =  -648.496959951     A.U. after   12 cycles
 SCF Done:  E(RB3LYP) =  -648.502309191     A.U. after   11 cycles
 SCF Done:  E(RB3LYP) =  -648.502322735     A.U. after   11 cycles
 SCF Done:  E(RB3LYP) =  -648.502325977     A.U. after   10 cycles
 SCF Done:  E(RB3LYP) =  -648.502326820     A.U. after    8 cycles
 SCF Done:  E(RB3LYP) =  -648.502327062     A.U. after    8 cycles
 Optimization completed.
    -- Stationary point found.
 Normal termination of Gaussian 16 at Mon Dec 14 13:29:47 2020.

 --------------------------------------------------------------------
 #N Geom=AllCheck Guess=TCheck SCRF=Check GenChk RB3LYP/6-31G(d) Freq
 --------------------------------------------------------------------

 Structure from the checkpoint file:  "JID_3665.chk"
 -------------------------------
 CID_123232932_JID_3665_neutraal
 -------------------------------
 Charge =  0 Multiplicity = 1

 SCF Done:  E(RB3LYP) =  -648.502327062     A.U. after    1 cycles

  Exact polarizability: 118.576   6.852  98.544  -3.023   1.665  88.681
 Approx polarizability: 155.133   2.132 136.377  -3.693   7.069 144.403

                      1                      2                      3
                      A                      A                      A
 Frequencies --     32.0561                54.0763                65.1082
 Red. masses --      7.7693                 2.8735                 8.8980
 Frc consts  --      0.0047                 0.0050                 0.0222
 IR Inten    --      1.3276                 0.2215                 1.5877

                      4                      5                      6
                      A                      A                      A
 Frequencies --     91.4671               129.6415               169.6152
 Red. masses --      2.8658                 2.5909                 3.5042
 Frc consts  --      0.0141                 0.0257                 0.0594
 IR Inten    --      0.0426                 2.5154                 1.3558

                      7                      8                      9
                      A                      A                      A
 Frequencies --    186.0255               219.7690               276.2830
 Red. masses --      3.9805                 1.2328                 2.8041
 Frc consts  --      0.0812                 0.0351                 0.1261
 IR Inten    --      4.6172                 1.4828                 6.5273

                     10                     11                     12
                      A                      A                      A
 Frequencies --    307.2215               328.4201               346.7774
 Red. masses --      3.2527                 3.5500                 3.7839
 Frc consts  --      0.1809                 0.2256                 0.2681
 IR Inten    --      3.3630                 1.6120                 7.3916

                     13                     14                     15
                      A                      A                      A
 Frequencies --    419.7504               448.4526               488.0346
 Red. masses --      2.3096                 3.1953                 3.2618
 Frc consts  --      0.2398                 0.3786                 0.4577
 IR Inten    --      6.5912                 0.9506                 5.7514

                     16                     17                     18
                      A                      A                      A
 Frequencies --    524.3464               560.3803               570.6793
 Red. masses --      4.1796                 2.3437                 2.8320
 Frc consts  --      0.6770                 0.4336                 0.5434
 IR Inten    --     11.9282                 9.2362                12.9093

                     19                     20                     21
                      A                      A                      A
 Frequencies --    575.3429               632.0167               689.8899
 Red. masses --      3.7795                 2.7097                 1.5731
 Frc consts  --      0.7371                 0.6377                 0.4411
 IR Inten    --     11.5587                16.0675                81.4940

                     22                     23                     24
                      A                      A                      A
 Frequencies --    738.9780               756.5876               817.2479
 Red. masses --      3.1564                 3.4277                 1.3912
 Frc consts  --      1.0156                 1.1560                 0.5474
 IR Inten    --     16.2439                28.9447                 6.5639

                     25                     26                     27
                      A                      A                      A
 Frequencies --    827.9496               860.2296               891.1927
 Red. masses --      2.4069                 2.8494                 1.4828
 Frc consts  --      0.9721                 1.2423                 0.6938
 IR Inten    --     24.8838                 9.4559                33.4424

                     28                     29                     30
                      A                      A                      A
 Frequencies --    917.4761               940.9910              1000.5153
 Red. masses --      2.3815                 2.9136                 2.4905
 Frc consts  --      1.1811                 1.5200                 1.4689
 IR Inten    --     46.8447                 3.1556                36.8999

                     31                     32                     33
                      A                      A                      A
 Frequencies --   1014.8894              1035.4928              1070.5452
 Red. masses --      1.8082                 1.9168                 2.0743
 Frc consts  --      1.0973                 1.2109                 1.4006
 IR Inten    --     20.2065                 8.4045                14.4666

                     34                     35                     36
                      A                      A                      A
 Frequencies --   1086.7288              1113.4785              1115.7343
 Red. masses --      1.7497                 1.8801                 1.9470
 Frc consts  --      1.2175                 1.3734                 1.4280
 IR Inten    --     10.5171                 0.5774                 7.0319

                     37                     38                     39
                      A                      A                      A
 Frequencies --   1147.7078              1180.4509              1198.7878
 Red. masses --      2.0857                 2.2190                 1.5982
 Frc consts  --      1.6187                 1.8218                 1.3532
 IR Inten    --      0.5820               125.8465                98.5272

                     40                     41                     42
                      A                      A                      A
 Frequencies --   1219.6138              1273.9276              1285.8713
 Red. masses --      1.8822                 2.1278                 1.4775
 Frc consts  --      1.6495                 2.0346                 1.4394
 IR Inten    --     30.3302               133.0491                15.4815

                     43                     44                     45
                      A                      A                      A
 Frequencies --   1297.8040              1317.0218              1353.4027
 Red. masses --      1.1849                 1.3811                 1.5937
 Frc consts  --      1.1758                 1.4115                 1.7199
 IR Inten    --      5.9260                 3.3130                25.6417

                     46                     47                     48
                      A                      A                      A
 Frequencies --   1360.2834              1379.5790              1397.7765
 Red. masses --      1.7257                 1.3753                 1.5059
 Frc consts  --      1.8814                 1.5422                 1.7335
 IR Inten    --     13.1957                 5.3308                 1.1516

                     49                     50                     51
                      A                      A                      A
 Frequencies --   1403.1781              1410.0663              1441.8976
 Red. masses --      1.5770                 1.5403                 1.2930
 Frc consts  --      1.8294                 1.8044                 1.5839
 IR Inten    --      7.4825                 3.9655                26.1321

                     52                     53                     54
                      A                      A                      A
 Frequencies --   1449.8205              1490.1079              1504.9687
 Red. masses --      2.7352                 1.0810                 1.0947
 Frc consts  --      3.3875                 1.4142                 1.4608
 IR Inten    --    132.9633                 8.6622                14.4790

                     55                     56                     57
                      A                      A                      A
 Frequencies --   1517.0559              1523.5572              1526.9904
 Red. masses --      1.0823                 1.0397                 1.1015
 Frc consts  --      1.4675                 1.4220                 1.5133
 IR Inten    --      6.7352                 4.3545                 5.6283

                     58                     59                     60
                      A                      A                      A
 Frequencies --   1530.2801              1547.6552              1770.8062
 Red. masses --      1.0531                 1.3605                10.6795
 Frc consts  --      1.4530                 1.9200                19.7307
 IR Inten    --      7.4701                11.3732               254.6707

                     61                     62                     63
                      A                      A                      A
 Frequencies --   1840.5555              2989.7795              3038.6780
 Red. masses --     10.0187                 1.0739                 1.0726
 Frc consts  --     19.9967                 5.6559                 5.8350
 IR Inten    --    228.1467                55.6537                21.6535

                     64                     65                     66
                      A                      A                      A
 Frequencies --   3051.8950              3053.7949              3063.4286
 Red. masses --      1.0812                 1.0722                 1.0366
 Frc consts  --      5.9332                 5.8913                 5.7315
 IR Inten    --     32.3033                13.1068                32.0855

                     67                     68                     69
                      A                      A                      A
 Frequencies --   3068.2114              3113.2216              3122.8451
 Red. masses --      1.0613                 1.1023                 1.0916
 Frc consts  --      5.8866                 6.2946                 6.2721
 IR Inten    --     26.6534                28.6571                 1.1876

                     70                     71                     72
                      A                      A                      A
 Frequencies --   3126.2583              3129.3962              3145.8034
 Red. masses --      1.0953                 1.1018                 1.1002
 Frc consts  --      6.3072                 6.3576                 6.4150
 IR Inten    --     17.6647                29.1972                20.7794

                     73                     74                     75
                      A                      A                      A
 Frequencies --   3165.1115              3406.8257              3679.9746
 Red. masses --      1.0898                 1.0743                 1.0640
 Frc consts  --      6.4324                 7.3464                 8.4893
 IR Inten    --      2.8400                 7.5053                53.9231

 - Thermochemistry -
 -------------------
 Temperature   298.150 Kelvin.  Pressure   1.00000 Atm.
 Atom     1 has atomic number  6 and mass  12.00000

 Molecular mass:   186.10044 amu.
 Principal axes and moments of inertia in atomic units:
                           1         2         3
     Eigenvalues --  1547.235842844.243403688.25927
           X            0.99775   0.06700  -0.00278
           Y           -0.06699   0.99775   0.00258
           Z            0.00295  -0.00239   0.99999
 This molecule is an asymmetric top.
 Rotational symmetry number  1.
 Warning -- assumption of classical behavior for rotation
           may cause significant error
 Rotational temperatures (Kelvin)      0.05598     0.03045     0.02348
 Rotational constants (GHZ):           1.16643     0.63452     0.48932
 Zero-point vibrational energy     603084.1 (Joules/Mol)
                                  144.14055 (Kcal/Mol)
 Warning -- explicit consideration of  19 degrees of freedom as
           vibrations may cause significant error
 Vibrational temperatures:     46.12    77.80    93.68   131.60   186.53
          (Kelvin)            244.04   267.65   316.20   397.51   442.02
                              472.52   498.94   603.93   645.22   702.17
                              754.42   806.26   821.08   827.79   909.33
                              992.60  1063.22  1088.56  1175.84  1191.23
                             1237.68  1282.23  1320.04  1353.88  1439.52
                             1460.20  1489.84  1540.28  1563.56  1602.05
                             1605.29  1651.30  1698.41  1724.79  1754.75
                             1832.90  1850.08  1867.25  1894.90  1947.24
                             1957.14  1984.91  2011.09  2018.86  2028.77
                             2074.57  2085.97  2143.93  2165.31  2182.71
                             2192.06  2197.00  2201.73  2226.73  2547.80
                             2648.15  4301.63  4371.98  4391.00  4393.73
                             4407.59  4414.47  4479.23  4493.08  4497.99
                             4502.50  4526.11  4553.89  4901.66  5294.66

 Zero-point correction=                           0.229703 (Hartree/Particle)
 Thermal correction to Energy=                    0.242560
 Thermal correction to Enthalpy=                  0.243504
 Thermal correction to Gibbs Free Energy=         0.189475
 Sum of electronic and zero-point Energies=           -648.272624
 Sum of electronic and thermal Energies=              -648.259767
 Sum of electronic and thermal Enthalpies=            -648.258823
 Sum of electronic and thermal Free Energies=         -648.312852

                     E (Thermal)             CV                S
                      KCal/Mol        Cal/Mol-Kelvin    Cal/Mol-Kelvin
 Total                  152.209             48.042            113.714
 Electronic               0.000              0.000              0.000
 Translational            0.889              2.981             41.569
 Rotational               0.889              2.981             31.163
 Vibrational            150.431             42.080             40.982
 Vibration     1          0.594              1.983              5.698
 Vibration     2          0.596              1.976              4.662
 Vibration     3          0.597              1.971              4.296
 Vibration     4          0.602              1.955              3.628
 Vibration     5          0.612              1.924              2.951
 Vibration     6          0.625              1.880              2.440
 Vibration     7          0.632              1.859              2.267
 Vibration     8          0.647              1.811              1.961
 Vibration     9          0.678              1.717              1.557
 Vibration    10          0.697              1.660              1.377
 Vibration    11          0.712              1.619              1.268
 Vibration    12          0.725              1.582              1.181
 Vibration    13          0.782              1.427              0.893
 Vibration    14          0.807              1.364              0.800
 Vibration    15          0.844              1.277              0.689
 Vibration    16          0.879              1.196              0.600
 Vibration    17          0.916              1.117              0.523
 Vibration    18          0.927              1.095              0.503
 Vibration    19          0.932              1.085              0.494

 Optimization completed.
    -- Stationary point found.
 Normal termination of Gaussian 16 at Mon Dec 14 13:36:30 2020.

 ----------------------------------------------------------------------
 # B3LYP/6-311++G(d,p) empiricaldispersion=gd3bj scf=xqc pop=npa geom=c
 heck
 ----------------------------------------------------------------------

 ---------------------------------------
 CID_123232932_JID_3665_Energie_neutraal
 ---------------------------------------
 Structure from the checkpoint file:  "JID_3665.chk"
 Charge =  0 Multiplicity = 1

 SCF Done:  E(RB3LYP) =  -648.700718948     A.U. after   15 cycles
 Normal termination of Gaussian 16 at Mon Dec 14 13:39:23 2020.

 ----------------------------------------------------------------------
 # B3LYP/6-311++G(d,p) empiricaldispersion=gd3bj scf=xqc pop=npa geom=c
 heck
 ----------------------------------------------------------------------

 -------------------------------------
 CID_123232932_JID_3665_Energie_kation
 -------------------------------------
 Structure from the checkpoint file:  "JID_3665.chk"
 Charge =  1 Multiplicity = 2

 SCF Done:  E(UB3LYP) =  -648.372829546     A.U. after   33 cycles
 SCF Done:  E(UB3LYP) =  -648.372829546     a.u. after    1 cycles
 Normal termination of Gaussian 16 at Mon Dec 14 13:48:17 2020.
 Gaussian 16:  ES64L-G16RevA.03 25-Dec-2016

 ----------------------------------------------------------------------
 # B3LYP/6-311++G(d,p) empiricaldispersion=gd3bj scf=xqc pop=npa geom=c
 heck
 ----------------------------------------------------------------------

 ------------------------------------
 CID_123232932_JID_3665_Energie_anion
 ------------------------------------
 Structure from the checkpoint file:  "JID_3665.chk"
 Charge = -1 Multiplicity = 2

                         Standard orientation:
 ---------------------------------------------------------------------
 Center     Atomic      Atomic             Coordinates (Angstroms)
 Number     Number       Type             X           Y           Z
 ---------------------------------------------------------------------
      1          6           0        3.735445    0.830671   -0.115763
      2          6           0        2.358673    0.598188    0.501795
      3          6           0        1.665337   -0.607371   -0.116196
      4          8           0        2.211937   -1.349523   -0.922636
      5          7           0        0.360807   -0.840528    0.280654
      6          6           0       -0.366365   -2.038635   -0.129272
      7          6           0       -1.773485   -1.660391   -0.598322
      8          6           0       -2.474012   -0.784135    0.448428
      9          6           0       -1.574002    0.393458    0.857678
     10          7           0       -0.227039   -0.027820    1.269207
     11          6           0       -1.498095    1.437291   -0.257625
     12          8           0       -2.272168    1.503333   -1.186574
     13          8           0       -0.505127    2.334402   -0.075600
     14          1           0        4.374557   -0.048494    0.002990
     15          1           0        4.225353    1.687465    0.359077
     16          1           0        3.655330    1.028844   -1.188954
     17          1           0        2.438540    0.429837    1.583897
     18          1           0        1.711301    1.473039    0.398204
     19          1           0       -0.423898   -2.733694    0.725004
     20          1           0        0.220421   -2.513761   -0.915254
     21          1           0       -2.357655   -2.568023   -0.787285
     22          1           0       -1.704276   -1.110917   -1.543013
     23          1           0       -3.427828   -0.409277    0.068457
     24          1           0       -2.683122   -1.375344    1.350554
     25          1           0       -2.003709    0.913960    1.724548
     26          1           0       -0.308525   -0.571017    2.132569
     27          1           0       -0.570969    2.955667   -0.825674
 ---------------------------------------------------------------------

 SCF Done:  E(UB3LYP) =  -648.695171306     A.U. after   32 cycles

 The electronic state is 2-A.
 Alpha  occ. eigenvalues --  -19.06463 -19.00463 -18.97955 -14.25215 -14.23125
 Alpha  occ. eigenvalues --  -10.18951 -10.16133 -10.10654 -10.09347 -10.06616
 Alpha  occ. eigenvalues --  -10.06427 -10.06131 -10.06002  -1.00496  -0.93850
 Alpha  occ. eigenvalues --   -0.91340  -0.88694  -0.73476  -0.69706  -0.66910
 Alpha  occ. eigenvalues --   -0.60818  -0.57799  -0.53720  -0.51236  -0.47132
 Alpha  occ. eigenvalues --   -0.45575  -0.40255  -0.39598  -0.38700  -0.37515
 Alpha  occ. eigenvalues --   -0.36853  -0.35425  -0.34470  -0.32779  -0.32190
 Alpha  occ. eigenvalues --   -0.31510  -0.30657  -0.28432  -0.27953  -0.27132
 Alpha  occ. eigenvalues --   -0.26261  -0.25667  -0.24117  -0.23633  -0.22904
 Alpha  occ. eigenvalues --   -0.21874  -0.17912  -0.16139  -0.14117  -0.13804
 Alpha  occ. eigenvalues --    0.04475
 Alpha virt. eigenvalues --    0.06974   0.07969   0.08319   0.09399   0.10005
 Alpha virt. eigenvalues --    0.10408   0.10826   0.11312   0.11787   0.12327
 Alpha virt. eigenvalues --    0.12778   0.13268   0.13298   0.14418   0.15358

  Beta  occ. eigenvalues --  -19.06431 -19.00388 -18.97932 -14.25223 -14.23065
  Beta  occ. eigenvalues --  -10.18820 -10.16115 -10.10639 -10.09327 -10.06607
  Beta  occ. eigenvalues --  -10.06423 -10.06128 -10.05969  -1.00368  -0.93810
  Beta  occ. eigenvalues --   -0.91218  -0.88641  -0.73392  -0.69660  -0.66884
  Beta  occ. eigenvalues --   -0.60679  -0.57689  -0.53671  -0.51155  -0.47066
  Beta  occ. eigenvalues --   -0.45461  -0.40099  -0.39552  -0.38615  -0.37416
  Beta  occ. eigenvalues --   -0.36665  -0.35348  -0.34440  -0.32721  -0.32011
  Beta  occ. eigenvalues --   -0.31470  -0.30553  -0.28353  -0.27913  -0.27061
  Beta  occ. eigenvalues --   -0.26238  -0.25616  -0.24070  -0.23543  -0.22842
  Beta  occ. eigenvalues --   -0.21588  -0.17831  -0.16091  -0.14078  -0.13734
  Beta virt. eigenvalues --    0.07016   0.07859   0.08268   0.09015   0.10000
  Beta virt. eigenvalues --    0.10555   0.10858   0.11172   0.11726   0.12142
  Beta virt. eigenvalues --    0.12662   0.12923   0.13399   0.13684   0.14895

 Mulliken charges and spin densities:
               1          2
     1  C   -0.442678  -0.259265
     2  C    0.192483  -0.230110
     3  C    0.003591   0.024314
     4  O   -0.331362   0.005598
     5  N   -0.120911   0.052581
     6  C    0.486464  -0.928551
     7  C   -0.737320   0.550875
     8  C    1.194915  -1.771467
     9  C    0.086741   0.356260
    10  N    0.175241  -0.267950
    11  C    0.344726  -0.679661
    12  O   -0.278810   0.022707
    13  O   -0.172373   0.001047
    14  H    0.132531   0.019843
    15  H    0.082113   0.037008
    16  H    0.117410   0.032007
    17  H   -0.050577   0.216183
    18  H    0.248792  -0.010319
    19  H   -0.394834   0.567736
    20  H    0.194914  -0.025601
    21  H   -0.003462   0.159481
    22  H    0.159237   0.018619
    23  H   -0.022579   0.212487
    24  H   -0.367848   0.545504
    25  H   -1.362343   1.642493
    26  H   -0.219227   0.517539
    27  H    0.085167   0.190639
 Sum of Mulliken charges =  -1.00000   1.00000

 Dipole moment (field-independent basis, Debye):
    X=              3.6945    Y=              1.0763    Z=             -4.8267  Tot=              6.1729
 Quadrupole moment (field-independent basis, Debye-Ang):
   XX=           -125.7084   YY=           -109.7735   ZZ=           -119.7208
   XY=              6.3704   XZ=             12.1825   YZ=              0.5782

 Summary of Natural Population Analysis:

                                       Natural Population
                Natural  -----------------------------------------------
    Atom  No    Charge         Core      Valence    Rydberg      Total
 -----------------------------------------------------------------------
      C    1   -0.28401      0.99967     2.27951    0.00483     3.28401
      C    2   -0.23999      0.99960     2.23275    0.00765     3.23999
      C    3    0.35302      0.99965     1.62370    0.02363     2.64698
      O    4   -0.32952      0.99988     3.32477    0.00487     4.32952
      N    5   -0.17608      0.99962     2.66366    0.01280     3.67608
      C    6   -0.09166      0.99960     2.08132    0.01073     3.09166
      C    7   -0.19583      0.99962     2.18831    0.00790     3.19583
      C    8   -0.19860      0.99962     2.18850    0.01049     3.19860
      C    9   -0.05969      0.99955     2.04409    0.01605     3.05969
      N   10   -0.23534      0.99973     2.72000    0.01561     3.73534
      C   11    0.42191      0.99970     1.55229    0.02610     2.57809
      O   12   -0.30842      0.99987     3.30291    0.00565     4.30842
      O   13   -0.34103      0.99987     3.33432    0.00683     4.34103
      H   14    0.10066      0.00000     0.39833    0.00101     0.39934
      H   15    0.09313      0.00000     0.40612    0.00075     0.40687
      H   16    0.09870      0.00000     0.40038    0.00092     0.40130
      H   17    0.10981      0.00000     0.38900    0.00119     0.39019
      H   18    0.12229      0.00000     0.37597    0.00174     0.37771
      H   19    0.09108      0.00000     0.40744    0.00149     0.40892
      H   20    0.11401      0.00000     0.38489    0.00110     0.38599
      H   21    0.09883      0.00000     0.40035    0.00082     0.40117
      H   22    0.10214      0.00000     0.39656    0.00130     0.39786
      H   23    0.10961      0.00000     0.38925    0.00114     0.39039
      H   24    0.10245      0.00000     0.39438    0.00318     0.39755
      H   25    0.12493      0.00000     0.36625    0.00881     0.37507
      H   26    0.18043      0.00000     0.30807    0.01150     0.31957
      H   27    0.23717      0.00000     0.25933    0.00350     0.26283
 =======================================================================
   * Total *    0.00000     12.99598    36.81243    0.19158    50.00000

 Normal termination of Gaussian 16 at Mon Dec 14 13:56:55 2020.
