 Gaussian 16, Revision A.03,

 -----------------------------------------------------------
 # opt freq B3LYP/6-31G(d) empiricaldispersion=gd3bj scf=xqc
 -----------------------------------------------------------

 --------------------------------
 CID_104132567_JID_10562_neutraal
 --------------------------------
 Symbolic Z-matrix:
 Charge =  0 Multiplicity = 1

 SCF Done:  E(RB3LYP) =  -904.080333187     A.U. after   15 cycles
 SCF Done:  E(RB3LYP) =  -904.080193181     A.U. after   13 cycles
 SCF Done:  E(RB3LYP) =  -904.082950479     A.U. after   12 cycles
 SCF Done:  E(RB3LYP) =  -904.082382256     A.U. after   13 cycles
 SCF Done:  E(RB3LYP) =  -904.084947826     A.U. after   11 cycles
 SCF Done:  E(RB3LYP) =  -904.085356448     A.U. after   12 cycles
 SCF Done:  E(RB3LYP) =  -904.085544684     A.U. after   12 cycles
 SCF Done:  E(RB3LYP) =  -904.085743899     A.U. after   10 cycles
 SCF Done:  E(RB3LYP) =  -904.086054134     A.U. after   12 cycles
 SCF Done:  E(RB3LYP) =  -904.086232974     A.U. after   12 cycles
 SCF Done:  E(RB3LYP) =  -904.103167699     A.U. after    9 cycles
 SCF Done:  E(RB3LYP) =  -904.103168709     A.U. after    9 cycles
 SCF Done:  E(RB3LYP) =  -904.103169102     A.U. after    8 cycles
 SCF Done:  E(RB3LYP) =  -904.103169997     A.U. after    8 cycles
 SCF Done:  E(RB3LYP) =  -904.103170697     A.U. after    9 cycles
 SCF Done:  E(RB3LYP) =  -904.103170720     A.U. after    6 cycles
 Optimization completed.
    -- Stationary point found.
 Normal termination of Gaussian 16 at Sun Dec 13 13:36:08 2020.

 --------------------------------------------------------------------
 #N Geom=AllCheck Guess=TCheck SCRF=Check GenChk RB3LYP/6-31G(d) Freq
 --------------------------------------------------------------------

 Structure from the checkpoint file:  "JID_10562.chk"
 --------------------------------
 CID_104132567_JID_10562_neutraal
 --------------------------------
 Charge =  0 Multiplicity = 1

 SCF Done:  E(RB3LYP) =  -904.103170720     A.U. after    1 cycles

  Exact polarizability: 230.065   2.967 200.660  -2.600   0.657 119.890
 Approx polarizability: 312.712  -9.016 296.272  -4.693  -1.102 181.517

                      1                      2                      3
                      A                      A                      A
 Frequencies --     22.5153                36.9045                39.7647
 Red. masses --      3.5439                 2.7117                 6.0104
 Frc consts  --      0.0011                 0.0022                 0.0056
 IR Inten    --      0.0667                 0.2721                 0.0232

                      4                      5                      6
                      A                      A                      A
 Frequencies --     43.5122                54.7463                61.4376
 Red. masses --      2.2851                 6.6323                 3.1870
 Frc consts  --      0.0025                 0.0117                 0.0071
 IR Inten    --      0.0328                 1.6628                 0.2606

                      7                      8                      9
                      A                      A                      A
 Frequencies --    109.4297               130.4859               145.6727
 Red. masses --      3.5284                 3.3308                 4.8120
 Frc consts  --      0.0249                 0.0334                 0.0602
 IR Inten    --      0.0901                 0.4669                 0.3829

                     10                     11                     12
                      A                      A                      A
 Frequencies --    162.7057               179.8777               199.1095
 Red. masses --      3.8015                 2.2213                 2.3587
 Frc consts  --      0.0593                 0.0423                 0.0551
 IR Inten    --      0.2404                 0.4167                 0.9421

                     13                     14                     15
                      A                      A                      A
 Frequencies --    214.1619               226.6595               251.4775
 Red. masses --      2.5443                 1.9449                 1.6408
 Frc consts  --      0.0688                 0.0589                 0.0611
 IR Inten    --      1.0346                 0.8334                 1.0527

                     16                     17                     18
                      A                      A                      A
 Frequencies --    264.5597               304.3632               307.7602
 Red. masses --      2.1264                 2.1568                 3.1073
 Frc consts  --      0.0877                 0.1177                 0.1734
 IR Inten    --      2.6568                 1.4568                 2.8723

                     19                     20                     21
                      A                      A                      A
 Frequencies --    323.9656               350.1794               374.3131
 Red. masses --      3.3289                 3.0758                 4.3153
 Frc consts  --      0.2059                 0.2222                 0.3562
 IR Inten    --      1.1291                 0.3609                 0.5997

                     22                     23                     24
                      A                      A                      A
 Frequencies --    394.1144               407.7375               464.3907
 Red. masses --      2.2129                 4.1206                 3.1950
 Frc consts  --      0.2025                 0.4036                 0.4060
 IR Inten    --      0.3333                 1.1359                 4.7414

                     25                     26                     27
                      A                      A                      A
 Frequencies --    495.8636               504.0168               522.9262
 Red. masses --      3.4631                 2.7248                 3.2438
 Frc consts  --      0.5017                 0.4078                 0.5226
 IR Inten    --     14.2678                 0.3922                 7.0482

                     28                     29                     30
                      A                      A                      A
 Frequencies --    565.0669               593.6854               623.2514
 Red. masses --      4.3031                 3.4104                 3.1483
 Frc consts  --      0.8095                 0.7082                 0.7205
 IR Inten    --      3.6838                 4.8791                19.0722

                     31                     32                     33
                      A                      A                      A
 Frequencies --    641.1042               657.5043               677.1109
 Red. masses --      1.4313                 3.2879                 4.0074
 Frc consts  --      0.3466                 0.8375                 1.0825
 IR Inten    --     76.4727                21.8500                 3.5240

                     34                     35                     36
                      A                      A                      A
 Frequencies --    690.3369               757.8266               781.0929
 Red. masses --      3.9688                 3.3513                 3.3824
 Frc consts  --      1.1144                 1.1340                 1.2158
 IR Inten    --     40.0633                 1.9560                43.1336

                     37                     38                     39
                      A                      A                      A
 Frequencies --    781.5201               806.1324               812.1291
 Red. masses --      1.7030                 1.2770                 1.8351
 Frc consts  --      0.6128                 0.4889                 0.7131
 IR Inten    --     18.7932                 3.6928                 2.2499

                     40                     41                     42
                      A                      A                      A
 Frequencies --    826.5588               859.5390               884.0703
 Red. masses --      1.6097                 2.4391                 1.8022
 Frc consts  --      0.6480                 1.0617                 0.8299
 IR Inten    --      4.0080                 1.6079                 4.8974

                     43                     44                     45
                      A                      A                      A
 Frequencies --    893.1391               900.9677               905.6421
 Red. masses --      1.5052                 3.4771                 1.5594
 Frc consts  --      0.7074                 1.6630                 0.7536
 IR Inten    --      4.2933                 5.6212                 8.3820

                     46                     47                     48
                      A                      A                      A
 Frequencies --    929.5241               954.6895               962.6761
 Red. masses --      1.8973                 2.3028                 1.9992
 Frc consts  --      0.9659                 1.2366                 1.0916
 IR Inten    --      4.3575                 2.8995                10.8813

                     49                     50                     51
                      A                      A                      A
 Frequencies --    997.1862              1012.8100              1034.7012
 Red. masses --      2.6459                 5.5958                 1.8314
 Frc consts  --      1.5502                 3.3819                 1.1552
 IR Inten    --      9.1242                 4.0082                 6.1632

                     52                     53                     54
                      A                      A                      A
 Frequencies --   1039.8784              1044.5827              1064.1514
 Red. masses --      2.9926                 1.8749                 2.1190
 Frc consts  --      1.9066                 1.2053                 1.4138
 IR Inten    --     15.9176                 2.5751                67.6022

                     55                     56                     57
                      A                      A                      A
 Frequencies --   1084.9153              1088.0034              1100.5042
 Red. masses --      1.9791                 2.2408                 1.7422
 Frc consts  --      1.3725                 1.5628                 1.2431
 IR Inten    --     39.5683                49.8676                 3.0893

                     58                     59                     60
                      A                      A                      A
 Frequencies --   1104.9484              1111.4088              1122.0317
 Red. masses --      1.6097                 1.2951                 2.4087
 Frc consts  --      1.1579                 0.9425                 1.7867
 IR Inten    --      8.3718                 1.0489                58.8993

                     61                     62                     63
                      A                      A                      A
 Frequencies --   1133.5394              1184.6478              1189.8715
 Red. masses --      1.5603                 1.7194                 2.2751
 Frc consts  --      1.1812                 1.4217                 1.8978
 IR Inten    --     11.2036                 9.5535                31.8586

                     64                     65                     66
                      A                      A                      A
 Frequencies --   1197.0384              1232.6087              1244.5528
 Red. masses --      1.9645                 1.4803                 1.5787
 Frc consts  --      1.6585                 1.3251                 1.4407
 IR Inten    --    265.9142                82.2540                 0.8007

                     67                     68                     69
                      A                      A                      A
 Frequencies --   1280.7482              1291.7222              1296.4680
 Red. masses --      1.3062                 1.2740                 1.3752
 Frc consts  --      1.2624                 1.2524                 1.3618
 IR Inten    --      1.5102                 4.8822                 3.1107

                     70                     71                     72
                      A                      A                      A
 Frequencies --   1311.0844              1319.5413              1329.6519
 Red. masses --      1.3032                 2.7108                 1.2866
 Frc consts  --      1.3199                 2.7810                 1.3402
 IR Inten    --     19.3793                66.6932                 1.6674

                     73                     74                     75
                      A                      A                      A
 Frequencies --   1351.6907              1363.0395              1371.9946
 Red. masses --      2.0200                 1.2974                 1.2936
 Frc consts  --      2.1745                 1.4201                 1.4347
 IR Inten    --     24.4119                 0.1433                50.5421

                     76                     77                     78
                      A                      A                      A
 Frequencies --   1381.4034              1381.9217              1390.6762
 Red. masses --      1.4578                 1.8926                 1.5173
 Frc consts  --      1.6390                 2.1295                 1.7289
 IR Inten    --      0.9044                34.5052                28.2820

                     79                     80                     81
                      A                      A                      A
 Frequencies --   1398.9469              1400.9458              1420.9614
 Red. masses --      1.4423                 1.5025                 1.7998
 Frc consts  --      1.6630                 1.7374                 2.1411
 IR Inten    --      0.3755                56.8730               148.3688

                     82                     83                     84
                      A                      A                      A
 Frequencies --   1425.9219              1432.7799              1437.7092
 Red. masses --      1.4689                 1.4508                 1.4661
 Frc consts  --      1.7597                 1.7548                 1.7855
 IR Inten    --     16.7562                48.6730                14.4117

                     85                     86                     87
                      A                      A                      A
 Frequencies --   1440.3095              1469.3863              1491.1309
 Red. masses --      1.6780                 3.4514                 3.3858
 Frc consts  --      2.0509                 4.3906                 4.4356
 IR Inten    --     75.8493               207.0218                23.3321

                     88                     89                     90
                      A                      A                      A
 Frequencies --   1510.9409              1512.2628              1518.2463
 Red. masses --      1.0889                 1.1165                 1.0892
 Frc consts  --      1.4647                 1.5044                 1.4793
 IR Inten    --      0.3508                 4.7197                 2.4536

                     91                     92                     93
                      A                      A                      A
 Frequencies --   1524.0913              1526.0405              1527.3172
 Red. masses --      1.0833                 1.0438                 1.0526
 Frc consts  --      1.4826                 1.4322                 1.4467
 IR Inten    --      6.3851                 7.6511                 6.3065

                     94                     95                     96
                      A                      A                      A
 Frequencies --   1529.2112              1537.3197              1539.8225
 Red. masses --      1.0732                 1.0913                 1.0764
 Frc consts  --      1.4786                 1.5195                 1.5037
 IR Inten    --      0.2827                 6.2897                 4.4731

                     97                     98                     99
                      A                      A                      A
 Frequencies --   1545.6650              1625.0097              1662.4955
 Red. masses --      1.0705                 9.5408                 6.1395
 Frc consts  --      1.5069                14.8439                 9.9978
 IR Inten    --      7.4742               226.1920                89.2603

                    100                    101                    102
                      A                      A                      A
 Frequencies --   1828.5934              3021.8764              3027.6229
 Red. masses --     10.0509                 1.0724                 1.0680
 Frc consts  --     19.8012                 5.7698                 5.7682
 IR Inten    --    266.5047                 8.8999                19.8399

                    103                    104                    105
                      A                      A                      A
 Frequencies --   3033.6279              3034.2850              3039.6689
 Red. masses --      1.0779                 1.0669                 1.0622
 Frc consts  --      5.8446                 5.7873                 5.7823
 IR Inten    --     35.9723                27.8967                32.1572

                    106                    107                    108
                      A                      A                      A
 Frequencies --   3048.7155              3052.3607              3055.2465
 Red. masses --      1.0420                 1.0604                 1.0361
 Frc consts  --      5.7062                 5.8212                 5.6985
 IR Inten    --     34.4588                18.0530                33.6220

                    109                    110                    111
                      A                      A                      A
 Frequencies --   3057.2448              3075.0665              3078.0284
 Red. masses --      1.0688                 1.0932                 1.0909
 Frc consts  --      5.8859                 6.0903                 6.0894
 IR Inten    --     14.8752                35.3119                29.5682

                    112                    113                    114
                      A                      A                      A
 Frequencies --   3079.0606              3080.6033              3087.8424
 Red. masses --      1.0932                 1.0961                 1.0947
 Frc consts  --      6.1066                 6.1286                 6.1496
 IR Inten    --     24.1372                57.0251                70.3485

                    115                    116                    117
                      A                      A                      A
 Frequencies --   3095.3591              3106.5128              3115.7607
 Red. masses --      1.1016                 1.1006                 1.1002
 Frc consts  --      6.2184                 6.2576                 6.2926
 IR Inten    --     11.2392                57.8564                32.8055

                    118                    119                    120
                      A                      A                      A
 Frequencies --   3122.9758              3137.7509              3158.6096
 Red. masses --      1.1033                 1.1028                 1.0974
 Frc consts  --      6.3401                 6.3971                 6.4508
 IR Inten    --     37.2242                31.9272                24.4629

                    121                    122                    123
                      A                      A                      A
 Frequencies --   3238.8676              3255.7296              3698.8092
 Red. masses --      1.0916                 1.0922                 1.0642
 Frc consts  --      6.7466                 6.8212                 8.5779
 IR Inten    --      1.6971                 1.0837                78.9075

 - Thermochemistry -
 -------------------
 Temperature   298.150 Kelvin.  Pressure   1.00000 Atm.
 Atom     1 has atomic number  6 and mass  12.00000

 Molecular mass:   277.16779 amu.
 Principal axes and moments of inertia in atomic units:
                           1         2         3
     Eigenvalues --  3620.804139466.05485**********
           X            0.99980  -0.01989   0.00258
           Y            0.01990   0.99980  -0.00140
           Z           -0.00255   0.00145   1.00000
 This molecule is an asymmetric top.
 Rotational symmetry number  1.
 Warning -- assumption of classical behavior for rotation
           may cause significant error
 Rotational temperatures (Kelvin)      0.02392     0.00915     0.00708
 Rotational constants (GHZ):           0.49844     0.19065     0.14752
 Zero-point vibrational energy     981896.5 (Joules/Mol)
                                  234.67889 (Kcal/Mol)
 Warning -- explicit consideration of  29 degrees of freedom as
           vibrations may cause significant error
 Vibrational temperatures:     32.39    53.10    57.21    62.60    78.77
          (Kelvin)             88.39   157.44   187.74   209.59   234.10
                              258.80   286.47   308.13   326.11   361.82
                              380.64   437.91   442.80   466.11   503.83
                              538.55   567.04   586.64   668.15   713.44
                              725.17   752.37   813.01   854.18   896.72
                              922.41   946.00   974.21   993.24  1090.34
                             1123.82  1124.43  1159.84  1168.47  1189.23
                             1236.68  1271.98  1285.03  1296.29  1303.02
                             1337.38  1373.59  1385.08  1434.73  1457.21
                             1488.70  1496.15  1502.92  1531.08  1560.95
                             1565.39  1583.38  1589.77  1599.07  1614.35
                             1630.91  1704.44  1711.96  1722.27  1773.45
                             1790.63  1842.71  1858.50  1865.33  1886.36
                             1898.53  1913.07  1944.78  1961.11  1973.99
                             1987.53  1988.28  2000.87  2012.77  2015.65
                             2044.45  2051.58  2061.45  2068.54  2072.28
                             2114.12  2145.40  2173.91  2175.81  2184.42
                             2192.83  2195.63  2197.47  2200.19  2211.86
                             2215.46  2223.87  2338.03  2391.96  2630.94
                             4347.81  4356.07  4364.71  4365.66  4373.41
                             4386.42  4391.67  4395.82  4398.69  4424.33
                             4428.60  4430.08  4432.30  4442.72  4453.53
                             4469.58  4482.88  4493.27  4514.52  4544.53
                             4660.01  4684.27  5321.76

 Zero-point correction=                           0.373985 (Hartree/Particle)
 Thermal correction to Energy=                    0.393755
 Thermal correction to Enthalpy=                  0.394699
 Thermal correction to Gibbs Free Energy=         0.323782
 Sum of electronic and zero-point Energies=           -903.729186
 Sum of electronic and thermal Energies=              -903.709416
 Sum of electronic and thermal Enthalpies=            -903.708472
 Sum of electronic and thermal Free Energies=         -903.779388

                     E (Thermal)             CV                S
                      KCal/Mol        Cal/Mol-Kelvin    Cal/Mol-Kelvin
 Total                  247.085             75.111            149.257
 Electronic               0.000              0.000              0.000
 Translational            0.889              2.981             42.757
 Rotational               0.889              2.981             34.394
 Vibrational            245.307             69.149             72.106
 Vibration     1          0.593              1.985              6.399
 Vibration     2          0.594              1.982              5.419
 Vibration     3          0.594              1.981              5.271
 Vibration     4          0.595              1.980              5.092
 Vibration     5          0.596              1.976              4.638
 Vibration     6          0.597              1.973              4.410
 Vibration     7          0.606              1.942              3.279
 Vibration     8          0.612              1.923              2.939
 Vibration     9          0.617              1.907              2.728
 Vibration    10          0.623              1.888              2.518
 Vibration    11          0.629              1.867              2.330
 Vibration    12          0.637              1.841              2.141
 Vibration    13          0.644              1.819              2.008
 Vibration    14          0.650              1.800              1.905
 Vibration    15          0.663              1.760              1.720
 Vibration    16          0.671              1.738              1.631
 Vibration    17          0.695              1.665              1.393
 Vibration    18          0.698              1.659              1.374
 Vibration    19          0.709              1.628              1.290
 Vibration    20          0.727              1.575              1.165
 Vibration    21          0.745              1.525              1.062
 Vibration    22          0.761              1.483              0.985
 Vibration    23          0.772              1.453              0.935
 Vibration    24          0.822              1.329              0.753
 Vibration    25          0.851              1.259              0.669
 Vibration    26          0.859              1.241              0.648
 Vibration    27          0.878              1.199              0.603
 Vibration    28          0.921              1.107              0.514
 Vibration    29          0.951              1.045              0.461

                           ! Non-Optimized Parameters !
 Normal termination of Gaussian 16 at Sun Dec 13 13:56:57 2020.

 ----------------------------------------------------------------------
 # B3LYP/6-311++G(d,p) empiricaldispersion=gd3bj scf=xqc pop=npa geom=c
 heck
 ----------------------------------------------------------------------

 ----------------------------------------
 CID_104132567_JID_10562_Energie_neutraal
 ----------------------------------------
 Structure from the checkpoint file:  "JID_10562.chk"
 Charge =  0 Multiplicity = 1

 SCF Done:  E(RB3LYP) =  -904.355943568     A.U. after   15 cycles
 Normal termination of Gaussian 16 at Sun Dec 13 14:05:42 2020.

 ----------------------------------------------------------------------
 # B3LYP/6-311++G(d,p) empiricaldispersion=gd3bj scf=xqc pop=npa geom=c
 heck
 ----------------------------------------------------------------------

 --------------------------------------
 CID_104132567_JID_10562_Energie_kation
 --------------------------------------
 Structure from the checkpoint file:  "JID_10562.chk"
 Charge =  1 Multiplicity = 2

 SCF Done:  E(UB3LYP) =  -904.053489970     A.U. after   21 cycles
 Normal termination of Gaussian 16 at Sun Dec 13 14:22:14 2020.
 Gaussian 16:  ES64L-G16RevA.03 25-Dec-2016

 ----------------------------------------------------------------------
 # B3LYP/6-311++G(d,p) empiricaldispersion=gd3bj scf=xqc pop=npa geom=c
 heck
 ----------------------------------------------------------------------

 -------------------------------------
 CID_104132567_JID_10562_Energie_anion
 -------------------------------------
 Structure from the checkpoint file:  "JID_10562.chk"
 Charge = -1 Multiplicity = 2

                         Standard orientation:
 ---------------------------------------------------------------------
 Center     Atomic      Atomic             Coordinates (Angstroms)
 Number     Number       Type             X           Y           Z
 ---------------------------------------------------------------------
      1          6           0       -2.442864    3.198652    0.616295
      2          6           0       -3.317743    2.028728    0.153911
      3          6           0       -2.964968    0.669875    0.800998
      4          6           0       -4.185828   -0.275178    0.854842
      5          6           0       -4.605231   -0.769787   -0.536295
      6          6           0       -3.439950   -1.483472   -1.233439
      7          6           0       -2.187693   -0.596539   -1.285225
      8          6           0       -1.824364   -0.098016    0.114127
      9          8           0       -0.667318    0.768967    0.055780
     10          6           0        0.558980    0.210524   -0.011673
     11          6           0        1.646325    1.102452   -0.060092
     12          6           0        2.917651    0.550840   -0.119619
     13          6           0        3.070981   -0.844277   -0.130153
     14          6           0        1.931602   -1.638696   -0.081750
     15          7           0        0.691385   -1.109602   -0.023920
     16          6           0        2.003983   -3.145817   -0.066433
     17          6           0        1.515229   -3.731228    1.266813
     18          6           0        4.144674    1.394548   -0.173654
     19          8           0        5.277211    0.962144   -0.227151
     20          8           0        3.874356    2.722497   -0.157104
     21          1           0       -2.487788    3.310485    1.706738
     22          1           0       -2.785121    4.140108    0.171142
     23          1           0       -1.398057    3.045126    0.339402
     24          1           0       -4.364440    2.257006    0.397137
     25          1           0       -3.277503    1.954583   -0.939005
     26          1           0       -2.646733    0.868989    1.833724
     27          1           0       -3.940021   -1.145594    1.480025
     28          1           0       -5.019136    0.239084    1.348575
     29          1           0       -4.934354    0.080966   -1.147981
     30          1           0       -5.466220   -1.443792   -0.450195
     31          1           0       -3.723525   -1.789803   -2.247352
     32          1           0       -3.202620   -2.405165   -0.682704
     33          1           0       -2.359409    0.263884   -1.943381
     34          1           0       -1.338569   -1.153206   -1.692302
     35          1           0       -1.560697   -0.962597    0.731999
     36          1           0        1.479507    2.171445   -0.048772
     37          1           0        4.063719   -1.275019   -0.178422
     38          1           0        1.378009   -3.531850   -0.880586
     39          1           0        3.032704   -3.464895   -0.266642
     40          1           0        0.490752   -3.404135    1.468527
     41          1           0        1.533087   -4.826001    1.242788
     42          1           0        2.148132   -3.396647    2.096269
     43          1           0        4.739893    3.169715   -0.195669
 ---------------------------------------------------------------------

 SCF Done:  E(UB3LYP) =  -904.370287410     A.U. after   28 cycles

 The electronic state is 2-A.
 Alpha  occ. eigenvalues --  -19.02073 -19.02061 -18.94425 -14.14267 -10.12723
 Alpha  occ. eigenvalues --  -10.11302 -10.11166 -10.08107 -10.08034 -10.07907
 Alpha  occ. eigenvalues --  -10.07669 -10.07482 -10.06188 -10.06046 -10.05876
 Alpha  occ. eigenvalues --  -10.04811 -10.04756 -10.02250 -10.01746 -10.01200
 Alpha  occ. eigenvalues --   -0.95626  -0.94523  -0.86124  -0.79007  -0.74620
 Alpha  occ. eigenvalues --   -0.68525  -0.66515  -0.65578  -0.64656  -0.63204
 Alpha  occ. eigenvalues --   -0.59074  -0.54334  -0.53144  -0.51375  -0.51182
 Alpha  occ. eigenvalues --   -0.50436  -0.46660  -0.44909  -0.43344  -0.40752
 Alpha  occ. eigenvalues --   -0.39343  -0.36920  -0.35707  -0.35368  -0.34229
 Alpha  occ. eigenvalues --   -0.33502  -0.33447  -0.32767  -0.31994  -0.31588
 Alpha  occ. eigenvalues --   -0.31133  -0.30354  -0.29895  -0.29601  -0.28780
 Alpha  occ. eigenvalues --   -0.28044  -0.26921  -0.26844  -0.25834  -0.25706
 Alpha  occ. eigenvalues --   -0.24773  -0.24626  -0.23705  -0.23303  -0.22881
 Alpha  occ. eigenvalues --   -0.22081  -0.21595  -0.21587  -0.20086  -0.18789
 Alpha  occ. eigenvalues --   -0.17835  -0.13912  -0.12998  -0.12036  -0.09132
 Alpha  occ. eigenvalues --    0.04208
 Alpha virt. eigenvalues --    0.05721   0.07206   0.07554   0.07974   0.08934
 Alpha virt. eigenvalues --    0.09442   0.09635   0.09960   0.10374   0.10802
 Alpha virt. eigenvalues --    0.11554   0.11720   0.12551   0.12624   0.13248

  Beta  occ. eigenvalues --  -19.02050 -19.02007 -18.94074 -14.13880 -10.12451
  Beta  occ. eigenvalues --  -10.11305 -10.11199 -10.08103 -10.08030 -10.07907
  Beta  occ. eigenvalues --  -10.07665 -10.07481 -10.06187 -10.06039 -10.05817
  Beta  occ. eigenvalues --  -10.04818 -10.04742 -10.01975 -10.01732 -10.00965
  Beta  occ. eigenvalues --   -0.95309  -0.94486  -0.85605  -0.78527  -0.74600
  Beta  occ. eigenvalues --   -0.68520  -0.66325  -0.65001  -0.64612  -0.63187
  Beta  occ. eigenvalues --   -0.58842  -0.54102  -0.53023  -0.51174  -0.50919
  Beta  occ. eigenvalues --   -0.50311  -0.46566  -0.44821  -0.43189  -0.40561
  Beta  occ. eigenvalues --   -0.39319  -0.36890  -0.35579  -0.35290  -0.34126
  Beta  occ. eigenvalues --   -0.33377  -0.33181  -0.32674  -0.31944  -0.31395
  Beta  occ. eigenvalues --   -0.31069  -0.29792  -0.29507  -0.28957  -0.28670
  Beta  occ. eigenvalues --   -0.27864  -0.26828  -0.26763  -0.25801  -0.25496
  Beta  occ. eigenvalues --   -0.24665  -0.24519  -0.23522  -0.23215  -0.22829
  Beta  occ. eigenvalues --   -0.22023  -0.21482  -0.21378  -0.20035  -0.18225
  Beta  occ. eigenvalues --   -0.16621  -0.12623  -0.11820  -0.11602  -0.08112
  Beta virt. eigenvalues --    0.05700   0.07125   0.07445   0.07876   0.08831
  Beta virt. eigenvalues --    0.09404   0.09590   0.09835   0.10251   0.10506
  Beta virt. eigenvalues --    0.10712   0.11445   0.11630   0.12477   0.12516

 Mulliken charges and spin densities:
               1          2
     1  C   -0.614217  -0.067110
     2  C   -0.304836   0.012566
     3  C    0.597386   0.130770
     4  C   -0.416554  -0.120332
     5  C   -0.258830  -0.020099
     6  C   -0.441686  -0.052922
     7  C    0.260793  -0.025791
     8  C   -1.021081  -0.098419
     9  O    0.069791   0.001093
    10  C   -0.413852  -0.013130
    11  C   -0.884445   0.227683
    12  C    0.895000   0.052603
    13  C   -0.804143   0.014623
    14  C    0.039728   0.061736
    15  N    0.165159   0.191768
    16  C   -0.391414   0.059942
    17  C   -0.388306  -0.146300
    18  C    0.405850   0.195588
    19  O   -0.418016   0.123961
    20  O   -0.214940   0.015052
    21  H    0.099770   0.008584
    22  H    0.105580   0.006785
    23  H    0.231893  -0.003810
    24  H    0.113229   0.024699
    25  H    0.133067   0.008101
    26  H    0.208154   0.013275
    27  H    0.085649   0.037368
    28  H    0.091952   0.067684
    29  H    0.108509   0.006127
    30  H    0.057762   0.117985
    31  H    0.111896   0.042471
    32  H    0.120043   0.013682
    33  H    0.149867  -0.003267
    34  H    0.182521   0.009292
    35  H    0.282301  -0.036739
    36  H    0.158796  -0.015593
    37  H    0.169418  -0.000722
    38  H    0.071365   0.044847
    39  H    0.154215   0.002667
    40  H    0.093314   0.035835
    41  H    0.055099   0.047715
    42  H    0.093000   0.030779
    43  H    0.261211  -0.001046
 Sum of Mulliken charges =  -1.00000   1.00000

 Dipole moment (field-independent basis, Debye):
    X=             -9.2857    Y=              0.1134    Z=              0.0527  Tot=              9.2865
 Quadrupole moment (field-independent basis, Debye-Ang):
   XX=           -195.3627   YY=           -144.0187   ZZ=           -132.3709
   XY=             -3.0547   XZ=              1.7790   YZ=              0.7346

 Summary of Natural Population Analysis:

                                       Natural Population
                Natural  -----------------------------------------------
    Atom  No    Charge         Core      Valence    Rydberg      Total
 -----------------------------------------------------------------------
      C    1   -0.28492      0.99967     2.28100    0.00426     3.28492
      C    2   -0.19077      0.99963     2.18249    0.00865     3.19077
      C    3   -0.11500      0.99957     2.10478    0.01066     3.11500
      C    4   -0.18514      0.99962     2.17751    0.00801     3.18514
      C    5   -0.19156      0.99963     2.18448    0.00745     3.19156
      C    6   -0.18960      0.99963     2.18253    0.00744     3.18960
      C    7   -0.20442      0.99960     2.19648    0.00834     3.20442
      C    8    0.06131      0.99948     1.92043    0.01879     2.93869
      O    9   -0.29043      0.99984     3.28036    0.01022     4.29043
      C   10    0.26292      0.99946     1.72234    0.01527     2.73708
      C   11   -0.08354      0.99949     2.07616    0.00789     3.08354
      C   12   -0.00771      0.99946     1.99839    0.00986     3.00771
      C   13   -0.11786      0.99948     2.11052    0.00786     3.11786
      C   14    0.10873      0.99955     1.87826    0.01347     2.89127
      N   15   -0.23930      0.99962     2.72896    0.01073     3.73930
      C   16   -0.19732      0.99961     2.18909    0.00862     3.19732
      C   17   -0.28076      0.99967     2.27659    0.00451     3.28076
      C   18    0.42882      0.99967     1.54755    0.02396     2.57118
      O   19   -0.29790      0.99987     3.29089    0.00714     4.29790
      O   20   -0.35435      0.99988     3.34618    0.00829     4.35435
      H   21    0.09095      0.00000     0.40790    0.00115     0.40905
      H   22    0.09035      0.00000     0.40878    0.00087     0.40965
      H   23    0.11389      0.00000     0.38519    0.00092     0.38611
      H   24    0.08912      0.00000     0.40938    0.00150     0.41088
      H   25    0.09595      0.00000     0.40271    0.00134     0.40405
      H   26    0.09841      0.00000     0.39981    0.00177     0.40159
      H   27    0.09592      0.00000     0.40283    0.00124     0.40408
      H   28    0.09579      0.00000     0.40301    0.00120     0.40421
      H   29    0.09261      0.00000     0.40612    0.00127     0.40739
      H   30    0.09502      0.00000     0.40368    0.00130     0.40498
      H   31    0.09593      0.00000     0.40299    0.00108     0.40407
      H   32    0.09436      0.00000     0.40419    0.00145     0.40564
      H   33    0.09254      0.00000     0.40615    0.00130     0.40746
      H   34    0.11639      0.00000     0.38233    0.00128     0.38361
      H   35    0.09907      0.00000     0.39792    0.00301     0.40093
      H   36    0.10382      0.00000     0.39479    0.00139     0.39618
      H   37    0.10581      0.00000     0.39310    0.00108     0.39419
      H   38    0.09572      0.00000     0.40241    0.00187     0.40428
      H   39    0.09344      0.00000     0.40539    0.00117     0.40656
      H   40    0.10152      0.00000     0.39703    0.00144     0.39848
      H   41    0.08747      0.00000     0.41108    0.00145     0.41253
      H   42    0.09471      0.00000     0.40402    0.00127     0.40529
      H   43    0.23002      0.00000     0.26687    0.00312     0.26998
 =======================================================================
   * Total *   -0.00000     19.99241    54.77268    0.23490    75.00000

 Normal termination of Gaussian 16 at Sun Dec 13 14:43:41 2020.
