 Gaussian 16, Revision A.03,

 -----------------------------------------------------------
 # opt freq B3LYP/6-31G(d) empiricaldispersion=gd3bj scf=xqc
 -----------------------------------------------------------

 -------------------------------
 CID_114497975_JID_3693_neutraal
 -------------------------------
 Symbolic Z-matrix:
 Charge =  0 Multiplicity = 1

 SCF Done:  E(RB3LYP) =  -537.064838719     A.U. after   15 cycles
 SCF Done:  E(RB3LYP) =  -537.081876656     A.U. after   13 cycles
 SCF Done:  E(RB3LYP) =  -537.083116929     A.U. after   13 cycles
 SCF Done:  E(RB3LYP) =  -537.083009662     A.U. after   13 cycles
 SCF Done:  E(RB3LYP) =  -537.083559614     A.U. after   12 cycles
 SCF Done:  E(RB3LYP) =  -537.083627363     A.U. after   11 cycles
 SCF Done:  E(RB3LYP) =  -537.083637375     A.U. after   11 cycles
 SCF Done:  E(RB3LYP) =  -537.083647907     A.U. after   11 cycles
 SCF Done:  E(RB3LYP) =  -537.083657344     A.U. after   11 cycles
 SCF Done:  E(RB3LYP) =  -537.083684350     A.U. after   12 cycles
 SCF Done:  E(RB3LYP) =  -537.083869510     A.U. after   12 cycles
 SCF Done:  E(RB3LYP) =  -537.083869601     A.U. after   11 cycles
 SCF Done:  E(RB3LYP) =  -537.083869654     A.U. after   10 cycles
 SCF Done:  E(RB3LYP) =  -537.083869625     A.U. after   11 cycles
 SCF Done:  E(RB3LYP) =  -537.083869664     A.U. after    9 cycles
 Optimization completed on the basis of negligible forces.
    -- Stationary point found.
 Normal termination of Gaussian 16 at Mon Dec 14 13:17:41 2020.

 --------------------------------------------------------------------
 #N Geom=AllCheck Guess=TCheck SCRF=Check GenChk RB3LYP/6-31G(d) Freq
 --------------------------------------------------------------------

 Structure from the checkpoint file:  "JID_3693.chk"
 -------------------------------
 CID_114497975_JID_3693_neutraal
 -------------------------------
 Charge =  0 Multiplicity = 1

 SCF Done:  E(RB3LYP) =  -537.083869664     A.U. after    1 cycles

  Exact polarizability: 197.069 -14.256 126.003  11.316   7.325  76.714
 Approx polarizability: 284.042 -24.277 191.254  26.884  17.159 116.165

                      1                      2                      3
                      A                      A                      A
 Frequencies --      4.7650                34.6286                42.7372
 Red. masses --      3.8050                 3.8357                 1.0431
 Frc consts  --      0.0001                 0.0027                 0.0011
 IR Inten    --      0.6713                 0.0542                 0.0843

                      4                      5                      6
                      A                      A                      A
 Frequencies --     66.3825                90.2259               104.7767
 Red. masses --      2.1799                 3.2816                 3.2343
 Frc consts  --      0.0057                 0.0157                 0.0209
 IR Inten    --      0.4062                 0.0817                 1.4199

                      7                      8                      9
                      A                      A                      A
 Frequencies --    168.7213               214.9400               253.0111
 Red. masses --      3.6947                 2.8075                 1.6678
 Frc consts  --      0.0620                 0.0764                 0.0629
 IR Inten    --      0.6781                 0.2095                 0.5602

                     10                     11                     12
                      A                      A                      A
 Frequencies --    262.3308               293.3398               310.7584
 Red. masses --      1.9863                 2.2414                 3.2784
 Frc consts  --      0.0805                 0.1136                 0.1865
 IR Inten    --      1.8794                 3.6597                 2.5907

                     13                     14                     15
                      A                      A                      A
 Frequencies --    354.8454               397.5629               436.5578
 Red. masses --      3.4364                 4.8070                 3.5660
 Frc consts  --      0.2549                 0.4476                 0.4004
 IR Inten    --      1.5807                 1.9238                 1.5244

                     16                     17                     18
                      A                      A                      A
 Frequencies --    460.7933               531.4758               545.8211
 Red. masses --      3.7008                 6.6624                 5.0948
 Frc consts  --      0.4630                 1.1088                 0.8943
 IR Inten    --      0.2646                 3.8948                 2.1960

                     19                     20                     21
                      A                      A                      A
 Frequencies --    578.2843               615.5365               700.1122
 Red. masses --      4.5872                 4.9094                 6.6199
 Frc consts  --      0.9038                 1.0959                 1.9118
 IR Inten    --      4.3641                 4.8084                 6.5133

                     22                     23                     24
                      A                      A                      A
 Frequencies --    726.8328               788.6190               828.4794
 Red. masses --      2.4529                 1.7419                 1.1691
 Frc consts  --      0.7635                 0.6383                 0.4728
 IR Inten    --     10.1792               122.8561                 1.3520

                     25                     26                     27
                      A                      A                      A
 Frequencies --    878.2020               893.5960               894.2742
 Red. masses --      3.0119                 1.8530                 1.5936
 Frc consts  --      1.3686                 0.8718                 0.7509
 IR Inten    --      1.7116                36.9952                10.2425

                     28                     29                     30
                      A                      A                      A
 Frequencies --    944.1883               962.2029               993.1670
 Red. masses --      1.3276                 1.4382                 1.4701
 Frc consts  --      0.6973                 0.7845                 0.8544
 IR Inten    --      0.2403                 1.0825                 6.1721

                     31                     32                     33
                      A                      A                      A
 Frequencies --   1010.3774              1040.7845              1045.6267
 Red. masses --      1.9147                 3.1929                 3.2123
 Frc consts  --      1.1516                 2.0378                 2.0693
 IR Inten    --      3.9848                 5.9135                 1.6366

                     34                     35                     36
                      A                      A                      A
 Frequencies --   1057.8828              1079.0094              1131.0372
 Red. masses --      2.5854                 1.5229                 2.8566
 Frc consts  --      1.7047                 1.0447                 2.1530
 IR Inten    --      9.8650                 4.4306                26.3883

                     37                     38                     39
                      A                      A                      A
 Frequencies --   1163.2558              1187.0762              1197.6634
 Red. masses --      2.3297                 1.4572                 2.1778
 Frc consts  --      1.8573                 1.2099                 1.8405
 IR Inten    --     23.5615                 8.9330                 9.5877

                     40                     41                     42
                      A                      A                      A
 Frequencies --   1221.9181              1290.2983              1296.9480
 Red. masses --      1.8494                 1.2543                 5.5866
 Frc consts  --      1.6269                 1.2303                 5.5366
 IR Inten    --     14.3291                 4.9929                 2.9487

                     43                     44                     45
                      A                      A                      A
 Frequencies --   1328.4028              1336.8771              1364.0404
 Red. masses --      3.0720                 1.2057                 1.3070
 Frc consts  --      3.1940                 1.2696                 1.4327
 IR Inten    --      6.8181                 7.4823                 3.1429

                     46                     47                     48
                      A                      A                      A
 Frequencies --   1372.1827              1410.6297              1443.5321
 Red. masses --      1.2734                 1.2878                 1.3167
 Frc consts  --      1.4127                 1.5098                 1.6166
 IR Inten    --     56.2966                 5.9993                 7.0910

                     49                     50                     51
                      A                      A                      A
 Frequencies --   1444.6537              1468.6230              1478.9007
 Red. masses --      1.2480                 3.0101                 2.3546
 Frc consts  --      1.5346                 3.8252                 3.0342
 IR Inten    --      0.4883                19.9286                21.2674

                     52                     53                     54
                      A                      A                      A
 Frequencies --   1491.2832              1508.9381              1515.3366
 Red. masses --      1.0738                 1.1352                 1.0438
 Frc consts  --      1.4071                 1.5228                 1.4122
 IR Inten    --      2.7174                14.5795                 6.3011

                     55                     56                     57
                      A                      A                      A
 Frequencies --   1527.8656              1529.9019              1531.6549
 Red. masses --      1.0620                 1.1840                 1.0831
 Frc consts  --      1.4607                 1.6328                 1.4970
 IR Inten    --     15.3300                19.4320                 6.2389

                     58                     59                     60
                      A                      A                      A
 Frequencies --   1553.3329              1617.8242              1649.9820
 Red. masses --      1.0892                 4.5706                 5.6447
 Frc consts  --      1.5485                 7.0483                 9.0541
 IR Inten    --      2.4451                 5.6914                 5.3730

                     61                     62                     63
                      A                      A                      A
 Frequencies --   2337.1780              2972.7334              3040.0102
 Red. masses --     11.8983                 1.0715                 1.0601
 Frc consts  --     38.2928                 5.5789                 5.7722
 IR Inten    --      1.1414                48.3390                34.3512

                     64                     65                     66
                      A                      A                      A
 Frequencies --   3046.6781              3048.6877              3054.6410
 Red. masses --      1.0455                 1.0370                 1.0812
 Frc consts  --      5.7177                 5.6786                 5.9437
 IR Inten    --     17.3162                26.6854                38.6467

                     67                     68                     69
                      A                      A                      A
 Frequencies --   3077.6889              3103.2003              3112.2141
 Red. masses --      1.1028                 1.1013                 1.0992
 Frc consts  --      6.1547                 6.2484                 6.2729
 IR Inten    --     15.6608                16.9575                44.9381

                     70                     71                     72
                      A                      A                      A
 Frequencies --   3129.5791              3133.4329              3163.6692
 Red. masses --      1.1013                 1.1032                 1.0899
 Frc consts  --      6.3552                 6.3821                 6.4269
 IR Inten    --     13.5749                25.7032                35.3392

                     73                     74                     75
                      A                      A                      A
 Frequencies --   3185.8440              3195.3232              3475.8967
 Red. masses --      1.0915                 1.0915                 1.0737
 Frc consts  --      6.5270                 6.5660                 7.6430
 IR Inten    --     14.1332                 6.1100                 0.4875

 - Thermochemistry -
 -------------------
 Temperature   298.150 Kelvin.  Pressure   1.00000 Atm.
 Atom     1 has atomic number  6 and mass  12.00000

 Molecular mass:   174.11570 amu.
 Principal axes and moments of inertia in atomic units:
                           1         2         3
     Eigenvalues --  1181.378155851.272776757.39081
           X            0.99998  -0.00367  -0.00475
           Y            0.00366   0.99999  -0.00144
           Z            0.00476   0.00143   0.99999
 This molecule is an asymmetric top.
 Rotational symmetry number  1.
 Warning -- assumption of classical behavior for rotation
           may cause significant error
 Rotational temperatures (Kelvin)      0.07332     0.01480     0.01282
 Rotational constants (GHZ):           1.52766     0.30844     0.26708
 Zero-point vibrational energy     602617.5 (Joules/Mol)
                                  144.02905 (Kcal/Mol)
 Warning -- explicit consideration of  20 degrees of freedom as
           vibrations may cause significant error
 Vibrational temperatures:      6.86    49.82    61.49    95.51   129.81
          (Kelvin)            150.75   242.75   309.25   364.03   377.44
                              422.05   447.11   510.54   572.00   628.11
                              662.98   764.68   785.31   832.02   885.62
                             1007.31  1045.75  1134.65  1192.00  1263.54
                             1285.69  1286.66  1358.48  1384.40  1428.95
                             1453.71  1497.46  1504.42  1522.06  1552.45
                             1627.31  1673.67  1707.94  1723.17  1758.07
                             1856.45  1866.02  1911.28  1923.47  1962.55
                             1974.26  2029.58  2076.92  2078.53  2113.02
                             2127.81  2145.62  2171.03  2180.23  2198.26
                             2201.19  2203.71  2234.90  2327.69  2373.96
                             3362.68  4277.10  4373.90  4383.49  4386.38
                             4394.95  4428.11  4464.81  4477.78  4502.77
                             4508.31  4551.81  4583.72  4597.36  5001.04

 Zero-point correction=                           0.229525 (Hartree/Particle)
 Thermal correction to Energy=                    0.243176
 Thermal correction to Enthalpy=                  0.244120
 Thermal correction to Gibbs Free Energy=         0.185171
 Sum of electronic and zero-point Energies=           -536.854345
 Sum of electronic and thermal Energies=              -536.840694
 Sum of electronic and thermal Enthalpies=            -536.839750
 Sum of electronic and thermal Free Energies=         -536.898699

                     E (Thermal)             CV                S
                      KCal/Mol        Cal/Mol-Kelvin    Cal/Mol-Kelvin
 Total                  152.595             48.751            124.070
 Electronic               0.000              0.000              0.000
 Translational            0.889              2.981             41.371
 Rotational               0.889              2.981             32.213
 Vibrational            150.818             42.790             50.486
 Vibration     1          0.593              1.987              9.484
 Vibration     2          0.594              1.983              5.545
 Vibration     3          0.595              1.980              5.128
 Vibration     4          0.598              1.970              4.258
 Vibration     5          0.602              1.956              3.655
 Vibration     6          0.605              1.945              3.363
 Vibration     7          0.625              1.881              2.450
 Vibration     8          0.645              1.818              2.001
 Vibration     9          0.664              1.758              1.710
 Vibration    10          0.670              1.742              1.646
 Vibration    11          0.688              1.686              1.455
 Vibration    12          0.700              1.653              1.358
 Vibration    13          0.731              1.565              1.145
 Vibration    14          0.764              1.475              0.972
 Vibration    15          0.797              1.391              0.837
 Vibration    16          0.819              1.337              0.764
 Vibration    17          0.886              1.180              0.584
 Vibration    18          0.901              1.149              0.553
 Vibration    19          0.935              1.078              0.489
 Vibration    20          0.975              0.999              0.424

 Optimization completed on the basis of negligible forces.
    -- Stationary point found.
 Normal termination of Gaussian 16 at Mon Dec 14 13:22:49 2020.

 ----------------------------------------------------------------------
 # B3LYP/6-311++G(d,p) empiricaldispersion=gd3bj scf=xqc pop=npa geom=c
 heck
 ----------------------------------------------------------------------

 ---------------------------------------
 CID_114497975_JID_3693_Energie_neutraal
 ---------------------------------------
 Structure from the checkpoint file:  "JID_3693.chk"
 Charge =  0 Multiplicity = 1

 SCF Done:  E(RB3LYP) =  -537.230163178     A.U. after   14 cycles
 Normal termination of Gaussian 16 at Mon Dec 14 13:24:56 2020.

 ----------------------------------------------------------------------
 # B3LYP/6-311++G(d,p) empiricaldispersion=gd3bj scf=xqc pop=npa geom=c
 heck
 ----------------------------------------------------------------------

 -------------------------------------
 CID_114497975_JID_3693_Energie_kation
 -------------------------------------
 Structure from the checkpoint file:  "JID_3693.chk"
 Charge =  1 Multiplicity = 2

 SCF Done:  E(UB3LYP) =  -536.932008707     A.U. after   22 cycles
 Normal termination of Gaussian 16 at Mon Dec 14 13:29:07 2020.
 Gaussian 16:  ES64L-G16RevA.03 25-Dec-2016

 ----------------------------------------------------------------------
 # B3LYP/6-311++G(d,p) empiricaldispersion=gd3bj scf=xqc pop=npa geom=c
 heck
 ----------------------------------------------------------------------

 ------------------------------------
 CID_114497975_JID_3693_Energie_anion
 ------------------------------------
 Structure from the checkpoint file:  "JID_3693.chk"
 Charge = -1 Multiplicity = 2

                         Standard orientation:
 ---------------------------------------------------------------------
 Center     Atomic      Atomic             Coordinates (Angstroms)
 Number     Number       Type             X           Y           Z
 ---------------------------------------------------------------------
      1          6           0        4.510430    1.744537   -0.717057
      2          6           0        3.605672    0.889767    0.163925
      3          7           0        3.741903   -0.526093   -0.184873
      4          6           0        2.881580   -1.411206    0.605412
      5          6           0        1.435879   -1.166800    0.462891
      6          6           0        0.265826   -0.905413    0.276816
      7          6           0       -1.115111   -0.619796    0.072533
      8          6           0       -1.999979   -1.616661   -0.385241
      9          7           0       -3.298208   -1.407936   -0.593654
     10          6           0       -3.776916   -0.180749   -0.353308
     11          6           0       -3.005380    0.894559    0.101987
     12          6           0       -1.647348    0.655010    0.315202
     13          6           0       -3.617638    2.249204    0.350326
     14          1           0        5.551791    1.418606   -0.630968
     15          1           0        4.447029    2.799875   -0.431084
     16          1           0        4.217553    1.668571   -1.771928
     17          1           0        3.900982    0.996706    1.216178
     18          1           0        2.562899    1.245634    0.091376
     19          1           0        3.504706   -0.643210   -1.169877
     20          1           0        3.106011   -2.447686    0.325026
     21          1           0        3.170292   -1.306031    1.659704
     22          1           0       -1.623429   -2.617548   -0.584069
     23          1           0       -4.842137   -0.041052   -0.533996
     24          1           0       -0.993802    1.448020    0.668691
     25          1           0       -4.689151    2.245097    0.128720
     26          1           0       -3.492061    2.557564    1.394998
     27          1           0       -3.148635    3.018947   -0.273990
 ---------------------------------------------------------------------

 SCF Done:  E(UB3LYP) =  -537.227227262     A.U. after   33 cycles
 SCF Done:  E(UB3LYP) =  -537.227227262     a.u. after    1 cycles

 The electronic state is 2-A.
 Alpha  occ. eigenvalues --  -14.19228 -14.16550 -10.10428 -10.08354 -10.07067
 Alpha  occ. eigenvalues --  -10.06341 -10.05730 -10.05635 -10.05395 -10.05076
 Alpha  occ. eigenvalues --  -10.03677 -10.03592 -10.02985  -0.80406  -0.80204
 Alpha  occ. eigenvalues --   -0.68668  -0.66734  -0.65218  -0.61022  -0.57781
 Alpha  occ. eigenvalues --   -0.55888  -0.50630  -0.49783  -0.47980  -0.40068
 Alpha  occ. eigenvalues --   -0.38505  -0.36724  -0.36227  -0.35475  -0.34789
 Alpha  occ. eigenvalues --   -0.32980  -0.31543  -0.29212  -0.29164  -0.28264
 Alpha  occ. eigenvalues --   -0.26459  -0.26295  -0.26254  -0.25473  -0.24610
 Alpha  occ. eigenvalues --   -0.23819  -0.19160  -0.14646  -0.14280  -0.13118
 Alpha  occ. eigenvalues --   -0.11996  -0.10452   0.04811
 Alpha virt. eigenvalues --    0.06929   0.07852   0.08569   0.08866   0.09711
 Alpha virt. eigenvalues --    0.10122   0.10418   0.11177   0.11590   0.11719
 Alpha virt. eigenvalues --    0.12075   0.12493   0.14067   0.14446   0.14924

  Beta  occ. eigenvalues --  -14.19190 -14.16394 -10.10439 -10.08339 -10.07109
  Beta  occ. eigenvalues --  -10.06333 -10.05735 -10.05697 -10.05112 -10.04872
  Beta  occ. eigenvalues --  -10.03584 -10.03371 -10.02835  -0.80138  -0.80050
  Beta  occ. eigenvalues --   -0.68314  -0.66499  -0.65054  -0.60794  -0.57578
  Beta  occ. eigenvalues --   -0.55766  -0.50366  -0.49343  -0.47867  -0.39907
  Beta  occ. eigenvalues --   -0.38376  -0.36577  -0.36085  -0.35338  -0.34667
  Beta  occ. eigenvalues --   -0.32882  -0.31456  -0.29176  -0.29062  -0.28174
  Beta  occ. eigenvalues --   -0.26402  -0.26061  -0.25493  -0.25356  -0.24564
  Beta  occ. eigenvalues --   -0.23676  -0.18016  -0.14492  -0.13396  -0.12870
  Beta  occ. eigenvalues --   -0.11813  -0.09435
  Beta virt. eigenvalues --    0.07185   0.07789   0.08623   0.09061   0.09858
  Beta virt. eigenvalues --    0.09894   0.10187   0.10448   0.11396   0.11630
  Beta virt. eigenvalues --    0.11791   0.12106   0.12471   0.14059   0.14518

 Mulliken charges and spin densities:
               1          2
     1  C    0.611464  -1.123366
     2  C   -0.383900   0.094960
     3  N   -0.030987   0.032352
     4  C   -0.579907  -0.195044
     5  C    0.155184   0.252213
     6  C    0.273914  -0.032107
     7  C    0.268040   0.106541
     8  C   -0.585325  -0.026722
     9  N   -0.055881   0.063170
    10  C   -0.958639   0.208423
    11  C    0.364878  -0.007626
    12  C   -0.113451   0.296897
    13  C   -0.444030  -0.089846
    14  H   -0.149927   0.294968
    15  H   -0.248693   0.373146
    16  H   -0.188157   0.318232
    17  H   -0.061000   0.195640
    18  H    0.183228  -0.049389
    19  H    0.123637   0.068380
    20  H    0.116802   0.064486
    21  H    0.073887   0.073419
    22  H    0.121599   0.007248
    23  H    0.117254  -0.016851
    24  H    0.045165   0.035874
    25  H    0.115247   0.007244
    26  H    0.146501  -0.010983
    27  H    0.083095   0.058739
 Sum of Mulliken charges =  -1.00000   1.00000

 Dipole moment (field-independent basis, Debye):
    X=             -1.3473    Y=              0.4242    Z=              1.3083  Tot=              1.9253
 Quadrupole moment (field-independent basis, Debye-Ang):
   XX=           -156.7297   YY=           -102.9634   ZZ=            -93.6855
   XY=            -17.6367   XZ=             -0.3755   YZ=              1.5146

 Summary of Natural Population Analysis:

                                       Natural Population
                Natural  -----------------------------------------------
    Atom  No    Charge         Core      Valence    Rydberg      Total
 -----------------------------------------------------------------------
      C    1   -0.28608      0.99967     2.28185    0.00456     3.28608
      C    2   -0.09092      0.99964     2.08012    0.01116     3.09092
      N    3   -0.33264      0.99976     2.82065    0.01223     3.83264
      C    4   -0.12103      0.99958     2.11001    0.01144     3.12103
      C    5   -0.02263      0.99933     2.01301    0.01029     3.02263
      C    6    0.03147      0.99927     1.95950    0.00976     2.96853
      C    7   -0.06808      0.99950     2.05449    0.01410     3.06808
      C    8    0.03092      0.99957     1.95580    0.01371     2.96908
      N    9   -0.22478      0.99971     2.71209    0.01298     3.72478
      C   10    0.06822      0.99954     1.91773    0.01451     2.93178
      C   11   -0.06086      0.99951     2.05348    0.00788     3.06086
      C   12   -0.01415      0.99949     2.00470    0.00996     3.01415
      C   13   -0.28832      0.99964     2.28344    0.00524     3.28832
      H   14    0.09743      0.00000     0.40076    0.00180     0.40257
      H   15    0.09888      0.00000     0.39973    0.00139     0.40112
      H   16    0.09433      0.00000     0.40420    0.00147     0.40567
      H   17    0.08615      0.00000     0.41233    0.00151     0.41385
      H   18    0.08768      0.00000     0.41054    0.00178     0.41232
      H   19    0.16979      0.00000     0.32730    0.00291     0.33021
      H   20    0.10137      0.00000     0.39737    0.00126     0.39863
      H   21    0.09991      0.00000     0.39859    0.00150     0.40009
      H   22    0.08408      0.00000     0.41458    0.00135     0.41592
      H   23    0.07544      0.00000     0.42309    0.00147     0.42456
      H   24    0.09262      0.00000     0.40586    0.00152     0.40738
      H   25    0.09700      0.00000     0.40194    0.00106     0.40300
      H   26    0.09746      0.00000     0.40120    0.00134     0.40254
      H   27    0.09894      0.00000     0.39962    0.00144     0.40106
 =======================================================================
   * Total *    0.00220     12.99420    33.84398    0.15962    46.99780

 Normal termination of Gaussian 16 at Mon Dec 14 13:36:00 2020.
