 Gaussian 16, Revision A.03,

 -----------------------------------------------------------
 # opt freq B3LYP/6-31G(d) empiricaldispersion=gd3bj scf=xqc
 -----------------------------------------------------------

 ------------------------------
 CID_84774343_JID_4967_neutraal
 ------------------------------
 Symbolic Z-matrix:
 Charge =  0 Multiplicity = 1

 SCF Done:  E(RB3LYP) =  -666.735223356     A.U. after   14 cycles
 SCF Done:  E(RB3LYP) =  -666.737849760     A.U. after   12 cycles
 SCF Done:  E(RB3LYP) =  -666.738128898     A.U. after   13 cycles
 SCF Done:  E(RB3LYP) =  -666.739018131     A.U. after   12 cycles
 SCF Done:  E(RB3LYP) =  -666.739310595     A.U. after   11 cycles
 SCF Done:  E(RB3LYP) =  -666.739347231     A.U. after   11 cycles
 SCF Done:  E(RB3LYP) =  -666.739388401     A.U. after   10 cycles
 SCF Done:  E(RB3LYP) =  -666.739414793     A.U. after   11 cycles
 SCF Done:  E(RB3LYP) =  -666.739446022     A.U. after   11 cycles
 SCF Done:  E(RB3LYP) =  -666.739467355     A.U. after   12 cycles
 SCF Done:  E(RB3LYP) =  -666.741902247     A.U. after   11 cycles
 SCF Done:  E(RB3LYP) =  -666.741905847     A.U. after   10 cycles
 SCF Done:  E(RB3LYP) =  -666.741907912     A.U. after   10 cycles
 SCF Done:  E(RB3LYP) =  -666.741908163     A.U. after    8 cycles
 SCF Done:  E(RB3LYP) =  -666.741908252     A.U. after    7 cycles
 Optimization completed.
    -- Stationary point found.
 Normal termination of Gaussian 16 at Thu Dec 10 11:11:08 2020.

 --------------------------------------------------------------------
 #N Geom=AllCheck Guess=TCheck SCRF=Check GenChk RB3LYP/6-31G(d) Freq
 --------------------------------------------------------------------

 Structure from the checkpoint file:  "JID_4967.chk"
 ------------------------------
 CID_84774343_JID_4967_neutraal
 ------------------------------
 Charge =  0 Multiplicity = 1

 SCF Done:  E(RB3LYP) =  -666.741908252     A.U. after    1 cycles

  Exact polarizability: 116.710   0.064 117.611  -2.357   9.386 101.872
 Approx polarizability: 171.865  -7.802 173.601  -3.242  29.871 156.452

                      1                      2                      3
                      A                      A                      A
 Frequencies --     24.6701                38.8296                59.1253
 Red. masses --      4.8320                 4.0818                 3.9943
 Frc consts  --      0.0017                 0.0036                 0.0082
 IR Inten    --      0.7375                 0.0864                 0.4508

                      4                      5                      6
                      A                      A                      A
 Frequencies --     75.3773               103.7674               124.3322
 Red. masses --      2.6877                 5.0242                 2.3692
 Frc consts  --      0.0090                 0.0319                 0.0216
 IR Inten    --      0.0217                 0.2979                 0.2834

                      7                      8                      9
                      A                      A                      A
 Frequencies --    148.3944               177.0209               207.2441
 Red. masses --      3.6397                 3.8473                 1.8693
 Frc consts  --      0.0472                 0.0710                 0.0473
 IR Inten    --      0.1340                 1.0882                 0.2261

                     10                     11                     12
                      A                      A                      A
 Frequencies --    235.5668               245.8523               274.6387
 Red. masses --      1.0429                 1.3642                 1.8445
 Frc consts  --      0.0341                 0.0486                 0.0820
 IR Inten    --      0.0285                 0.2383                 0.2311

                     13                     14                     15
                      A                      A                      A
 Frequencies --    284.1316               325.7228               364.9476
 Red. masses --      1.9627                 3.9139                 4.1749
 Frc consts  --      0.0934                 0.2447                 0.3276
 IR Inten    --      0.0523                 1.6987                 5.1489

                     16                     17                     18
                      A                      A                      A
 Frequencies --    382.0095               438.9356               468.5094
 Red. masses --      3.2467                 5.3008                 1.7995
 Frc consts  --      0.2792                 0.6017                 0.2327
 IR Inten    --      0.8525                 7.4226                31.4073

                     19                     20                     21
                      A                      A                      A
 Frequencies --    491.5581               521.1582               550.9601
 Red. masses --      3.2068                 2.8652                 2.5380
 Frc consts  --      0.4565                 0.4585                 0.4539
 IR Inten    --      1.6099                32.2535                10.1401

                     22                     23                     24
                      A                      A                      A
 Frequencies --    648.9396               659.4501               695.4302
 Red. masses --      3.4766                 1.6504                 2.4570
 Frc consts  --      0.8626                 0.4229                 0.7001
 IR Inten    --     30.1093                86.6668                45.4719

                     25                     26                     27
                      A                      A                      A
 Frequencies --    724.1299               762.0317               801.1213
 Red. masses --      2.8949                 1.9261                 5.8729
 Frc consts  --      0.8944                 0.6590                 2.2207
 IR Inten    --     30.3797                20.4899                 3.4705

                     28                     29                     30
                      A                      A                      A
 Frequencies --    853.5875               896.6784               916.3029
 Red. masses --      1.8595                 2.5419                 2.2122
 Frc consts  --      0.7982                 1.2042                 1.0944
 IR Inten    --      4.6833                 2.4997                10.4503

                     31                     32                     33
                      A                      A                      A
 Frequencies --    949.4940               962.4883               979.4644
 Red. masses --      1.1657                 3.3712                 1.5300
 Frc consts  --      0.6192                 1.8400                 0.8648
 IR Inten    --      1.2165                11.8269                 0.1233

                     34                     35                     36
                      A                      A                      A
 Frequencies --   1007.2437              1050.7585              1108.1989
 Red. masses --      8.4613                 1.9793                 1.6465
 Frc consts  --      5.0577                 1.2875                 1.1914
 IR Inten    --     15.6037                 7.5136                10.0541

                     37                     38                     39
                      A                      A                      A
 Frequencies --   1113.2806              1124.8670              1140.7647
 Red. masses --      1.8885                 2.4057                 2.3297
 Frc consts  --      1.3790                 1.7935                 1.7863
 IR Inten    --     14.6144                62.1089                 3.4402

                     40                     41                     42
                      A                      A                      A
 Frequencies --   1161.2342              1189.5407              1201.0316
 Red. masses --      2.1882                 2.7322                 5.6540
 Frc consts  --      1.7385                 2.2778                 4.8053
 IR Inten    --     37.8324               131.6921                33.6731

                     43                     44                     45
                      A                      A                      A
 Frequencies --   1213.2734              1245.7823              1278.4193
 Red. masses --      2.0829                 2.1878                 2.0613
 Frc consts  --      1.8065                 2.0005                 1.9849
 IR Inten    --     10.9138                 6.7562                 2.6216

                     46                     47                     48
                      A                      A                      A
 Frequencies --   1292.6319              1338.5942              1363.6906
 Red. masses --      1.3501                 1.4251                 1.6944
 Frc consts  --      1.3291                 1.5045                 1.8565
 IR Inten    --      6.1177                 0.9139                 4.5126

                     49                     50                     51
                      A                      A                      A
 Frequencies --   1365.9005              1380.4860              1404.8239
 Red. masses --      1.6908                 1.7908                 1.7625
 Frc consts  --      1.8585                 2.0107                 2.0494
 IR Inten    --      4.1706                12.7175                30.0321

                     52                     53                     54
                      A                      A                      A
 Frequencies --   1416.4307              1424.1912              1444.5379
 Red. masses --      1.9385                 1.2448                 1.2663
 Frc consts  --      2.2914                 1.4876                 1.5569
 IR Inten    --      3.2855                 1.0921                 3.4219

                     55                     56                     57
                      A                      A                      A
 Frequencies --   1446.0832              1464.7011              1512.4082
 Red. masses --      1.2506                 1.9742                 1.1854
 Frc consts  --      1.5408                 2.4954                 1.5976
 IR Inten    --      3.7862                 0.9829                 1.0212

                     58                     59                     60
                      A                      A                      A
 Frequencies --   1516.8878              1521.6553              1523.4018
 Red. masses --      1.0670                 1.1357                 1.5460
 Frc consts  --      1.4465                 1.5494                 2.1139
 IR Inten    --      1.1540                 1.8297                 1.3629

                     61                     62                     63
                      A                      A                      A
 Frequencies --   1528.6516              1531.4301              1535.0781
 Red. masses --      1.0428                 1.0904                 1.0823
 Frc consts  --      1.4357                 1.5067                 1.5027
 IR Inten    --      4.9520                 4.9046                 3.8701

                     64                     65                     66
                      A                      A                      A
 Frequencies --   1550.5375              1563.8368              1838.8472
 Red. masses --      1.5470                 3.4811                10.0070
 Frc consts  --      2.1913                 5.0158                19.9364
 IR Inten    --     10.9085                 1.1556               237.5393

                     67                     68                     69
                      A                      A                      A
 Frequencies --   3050.8790              3052.5585              3053.9160
 Red. masses --      1.0342                 1.0379                 1.0792
 Frc consts  --      5.6717                 5.6979                 5.9301
 IR Inten    --     27.0045                24.2799                 3.5619

                     70                     71                     72
                      A                      A                      A
 Frequencies --   3054.8367              3065.6750              3069.6680
 Red. masses --      1.0354                 1.0778                 1.0693
 Frc consts  --      5.6926                 5.9682                 5.9363
 IR Inten    --     22.0784                 9.4682                15.0324

                     73                     74                     75
                      A                      A                      A
 Frequencies --   3102.0532              3120.0441              3120.5122
 Red. masses --      1.1010                 1.1027                 1.1030
 Frc consts  --      6.2419                 6.3245                 6.3284
 IR Inten    --      5.5380                28.4356                24.6184

                     76                     77                     78
                      A                      A                      A
 Frequencies --   3123.7203              3128.0409              3131.3388
 Red. masses --      1.1030                 1.1029                 1.1023
 Frc consts  --      6.3412                 6.3583                 6.3680
 IR Inten    --     37.4858                20.3101                44.7403

                     79                     80                     81
                      A                      A                      A
 Frequencies --   3133.9677              3670.5481              3684.0534
 Red. masses --      1.1020                 1.0822                 1.0640
 Frc consts  --      6.3773                 8.5909                 8.5085
 IR Inten    --     33.4448               104.9193                49.4516

 - Thermochemistry -
 -------------------
 Temperature   298.150 Kelvin.  Pressure   1.00000 Atm.
 Atom     1 has atomic number  6 and mass  12.00000

 Molecular mass:   197.11643 amu.
 Principal axes and moments of inertia in atomic units:
                           1         2         3
     Eigenvalues --  2392.553252888.411073555.24766
           X            0.98130   0.19247  -0.00227
           Y           -0.19241   0.98055  -0.03876
           Z           -0.00523   0.03847   0.99925
 This molecule is an asymmetric top.
 Rotational symmetry number  1.
 Warning -- assumption of classical behavior for rotation
           may cause significant error
 Rotational temperatures (Kelvin)      0.03620     0.02999     0.02436
 Rotational constants (GHZ):           0.75432     0.62482     0.50763
 Zero-point vibrational energy     644505.4 (Joules/Mol)
                                  154.04048 (Kcal/Mol)
 Warning -- explicit consideration of  21 degrees of freedom as
           vibrations may cause significant error
 Vibrational temperatures:     35.49    55.87    85.07   108.45   149.30
          (Kelvin)            178.89   213.51   254.69   298.18   338.93
                              353.73   395.14   408.80   468.64   525.08
                              549.63   631.53   674.08   707.24   749.83
                              792.71   933.68   948.80  1000.57  1041.86
                             1096.39  1152.63  1228.12  1290.12  1318.36
                             1366.11  1384.81  1409.23  1449.20  1511.81
                             1594.45  1601.76  1618.43  1641.31  1670.76
                             1711.48  1728.02  1745.63  1792.40  1839.36
                             1859.81  1925.94  1962.05  1965.23  1986.21
                             2021.23  2037.93  2049.09  2078.37  2080.59
                             2107.38  2176.02  2182.46  2189.32  2191.84
                             2199.39  2203.39  2208.63  2230.88  2250.01
                             2645.69  4389.53  4391.95  4393.90  4395.23
                             4410.82  4416.57  4463.16  4489.05  4489.72
                             4494.34  4500.55  4505.30  4509.08  5281.10
                             5300.53

 Zero-point correction=                           0.245479 (Hartree/Particle)
 Thermal correction to Energy=                    0.260299
 Thermal correction to Enthalpy=                  0.261243
 Thermal correction to Gibbs Free Energy=         0.202406
 Sum of electronic and zero-point Energies=           -666.496429
 Sum of electronic and thermal Energies=              -666.481610
 Sum of electronic and thermal Enthalpies=            -666.480665
 Sum of electronic and thermal Free Energies=         -666.539502

                     E (Thermal)             CV                S
                      KCal/Mol        Cal/Mol-Kelvin    Cal/Mol-Kelvin
 Total                  163.340             53.699            123.832
 Electronic               0.000              0.000              0.000
 Translational            0.889              2.981             41.741
 Rotational               0.889              2.981             31.575
 Vibrational            161.562             47.737             50.516
 Vibration     1          0.593              1.985              6.218
 Vibration     2          0.594              1.981              5.318
 Vibration     3          0.596              1.974              4.486
 Vibration     4          0.599              1.965              4.008
 Vibration     5          0.605              1.946              3.382
 Vibration     6          0.610              1.929              3.032
 Vibration     7          0.618              1.904              2.693
 Vibration     8          0.628              1.871              2.360
 Vibration     9          0.641              1.830              2.068
 Vibration    10          0.655              1.786              1.836
 Vibration    11          0.660              1.770              1.760
 Vibration    12          0.677              1.720              1.567
 Vibration    13          0.683              1.703              1.509
 Vibration    14          0.710              1.624              1.281
 Vibration    15          0.738              1.544              1.101
 Vibration    16          0.751              1.509              1.031
 Vibration    17          0.799              1.385              0.830
 Vibration    18          0.826              1.320              0.742
 Vibration    19          0.847              1.269              0.680
 Vibration    20          0.876              1.203              0.607
 Vibration    21          0.906              1.138              0.542

                           ! Non-Optimized Parameters !
 Normal termination of Gaussian 16 at Thu Dec 10 11:19:33 2020.

 ----------------------------------------------------------------------
 # B3LYP/6-311++G(d,p) empiricaldispersion=gd3bj scf=xqc pop=npa geom=c
 heck
 ----------------------------------------------------------------------

 --------------------------------------
 CID_84774343_JID_4967_Energie_neutraal
 --------------------------------------
 Structure from the checkpoint file:  "JID_4967.chk"
 Charge =  0 Multiplicity = 1

 SCF Done:  E(RB3LYP) =  -666.938095386     A.U. after   15 cycles
 Normal termination of Gaussian 16 at Thu Dec 10 11:22:38 2020.

 ----------------------------------------------------------------------
 # B3LYP/6-311++G(d,p) empiricaldispersion=gd3bj scf=xqc pop=npa geom=c
 heck
 ----------------------------------------------------------------------

 ------------------------------------
 CID_84774343_JID_4967_Energie_kation
 ------------------------------------
 Structure from the checkpoint file:  "JID_4967.chk"
 Charge =  1 Multiplicity = 2

 SCF Done:  E(UB3LYP) =  -666.604433756     A.U. after   24 cycles
 Normal termination of Gaussian 16 at Thu Dec 10 11:29:12 2020.
 Gaussian 16:  ES64L-G16RevA.03 25-Dec-2016

 ----------------------------------------------------------------------
 # B3LYP/6-311++G(d,p) empiricaldispersion=gd3bj scf=xqc pop=npa geom=c
 heck
 ----------------------------------------------------------------------

 -----------------------------------
 CID_84774343_JID_4967_Energie_anion
 -----------------------------------
 Structure from the checkpoint file:  "JID_4967.chk"
 Charge = -1 Multiplicity = 2

                         Standard orientation:
 ---------------------------------------------------------------------
 Center     Atomic      Atomic             Coordinates (Angstroms)
 Number     Number       Type             X           Y           Z
 ---------------------------------------------------------------------
      1          6           0        2.224921    1.915419   -1.461782
      2          6           0        2.018314    0.422763   -1.205378
      3          6           0        1.528726    0.130087    0.226293
      4          6           0        0.192450    0.751038    0.525288
      5          7           0        0.086929    1.850984    1.281286
      6          7           0       -1.218608    2.102877    1.264520
      7          7           0       -1.979000    1.265043    0.562976
      8          6           0       -1.098378    0.383982    0.070634
      9          6           0       -1.526023   -0.795068   -0.761747
     10          6           0       -2.201661   -1.857845    0.124138
     11          6           0       -2.440544   -0.364139   -1.918118
     12          6           0        1.509675   -1.369609    0.496272
     13          8           0        1.800106   -2.236976   -0.297399
     14          8           0        1.127354   -1.647842    1.766971
     15          1           0        1.294315    2.476991   -1.331839
     16          1           0        2.584383    2.085114   -2.482101
     17          1           0        2.963049    2.337938   -0.769717
     18          1           0        1.295225    0.012052   -1.919323
     19          1           0        2.951556   -0.126380   -1.367868
     20          1           0        2.236828    0.562691    0.945158
     21          1           0       -1.612183    2.890987    1.756737
     22          1           0       -0.619815   -1.241740   -1.187023
     23          1           0       -3.118039   -1.455195    0.568960
     24          1           0       -2.461870   -2.743493   -0.466153
     25          1           0       -1.538349   -2.166291    0.938803
     26          1           0       -1.938088    0.357653   -2.570981
     27          1           0       -2.729389   -1.231456   -2.521856
     28          1           0       -3.349576    0.107652   -1.531742
     29          1           0        1.152147   -2.620065    1.847298
 ---------------------------------------------------------------------

 SCF Done:  E(UB3LYP) =  -666.924327536     A.U. after   33 cycles
 SCF Done:  E(UB3LYP) =  -666.924327536     a.u. after    1 cycles

 The electronic state is 2-A.
 Alpha  occ. eigenvalues --  -19.07363 -19.02476 -14.31918 -14.25265 -14.25044
 Alpha  occ. eigenvalues --  -10.21509 -10.11163 -10.10753 -10.10655 -10.09129
 Alpha  occ. eigenvalues --  -10.08021 -10.06722 -10.06633 -10.06315  -1.01701
 Alpha  occ. eigenvalues --   -1.00769  -0.92854  -0.80160  -0.75829  -0.70976
 Alpha  occ. eigenvalues --   -0.68593  -0.63522  -0.59180  -0.55294  -0.53856
 Alpha  occ. eigenvalues --   -0.53110  -0.47954  -0.46769  -0.44878  -0.39911
 Alpha  occ. eigenvalues --   -0.39686  -0.39165  -0.37643  -0.36022  -0.35146
 Alpha  occ. eigenvalues --   -0.34412  -0.33352  -0.31538  -0.31061  -0.30443
 Alpha  occ. eigenvalues --   -0.29245  -0.27349  -0.26839  -0.25901  -0.25472
 Alpha  occ. eigenvalues --   -0.25406  -0.24755  -0.23237  -0.22008  -0.20514
 Alpha  occ. eigenvalues --   -0.19811  -0.18795  -0.16120   0.04385
 Alpha virt. eigenvalues --    0.06163   0.06688   0.07024   0.07775   0.08661
 Alpha virt. eigenvalues --    0.09047   0.09636   0.09834   0.10397   0.11233
 Alpha virt. eigenvalues --    0.11934   0.12502   0.12870   0.13323   0.14190

  Beta  occ. eigenvalues --  -19.07310 -19.02462 -14.31874 -14.25257 -14.25038
  Beta  occ. eigenvalues --  -10.21504 -10.11162 -10.10740 -10.10653 -10.09124
  Beta  occ. eigenvalues --  -10.08011 -10.06706 -10.06609 -10.06290  -1.01634
  Beta  occ. eigenvalues --   -1.00736  -0.92796  -0.80143  -0.75789  -0.70948
  Beta  occ. eigenvalues --   -0.68546  -0.63473  -0.59141  -0.55245  -0.53764
  Beta  occ. eigenvalues --   -0.53067  -0.47909  -0.46729  -0.44804  -0.39869
  Beta  occ. eigenvalues --   -0.39654  -0.39135  -0.37613  -0.35994  -0.35116
  Beta  occ. eigenvalues --   -0.34381  -0.33314  -0.31514  -0.31021  -0.30412
  Beta  occ. eigenvalues --   -0.29225  -0.27323  -0.26804  -0.25868  -0.25449
  Beta  occ. eigenvalues --   -0.25380  -0.24733  -0.23201  -0.21984  -0.20483
  Beta  occ. eigenvalues --   -0.19783  -0.18768  -0.16095
  Beta virt. eigenvalues --    0.06554   0.07276   0.07703   0.07826   0.08054
  Beta virt. eigenvalues --    0.08861   0.09524   0.09813   0.09976   0.10517
  Beta virt. eigenvalues --    0.11532   0.12134   0.12709   0.12947   0.13370

 Mulliken charges and spin densities:
               1          2
     1  C    0.554045  -1.260768
     2  C   -1.332021   1.044200
     3  C    0.405354   0.313294
     4  C    1.870249  -2.699298
     5  N   -0.082985   0.033218
     6  N    0.404618  -0.277349
     7  N   -0.195097   0.096637
     8  C   -0.143078  -0.297086
     9  C   -0.881582   1.854181
    10  C    0.365749  -1.095578
    11  C   -0.257184  -0.441276
    12  C   -0.067556  -0.471262
    13  O   -0.234012   0.022457
    14  O   -0.082797   0.003011
    15  H   -0.017265   0.191919
    16  H   -0.388690   0.530503
    17  H    0.070339   0.056926
    18  H    0.174134  -0.022978
    19  H   -0.050434   0.242792
    20  H   -0.003946   0.296136
    21  H   -0.504627   0.860979
    22  H    0.025881   0.175922
    23  H   -0.049876   0.210955
    24  H   -0.180814   0.327974
    25  H    0.062360   0.082514
    26  H    0.055615   0.080687
    27  H   -0.083630   0.240372
    28  H    0.059243   0.102026
    29  H   -0.491993   0.798892
 Sum of Mulliken charges =  -1.00000   1.00000

 Dipole moment (field-independent basis, Debye):
    X=              0.3425    Y=             -0.0261    Z=             -2.4722  Tot=              2.4960
 Quadrupole moment (field-independent basis, Debye-Ang):
   XX=           -129.5769   YY=           -144.0696   ZZ=           -126.6147
   XY=              5.8200   XZ=              4.3354   YZ=              1.3016

 Summary of Natural Population Analysis:

                                       Natural Population
                Natural  -----------------------------------------------
    Atom  No    Charge         Core      Valence    Rydberg      Total
 -----------------------------------------------------------------------
      C    1   -0.28486      0.99966     2.28094    0.00425     3.28486
      C    2   -0.18352      0.99962     2.17637    0.00752     3.18352
      C    3   -0.16898      0.99950     2.15708    0.01240     3.16898
      C    4    0.05959      0.99949     1.92372    0.01720     2.94041
      N    5   -0.13483      0.99970     2.62248    0.01265     3.63483
      N    6   -0.06879      0.99974     2.55267    0.01638     3.56879
      N    7   -0.13946      0.99970     2.62711    0.01265     3.63946
      C    8    0.06455      0.99950     1.91941    0.01654     2.93545
      C    9   -0.13227      0.99958     2.12305    0.00964     3.13227
      C   10   -0.27855      0.99965     2.27286    0.00604     3.27855
      C   11   -0.27797      0.99965     2.27354    0.00477     3.27797
      C   12    0.41371      0.99970     1.56034    0.02624     2.58629
      O   13   -0.30447      0.99987     3.29873    0.00588     4.30447
      O   14   -0.34056      0.99988     3.33363    0.00705     4.34056
      H   15    0.10189      0.00000     0.39689    0.00123     0.39811
      H   16    0.09905      0.00000     0.39981    0.00113     0.40095
      H   17    0.09616      0.00000     0.40265    0.00118     0.40384
      H   18    0.09927      0.00000     0.39933    0.00141     0.40073
      H   19    0.10303      0.00000     0.39585    0.00112     0.39697
      H   20    0.12327      0.00000     0.37479    0.00194     0.37673
      H   21    0.20332      0.00000     0.28474    0.01194     0.29668
      H   22    0.10399      0.00000     0.39340    0.00261     0.39601
      H   23    0.09981      0.00000     0.39917    0.00102     0.40019
      H   24    0.09727      0.00000     0.40186    0.00087     0.40273
      H   25    0.10442      0.00000     0.39418    0.00140     0.39558
      H   26    0.10032      0.00000     0.39874    0.00094     0.39968
      H   27    0.09683      0.00000     0.40236    0.00081     0.40317
      H   28    0.10258      0.00000     0.39625    0.00117     0.39742
      H   29    0.24519      0.00000     0.23949    0.01533     0.25481
 =======================================================================
   * Total *   -0.00000     13.99524    38.80143    0.20334    53.00000

 Normal termination of Gaussian 16 at Thu Dec 10 11:38:26 2020.
