 Gaussian 16, Revision A.03,

 -----------------------------------------------------------
 # opt freq B3LYP/6-31G(d) empiricaldispersion=gd3bj scf=xqc
 -----------------------------------------------------------

 -------------------------------
 CID_115086104_JID_6020_neutraal
 -------------------------------
 Symbolic Z-matrix:
 Charge =  0 Multiplicity = 1

 SCF Done:  E(RB3LYP) =  -764.020658867     A.U. after   14 cycles
 SCF Done:  E(RB3LYP) =  -764.026822799     A.U. after   12 cycles
 SCF Done:  E(RB3LYP) =  -764.027536300     A.U. after   12 cycles
 SCF Done:  E(RB3LYP) =  -764.027970290     A.U. after   12 cycles
 SCF Done:  E(RB3LYP) =  -764.028343260     A.U. after   11 cycles
 SCF Done:  E(RB3LYP) =  -764.028532294     A.U. after   12 cycles
 SCF Done:  E(RB3LYP) =  -764.028720973     A.U. after   12 cycles
 SCF Done:  E(RB3LYP) =  -764.028860207     A.U. after   12 cycles
 SCF Done:  E(RB3LYP) =  -764.029067886     A.U. after   12 cycles
 SCF Done:  E(RB3LYP) =  -764.029133157     A.U. after   11 cycles
 SCF Done:  E(RB3LYP) =  -764.029176704     A.U. after    9 cycles
 SCF Done:  E(RB3LYP) =  -764.029176960     A.U. after    9 cycles
 SCF Done:  E(RB3LYP) =  -764.029177055     A.U. after    9 cycles
 SCF Done:  E(RB3LYP) =  -764.029177072     A.U. after    7 cycles
 SCF Done:  E(RB3LYP) =  -764.029177066     A.U. after    7 cycles
 Optimization completed.
    -- Stationary point found.
 Normal termination of Gaussian 16 at Thu Dec 10 21:16:56 2020.

 --------------------------------------------------------------------
 #N Geom=AllCheck Guess=TCheck SCRF=Check GenChk RB3LYP/6-31G(d) Freq
 --------------------------------------------------------------------

 Structure from the checkpoint file:  "JID_6020.chk"
 -------------------------------
 CID_115086104_JID_6020_neutraal
 -------------------------------
 Charge =  0 Multiplicity = 1

 SCF Done:  E(RB3LYP) =  -764.029177066     A.U. after    1 cycles

  Exact polarizability: 163.879   9.833 113.756  -1.331  -0.392 116.495
 Approx polarizability: 194.043  17.912 164.445 -11.567  -7.051 202.446

                      1                      2                      3
                      A                      A                      A
 Frequencies --     19.0167                26.7427                37.1118
 Red. masses --      4.6725                 8.9638                 3.3561
 Frc consts  --      0.0010                 0.0038                 0.0027
 IR Inten    --      0.0508                 1.2387                 0.2000

                      4                      5                      6
                      A                      A                      A
 Frequencies --     39.7211                64.2669                87.7341
 Red. masses --      4.1644                 3.2835                 7.5545
 Frc consts  --      0.0039                 0.0080                 0.0343
 IR Inten    --      0.8927                 0.0411                 0.4368

                      7                      8                      9
                      A                      A                      A
 Frequencies --     99.0393               157.6590               204.2832
 Red. masses --      2.5176                 2.3204                 3.6691
 Frc consts  --      0.0145                 0.0340                 0.0902
 IR Inten    --      0.6039                 1.3770                 0.6761

                     10                     11                     12
                      A                      A                      A
 Frequencies --    249.9982               269.5147               276.0559
 Red. masses --      1.6768                 3.4187                 2.3145
 Frc consts  --      0.0617                 0.1463                 0.1039
 IR Inten    --      0.4232                 1.8123                 1.7133

                     13                     14                     15
                      A                      A                      A
 Frequencies --    291.3363               337.1736               371.9266
 Red. masses --      1.9809                 4.7735                 2.6670
 Frc consts  --      0.0991                 0.3197                 0.2174
 IR Inten    --      0.9273                 3.8861                 0.1851

                     16                     17                     18
                      A                      A                      A
 Frequencies --    400.1519               405.8677               491.4259
 Red. masses --      2.4100                 3.8887                 2.6034
 Frc consts  --      0.2274                 0.3774                 0.3704
 IR Inten    --      0.8116                 0.9595                 6.8884

                     19                     20                     21
                      A                      A                      A
 Frequencies --    524.9618               587.1344               603.2909
 Red. masses --      2.3825                 3.5199                 2.9332
 Frc consts  --      0.3868                 0.7149                 0.6290
 IR Inten    --     20.5194                 2.6024                41.6993

                     22                     23                     24
                      A                      A                      A
 Frequencies --    646.4100               655.2180               685.2229
 Red. masses --      3.3596                 4.1127                 1.8888
 Frc consts  --      0.8271                 1.0403                 0.5225
 IR Inten    --      1.4622                16.9755                79.0676

                     25                     26                     27
                      A                      A                      A
 Frequencies --    704.8684               766.7088               769.6694
 Red. masses --      3.1085                 1.8569                 4.3839
 Frc consts  --      0.9100                 0.6431                 1.5301
 IR Inten    --     29.0620                 1.9902                20.5419

                     28                     29                     30
                      A                      A                      A
 Frequencies --    812.1992               834.7639               850.5805
 Red. masses --      3.7821                 1.9008                 1.4448
 Frc consts  --      1.4700                 0.7804                 0.6159
 IR Inten    --      7.5458                 4.7550                 8.1348

                     31                     32                     33
                      A                      A                      A
 Frequencies --    877.8189               893.1371               930.0366
 Red. masses --      3.9369                 1.7177                 2.5024
 Frc consts  --      1.7874                 0.8073                 1.2753
 IR Inten    --      4.6562                 6.3519                 4.8565

                     34                     35                     36
                      A                      A                      A
 Frequencies --    939.3992               964.7296               989.0963
 Red. masses --      2.6467                 1.7974                 5.3750
 Frc consts  --      1.3761                 0.9856                 3.0982
 IR Inten    --      0.5284                 0.8119                 8.8021

                     37                     38                     39
                      A                      A                      A
 Frequencies --   1006.2999              1020.3490              1033.2529
 Red. masses --      2.2627                 5.1495                 2.9295
 Frc consts  --      1.3500                 3.1587                 1.8427
 IR Inten    --      5.5507                24.6161                 1.7553

                     40                     41                     42
                      A                      A                      A
 Frequencies --   1078.6302              1101.7366              1118.5541
 Red. masses --      1.9508                 2.2701                 2.2192
 Frc consts  --      1.3372                 1.6235                 1.6359
 IR Inten    --     21.4816                 9.9368                 3.2244

                     43                     44                     45
                      A                      A                      A
 Frequencies --   1153.3264              1157.3827              1173.4991
 Red. masses --      1.7770                 1.3775                 1.7649
 Frc consts  --      1.3927                 1.0872                 1.4320
 IR Inten    --     44.8035                 0.7946               136.1809

                     46                     47                     48
                      A                      A                      A
 Frequencies --   1193.7800              1199.3583              1225.7473
 Red. masses --      2.3938                 1.9566                 2.1542
 Frc consts  --      2.0099                 1.6582                 1.9070
 IR Inten    --     11.4374                16.2596                78.6429

                     49                     50                     51
                      A                      A                      A
 Frequencies --   1243.7520              1256.2955              1258.5413
 Red. masses --      1.6514                 1.7849                 1.9640
 Frc consts  --      1.5051                 1.6598                 1.8328
 IR Inten    --     21.9830                17.4145                 8.4080

                     52                     53                     54
                      A                      A                      A
 Frequencies --   1261.9639              1288.7848              1300.2461
 Red. masses --      1.5150                 1.4403                 1.3935
 Frc consts  --      1.4215                 1.4095                 1.3880
 IR Inten    --     35.0126                 3.8193                 2.2026

                     55                     56                     57
                      A                      A                      A
 Frequencies --   1313.5984              1340.1384              1343.2942
 Red. masses --      1.4408                 1.3170                 1.4503
 Frc consts  --      1.4648                 1.3936                 1.5418
 IR Inten    --      8.0715                 5.5316                 6.2052

                     58                     59                     60
                      A                      A                      A
 Frequencies --   1352.3109              1377.4846              1385.6987
 Red. masses --      1.6119                 2.1225                 1.4328
 Frc consts  --      1.7367                 2.3728                 1.6210
 IR Inten    --      4.5107                32.9365                 1.4872

                     61                     62                     63
                      A                      A                      A
 Frequencies --   1393.2819              1411.6877              1424.9094
 Red. masses --      2.0040                 1.6442                 1.5825
 Frc consts  --      2.2921                 1.9305                 1.8931
 IR Inten    --     21.2896                23.5063                33.3439

                     64                     65                     66
                      A                      A                      A
 Frequencies --   1478.2473              1487.0415              1496.6159
 Red. masses --      1.0894                 1.1870                 1.1511
 Frc consts  --      1.4026                 1.5465                 1.5190
 IR Inten    --      7.3666                 6.7862                 0.9785

                     67                     68                     69
                      A                      A                      A
 Frequencies --   1515.9004              1523.6325              1531.4991
 Red. masses --      1.0811                 1.0571                 1.0508
 Frc consts  --      1.4637                 1.4459                 1.4521
 IR Inten    --      0.2989                 4.7820                 7.9810

                     70                     71                     72
                      A                      A                      A
 Frequencies --   1535.8060              1552.4501              1610.2211
 Red. masses --      1.0854                 1.1045                10.2724
 Frc consts  --      1.5085                 1.5684                15.6926
 IR Inten    --      4.5220                 2.3407                48.7014

                     73                     74                     75
                      A                      A                      A
 Frequencies --   1661.3329              1856.8907              2917.3244
 Red. masses --      7.2966                 9.9078                 1.0744
 Frc consts  --     11.8655                20.1279                 5.3876
 IR Inten    --     13.7430               324.6650                63.3945

                     76                     77                     78
                      A                      A                      A
 Frequencies --   2940.3853              2956.1875              3053.9108
 Red. masses --      1.0810                 1.0611                 1.0653
 Frc consts  --      5.5064                 5.4635                 5.8536
 IR Inten    --     31.3544                84.3950                 7.5161

                     79                     80                     81
                      A                      A                      A
 Frequencies --   3066.0359              3071.8117              3077.8060
 Red. masses --      1.0622                 1.0613                 1.0763
 Frc consts  --      5.8834                 5.9001                 6.0072
 IR Inten    --     28.8482                 7.7229                28.3467

                     82                     83                     84
                      A                      A                      A
 Frequencies --   3087.2354              3090.8880              3106.3541
 Red. masses --      1.0725                 1.0758                 1.1045
 Frc consts  --      6.0224                 6.0556                 6.2795
 IR Inten    --     50.4176                51.8202                 2.3600

                     85                     86                     87
                      A                      A                      A
 Frequencies --   3120.5386              3121.2402              3128.3511
 Red. masses --      1.0980                 1.1017                 1.1063
 Frc consts  --      6.2994                 6.3238                 6.3788
 IR Inten    --      2.7291                 5.0369                53.3900

                     88                     89                     90
                      A                      A                      A
 Frequencies --   3140.2898              3274.4145              3687.0301
 Red. masses --      1.0991                 1.0983                 1.0640
 Frc consts  --      6.3859                 6.9383                 8.5220
 IR Inten    --     31.6434                 7.8987                55.7195

 - Thermochemistry -
 -------------------
 Temperature   298.150 Kelvin.  Pressure   1.00000 Atm.
 Atom     1 has atomic number  6 and mass  12.00000

 Molecular mass:   224.11609 amu.
 Principal axes and moments of inertia in atomic units:
                           1         2         3
     Eigenvalues --  1316.553068239.630998315.43603
           X            0.99997  -0.00020   0.00708
           Y           -0.00167   0.96463   0.26362
           Z           -0.00689  -0.26362   0.96460
 This molecule is an asymmetric top.
 Rotational symmetry number  1.
 Warning -- assumption of classical behavior for rotation
           may cause significant error
 Rotational temperatures (Kelvin)      0.06579     0.01051     0.01042
 Rotational constants (GHZ):           1.37081     0.21903     0.21704
 Zero-point vibrational energy     707995.6 (Joules/Mol)
                                  169.21500 (Kcal/Mol)
 Warning -- explicit consideration of  21 degrees of freedom as
           vibrations may cause significant error
 Vibrational temperatures:     27.36    38.48    53.40    57.15    92.47
          (Kelvin)            126.23   142.50   226.84   293.92   359.69
                              387.77   397.18   419.17   485.12   535.12
                              575.73   583.95   707.05   755.30   844.76
                              868.00   930.04   942.71   985.88  1014.15
                             1103.12  1107.38  1168.57  1201.04  1223.80
                             1262.99  1285.03  1338.12  1351.59  1388.03
                             1423.09  1447.84  1468.05  1486.62  1551.91
                             1585.15  1609.35  1659.38  1665.22  1688.40
                             1717.58  1725.61  1763.58  1789.48  1807.53
                             1810.76  1815.68  1854.27  1870.76  1889.98
                             1928.16  1932.70  1945.67  1981.89  1993.71
                             2004.62  2031.10  2050.13  2126.87  2139.52
                             2153.30  2181.04  2192.17  2203.49  2209.68
                             2233.63  2316.75  2390.29  2671.65  4197.38
                             4230.56  4253.29  4393.90  4411.34  4419.65
                             4428.28  4441.84  4447.10  4469.35  4489.76
                             4490.77  4501.00  4518.18  4711.15  5304.81

 Zero-point correction=                           0.269661 (Hartree/Particle)
 Thermal correction to Energy=                    0.285053
 Thermal correction to Enthalpy=                  0.285998
 Thermal correction to Gibbs Free Energy=         0.223420
 Sum of electronic and zero-point Energies=           -763.759516
 Sum of electronic and thermal Energies=              -763.744124
 Sum of electronic and thermal Enthalpies=            -763.743179
 Sum of electronic and thermal Free Energies=         -763.805757

                     E (Thermal)             CV                S
                      KCal/Mol        Cal/Mol-Kelvin    Cal/Mol-Kelvin
 Total                  178.874             56.437            131.706
 Electronic               0.000              0.000              0.000
 Translational            0.889              2.981             42.123
 Rotational               0.889              2.981             32.867
 Vibrational            177.096             50.475             56.716
 Vibration     1          0.593              1.986              6.734
 Vibration     2          0.593              1.984              6.057
 Vibration     3          0.594              1.982              5.408
 Vibration     4          0.594              1.981              5.273
 Vibration     5          0.597              1.971              4.322
 Vibration     6          0.601              1.958              3.710
 Vibration     7          0.604              1.950              3.473
 Vibration     8          0.621              1.894              2.578
 Vibration     9          0.640              1.834              2.094
 Vibration    10          0.663              1.763              1.731
 Vibration    11          0.674              1.729              1.599
 Vibration    12          0.678              1.718              1.558
 Vibration    13          0.687              1.690              1.466
 Vibration    14          0.718              1.601              1.225
 Vibration    15          0.744              1.530              1.072
 Vibration    16          0.766              1.470              0.962
 Vibration    17          0.771              1.457              0.941
 Vibration    18          0.847              1.269              0.680
 Vibration    19          0.880              1.195              0.599
 Vibration    20          0.944              1.059              0.472
 Vibration    21          0.962              1.025              0.444

                           ! Non-Optimized Parameters !
 Normal termination of Gaussian 16 at Thu Dec 10 21:26:44 2020.

 ----------------------------------------------------------------------
 # B3LYP/6-311++G(d,p) empiricaldispersion=gd3bj scf=xqc pop=npa geom=c
 heck
 ----------------------------------------------------------------------

 ---------------------------------------
 CID_115086104_JID_6020_Energie_neutraal
 ---------------------------------------
 Structure from the checkpoint file:  "JID_6020.chk"
 Charge =  0 Multiplicity = 1

 SCF Done:  E(RB3LYP) =  -764.251419955     A.U. after   15 cycles
 Normal termination of Gaussian 16 at Thu Dec 10 21:31:32 2020.

 ----------------------------------------------------------------------
 # B3LYP/6-311++G(d,p) empiricaldispersion=gd3bj scf=xqc pop=npa geom=c
 heck
 ----------------------------------------------------------------------

 -------------------------------------
 CID_115086104_JID_6020_Energie_kation
 -------------------------------------
 Structure from the checkpoint file:  "JID_6020.chk"
 Charge =  1 Multiplicity = 2

 SCF Done:  E(UB3LYP) =  -763.960354100     A.U. after   23 cycles
 Normal termination of Gaussian 16 at Thu Dec 10 21:42:17 2020.
 Gaussian 16:  ES64L-G16RevA.03 25-Dec-2016

 ----------------------------------------------------------------------
 # B3LYP/6-311++G(d,p) empiricaldispersion=gd3bj scf=xqc pop=npa geom=c
 heck
 ----------------------------------------------------------------------

 ------------------------------------
 CID_115086104_JID_6020_Energie_anion
 ------------------------------------
 Structure from the checkpoint file:  "JID_6020.chk"
 Charge = -1 Multiplicity = 2

                         Standard orientation:
 ---------------------------------------------------------------------
 Center     Atomic      Atomic             Coordinates (Angstroms)
 Number     Number       Type             X           Y           Z
 ---------------------------------------------------------------------
      1          6           0       -1.855285    1.841573    0.028998
      2          7           0       -2.678050    0.752433   -0.469698
      3          6           0       -4.108362    0.992326   -0.284139
      4          6           0       -4.759739   -0.359444   -0.620451
      5          6           0       -3.638385   -1.393332   -0.341955
      6          6           0       -2.440396   -0.555681    0.148642
      7          6           0       -1.091670   -1.181137   -0.242279
      8          6           0        0.076892   -0.590816    0.471374
      9          7           0        0.259949   -0.452201    1.750224
     10          6           0        1.490655    0.184470    1.866653
     11          6           0        2.008464    0.407997    0.632580
     12          8           0        1.103434   -0.089453   -0.281357
     13          6           0        3.254123    1.016730    0.100950
     14          6           0        4.160505    0.052222   -0.654648
     15          8           0        4.748561    0.316959   -1.676697
     16          8           0        4.264631   -1.141712   -0.027316
     17          1           0       -2.184276    2.777692   -0.434639
     18          1           0       -1.915565    1.957828    1.127747
     19          1           0       -0.807713    1.689106   -0.242096
     20          1           0       -4.336214    1.277671    0.762729
     21          1           0       -4.443654    1.812385   -0.928562
     22          1           0       -5.060656   -0.391848   -1.671354
     23          1           0       -5.654178   -0.535566   -0.016230
     24          1           0       -3.369703   -1.926886   -1.260049
     25          1           0       -3.922590   -2.143735    0.401737
     26          1           0       -2.470303   -0.477149    1.252297
     27          1           0       -1.133890   -2.252387   -0.008650
     28          1           0       -0.946748   -1.079716   -1.321869
     29          1           0        1.914713    0.431824    2.829584
     30          1           0        3.045360    1.847925   -0.579209
     31          1           0        3.828946    1.415495    0.945422
     32          1           0        4.869365   -1.680064   -0.571936
 ---------------------------------------------------------------------

 SCF Done:  E(UB3LYP) =  -764.239815437     A.U. after   33 cycles
 SCF Done:  E(UB3LYP) =  -764.239815437     a.u. after    1 cycles

 The electronic state is 2-A.
 Alpha  occ. eigenvalues --  -19.10670 -19.07472 -19.02326 -14.21862 -14.21731
 Alpha  occ. eigenvalues --  -10.21556 -10.17069 -10.14436 -10.11693 -10.10887
 Alpha  occ. eigenvalues --  -10.10531 -10.10488 -10.09941 -10.09642 -10.08541
 Alpha  occ. eigenvalues --  -10.08420  -1.04097  -1.01686  -0.92915  -0.85284
 Alpha  occ. eigenvalues --   -0.83007  -0.73057  -0.70322  -0.68983  -0.63807
 Alpha  occ. eigenvalues --   -0.59487  -0.58478  -0.53803  -0.52162  -0.50134
 Alpha  occ. eigenvalues --   -0.48652  -0.47796  -0.43455  -0.41123  -0.40392
 Alpha  occ. eigenvalues --   -0.39866  -0.38870  -0.38538  -0.37709  -0.36767
 Alpha  occ. eigenvalues --   -0.34734  -0.34026  -0.33443  -0.32226  -0.31239
 Alpha  occ. eigenvalues --   -0.31041  -0.30675  -0.30059  -0.28942  -0.27691
 Alpha  occ. eigenvalues --   -0.27102  -0.25918  -0.25064  -0.24046  -0.23406
 Alpha  occ. eigenvalues --   -0.23014  -0.20604  -0.19375  -0.14792  -0.13589
 Alpha  occ. eigenvalues --    0.04096
 Alpha virt. eigenvalues --    0.05343   0.06571   0.07037   0.07406   0.07624
 Alpha virt. eigenvalues --    0.08171   0.08839   0.09228   0.09995   0.10091
 Alpha virt. eigenvalues --    0.10458   0.10827   0.11105   0.12084   0.12842

  Beta  occ. eigenvalues --  -19.10660 -19.07414 -19.02299 -14.21853 -14.21727
  Beta  occ. eigenvalues --  -10.21523 -10.17065 -10.14437 -10.11691 -10.10844
  Beta  occ. eigenvalues --  -10.10515 -10.10474 -10.09934 -10.09628 -10.08531
  Beta  occ. eigenvalues --  -10.08404  -1.04084  -1.01591  -0.92837  -0.85270
  Beta  occ. eigenvalues --   -0.82994  -0.73026  -0.70295  -0.68944  -0.63761
  Beta  occ. eigenvalues --   -0.59452  -0.58442  -0.53752  -0.52061  -0.50092
  Beta  occ. eigenvalues --   -0.48619  -0.47768  -0.43415  -0.41087  -0.40353
  Beta  occ. eigenvalues --   -0.39811  -0.38822  -0.38503  -0.37634  -0.36714
  Beta  occ. eigenvalues --   -0.34715  -0.33988  -0.33419  -0.32206  -0.31147
  Beta  occ. eigenvalues --   -0.31003  -0.30656  -0.30014  -0.28915  -0.27658
  Beta  occ. eigenvalues --   -0.27079  -0.25894  -0.25042  -0.24024  -0.23313
  Beta  occ. eigenvalues --   -0.22989  -0.20584  -0.19331  -0.14768  -0.13551
  Beta virt. eigenvalues --    0.05842   0.06733   0.07058   0.07542   0.07790
  Beta virt. eigenvalues --    0.08178   0.08434   0.09223   0.09511   0.10153
  Beta virt. eigenvalues --    0.10356   0.10741   0.10825   0.11193   0.12338

 Mulliken charges and spin densities:
               1          2
     1  C   -0.076057  -0.262586
     2  N    0.118027   0.086860
     3  C    0.027757  -0.302299
     4  C    0.347549  -0.672405
     5  C    0.144114  -0.572255
     6  C   -0.916579   0.827609
     7  C    1.711594  -2.477311
     8  C   -1.376093   0.865650
     9  N    0.064113   0.077766
    10  C   -0.669428   0.544251
    11  C    0.284029   0.134271
    12  O    0.083177   0.018611
    13  C    1.293917  -1.783649
    14  C   -0.241175   0.271304
    15  O   -0.292274   0.032162
    16  O   -0.155919   0.025886
    17  H   -0.061298   0.228378
    18  H    0.039320   0.087880
    19  H    0.079453   0.079494
    20  H    0.071519   0.034850
    21  H   -0.242292   0.395075
    22  H   -0.006661   0.144494
    23  H   -0.196094   0.342834
    24  H    0.058794   0.096929
    25  H    0.076964   0.052904
    26  H    0.173897   0.026715
    27  H   -0.002607   0.190999
    28  H    0.196968   0.037585
    29  H   -0.596185   0.781064
    30  H   -0.027735   0.256564
    31  H   -0.513234   0.731535
    32  H   -0.397558   0.698833
 Sum of Mulliken charges =  -1.00000   1.00000

 Dipole moment (field-independent basis, Debye):
    X=             -5.8398    Y=             -0.6772    Z=             -0.5284  Tot=              5.9027
 Quadrupole moment (field-independent basis, Debye-Ang):
   XX=           -208.2857   YY=           -129.9778   ZZ=           -133.3831
   XY=              6.4662   XZ=             -1.4216   YZ=              0.6411

 Summary of Natural Population Analysis:

                                       Natural Population
                Natural  -----------------------------------------------
    Atom  No    Charge         Core      Valence    Rydberg      Total
 -----------------------------------------------------------------------
      C    1   -0.17844      0.99964     2.17033    0.00847     3.17844
      N    2   -0.28124      0.99970     2.76936    0.01219     3.78124
      C    3   -0.08269      0.99963     2.07149    0.01157     3.08269
      C    4   -0.19489      0.99964     2.18739    0.00787     3.19489
      C    5   -0.18885      0.99962     2.18188    0.00735     3.18885
      C    6    0.00076      0.99959     1.98775    0.01190     2.99924
      C    7   -0.22204      0.99955     2.21339    0.00910     3.22204
      C    8    0.27137      0.99959     1.70831    0.02074     2.72863
      N    9   -0.25602      0.99967     2.74704    0.00931     3.75602
      C   10   -0.03475      0.99947     2.02219    0.01309     3.03475
      C   11    0.13267      0.99946     1.85226    0.01562     2.86733
      O   12   -0.24086      0.99985     3.23387    0.00715     4.24086
      C   13   -0.25967      0.99954     2.24994    0.01018     3.25967
      C   14    0.41478      0.99973     1.56014    0.02535     2.58522
      O   15   -0.30296      0.99987     3.29663    0.00645     4.30296
      O   16   -0.34126      0.99988     3.33427    0.00711     4.34126
      H   17    0.09559      0.00000     0.40345    0.00096     0.40441
      H   18    0.08449      0.00000     0.41436    0.00114     0.41551
      H   19    0.09852      0.00000     0.39979    0.00169     0.40148
      H   20    0.07812      0.00000     0.42038    0.00150     0.42188
      H   21    0.09721      0.00000     0.40148    0.00132     0.40279
      H   22    0.09887      0.00000     0.39992    0.00122     0.40113
      H   23    0.09891      0.00000     0.40002    0.00106     0.40109
      H   24    0.09748      0.00000     0.40112    0.00140     0.40252
      H   25    0.09997      0.00000     0.39900    0.00102     0.40003
      H   26    0.08778      0.00000     0.41004    0.00218     0.41222
      H   27    0.11335      0.00000     0.38563    0.00102     0.38665
      H   28    0.11507      0.00000     0.38317    0.00175     0.38493
      H   29    0.10454      0.00000     0.39413    0.00133     0.39546
      H   30    0.11938      0.00000     0.37938    0.00124     0.38062
      H   31    0.12960      0.00000     0.36613    0.00427     0.37040
      H   32    0.24522      0.00000     0.23883    0.01595     0.25478
 =======================================================================
   * Total *    0.00000     15.99442    43.78309    0.22249    60.00000

 Normal termination of Gaussian 16 at Thu Dec 10 21:56:36 2020.
