 Gaussian 16, Revision A.03,

 -----------------------------------------------------------
 # opt freq B3LYP/6-31G(d) empiricaldispersion=gd3bj scf=xqc
 -----------------------------------------------------------

 ------------------------------
 CID_139607339_JID_489_neutraal
 ------------------------------
 Symbolic Z-matrix:
 Charge =  0 Multiplicity = 1

 SCF Done:  E(RB3LYP) =  -500.801369325     A.U. after   13 cycles
 SCF Done:  E(RB3LYP) =  -500.804596019     A.U. after   11 cycles
 SCF Done:  E(RB3LYP) =  -500.802736271     A.U. after   12 cycles
 SCF Done:  E(RB3LYP) =  -500.806001566     A.U. after   11 cycles
 SCF Done:  E(RB3LYP) =  -500.806981250     A.U. after   11 cycles
 SCF Done:  E(RB3LYP) =  -500.807226654     A.U. after   10 cycles
 SCF Done:  E(RB3LYP) =  -500.807217578     A.U. after   11 cycles
 SCF Done:  E(RB3LYP) =  -500.807292669     A.U. after   10 cycles
 SCF Done:  E(RB3LYP) =  -500.807327473     A.U. after    9 cycles
 SCF Done:  E(RB3LYP) =  -500.807331705     A.U. after    9 cycles
 SCF Done:  E(RB3LYP) =  -500.807332172     A.U. after    7 cycles
 SCF Done:  E(RB3LYP) =  -500.807332346     A.U. after    7 cycles
 SCF Done:  E(RB3LYP) =  -500.807332492     A.U. after    7 cycles
 Optimization completed.
    -- Stationary point found.

 1\1\GINC-NODE206\FOpt\RB3LYP\6-31G(d)\C7H14O3\VSC10255\08-Dec-2020\0\\
 # opt freq B3LYP/6-31G(d) empiricaldispersion=gd3bj scf=xqc\\CID_13960
 7339_JID_489_neutraal\\0,1\C,1.0742560933,0.0432679767,-0.0364260119\C
 ,0.613716979,0.8074055911,-1.2818885562\C,0.9909741836,0.0268668309,-2
 .5438629536\C,-0.8868911158,1.0505113332,-1.1530686897\C,-1.8344597743
 ,1.0603773015,-2.2742437699\O,-1.7401123354,-0.0742486252,-1.399539959
 5\O,1.3277340904,2.059970083,-1.2027399788\C,0.8691817712,3.2074351426
 ,-1.8992632234\C,1.2733003715,3.3106101165,-3.3667517407\O,0.298671094

 Normal termination of Gaussian 16 at Tue Dec  8 10:46:49 2020.

 --------------------------------------------------------------------
 #N Geom=AllCheck Guess=TCheck SCRF=Check GenChk RB3LYP/6-31G(d) Freq
 --------------------------------------------------------------------

 Structure from the checkpoint file:  "JID_489.chk"
 ------------------------------
 CID_139607339_JID_489_neutraal
 ------------------------------
 Charge =  0 Multiplicity = 1

 SCF Done:  E(RB3LYP) =  -500.807332492     A.U. after    1 cycles

  Exact polarizability:  86.267  -2.370  83.023   1.451   0.322  75.717
 Approx polarizability: 113.705  -0.863 116.799   3.427   3.121 106.199

                      1                      2                      3
                      A                      A                      A
 Frequencies --     64.6273                90.1154                98.1820
 Red. masses --      3.9287                 3.5515                 2.9628
 Frc consts  --      0.0097                 0.0170                 0.0168
 IR Inten    --      1.1583                 1.6566                 4.4422

                      4                      5                      6
                      A                      A                      A
 Frequencies --    164.5023               201.8615               227.6611
 Red. masses --      4.6601                 3.0656                 1.3829
 Frc consts  --      0.0743                 0.0736                 0.0422
 IR Inten    --      4.1419                 2.8821                 0.4504

                      7                      8                      9
                      A                      A                      A
 Frequencies --    253.4345               257.1582               279.8776
 Red. masses --      1.7368                 1.5401                 1.2167
 Frc consts  --      0.0657                 0.0600                 0.0562
 IR Inten    --     20.7204                 0.3824                98.9135

                     10                     11                     12
                      A                      A                      A
 Frequencies --    309.9348               323.4056               362.4760
 Red. masses --      1.6427                 2.1301                 2.6871
 Frc consts  --      0.0930                 0.1313                 0.2080
 IR Inten    --      0.4042                16.1908                 0.8095

                     13                     14                     15
                      A                      A                      A
 Frequencies --    403.8106               426.5088               478.7870
 Red. masses --      3.2002                 2.6854                 2.4174
 Frc consts  --      0.3075                 0.2878                 0.3265
 IR Inten    --      1.9616                 7.4367                12.1051

                     16                     17                     18
                      A                      A                      A
 Frequencies --    512.8091               562.4572               706.4264
 Red. masses --      3.4179                 2.9408                 2.9089
 Frc consts  --      0.5296                 0.5481                 0.8553
 IR Inten    --      2.7219                 1.7064                 3.5870

                     19                     20                     21
                      A                      A                      A
 Frequencies --    809.7305               879.5244               892.5084
 Red. masses --      2.3435                 6.6851                 2.5582
 Frc consts  --      0.9053                 3.0469                 1.2006
 IR Inten    --      6.3944                12.8475                 3.1179

                     22                     23                     24
                      A                      A                      A
 Frequencies --    923.7029               947.4379               955.9226
 Red. masses --      2.7562                 1.8714                 1.8616
 Frc consts  --      1.3856                 0.9897                 1.0023
 IR Inten    --     53.0490                20.3604                28.3312

                     25                     26                     27
                      A                      A                      A
 Frequencies --    987.1551              1020.3169              1060.2051
 Red. masses --      1.6333                 1.3980                 1.4509
 Frc consts  --      0.9378                 0.8575                 0.9609
 IR Inten    --      7.9928                 0.6360                 5.8439

                     28                     29                     30
                      A                      A                      A
 Frequencies --   1080.0684              1105.5148              1108.8617
 Red. masses --      1.9165                 1.2560                 3.1905
 Frc consts  --      1.3172                 0.9044                 2.3114
 IR Inten    --     24.5653                 3.5844                25.7724

                     31                     32                     33
                      A                      A                      A
 Frequencies --   1139.0286              1152.7485              1194.1370
 Red. masses --      3.3758                 1.4308                 1.4558
 Frc consts  --      2.5805                 1.1202                 1.2231
 IR Inten    --    112.5062                11.8909                25.7211

                     34                     35                     36
                      A                      A                      A
 Frequencies --   1202.8505              1238.1857              1261.8667
 Red. masses --      1.9404                 2.2057                 1.4851
 Frc consts  --      1.6541                 1.9924                 1.3932
 IR Inten    --     64.2830                42.1983                19.5212

                     37                     38                     39
                      A                      A                      A
 Frequencies --   1283.4362              1286.0419              1316.3044
 Red. masses --      1.9591                 1.2243                 1.7730
 Frc consts  --      1.9014                 1.1931                 1.8100
 IR Inten    --      5.0898                25.7904                11.5755

                     40                     41                     42
                      A                      A                      A
 Frequencies --   1367.6192              1419.0826              1427.6210
 Red. masses --      1.1332                 1.2910                 1.2540
 Frc consts  --      1.2488                 1.5318                 1.5058
 IR Inten    --     24.6393                10.5019                 2.9435

                     43                     44                     45
                      A                      A                      A
 Frequencies --   1435.5639              1457.2374              1471.2988
 Red. masses --      1.4044                 1.5703                 1.4637
 Frc consts  --      1.7053                 1.9647                 1.8668
 IR Inten    --     16.5717                 7.6177                 3.3334

                     46                     47                     48
                      A                      A                      A
 Frequencies --   1506.8246              1512.4039              1519.6458
 Red. masses --      1.0858                 1.0516                 1.0519
 Frc consts  --      1.4525                 1.4172                 1.4312
 IR Inten    --      1.7474                 2.0549                 1.2555

                     49                     50                     51
                      A                      A                      A
 Frequencies --   1529.7423              1536.3307              1553.8063
 Red. masses --      1.0608                 1.0840                 1.2534
 Frc consts  --      1.4625                 1.5074                 1.7830
 IR Inten    --      0.3704                 4.7999                 5.9743

                     52                     53                     54
                      A                      A                      A
 Frequencies --   1567.5659              2997.1088              3043.5484
 Red. masses --      1.1088                 1.0620                 1.0802
 Frc consts  --      1.6053                 5.6206                 5.8953
 IR Inten    --      1.2245                62.0002                 5.6124

                     55                     56                     57
                      A                      A                      A
 Frequencies --   3056.7045              3060.1860              3069.7731
 Red. masses --      1.0785                 1.0348                 1.0374
 Frc consts  --      5.9371                 5.7097                 5.7596
 IR Inten    --     80.7715                13.4968                22.9553

                     58                     59                     60
                      A                      A                      A
 Frequencies --   3095.7702              3102.0264              3120.8155
 Red. masses --      1.1055                 1.0847                 1.0598
 Frc consts  --      6.2426                 6.1496                 6.0814
 IR Inten    --     39.5460                22.7209                29.0062

                     61                     62                     63
                      A                      A                      A
 Frequencies --   3132.3114              3135.8770              3144.2308
 Red. masses --      1.1028                 1.1025                 1.1029
 Frc consts  --      6.3747                 6.3875                 6.4239
 IR Inten    --     22.7888                13.3507                31.3610

                     64                     65                     66
                      A                      A                      A
 Frequencies --   3170.1352              3225.4138              3753.3728
 Red. masses --      1.1008                 1.1141                 1.0664
 Frc consts  --      6.5180                 6.8289                 8.8516
 IR Inten    --      1.7867                16.1635                19.0971

 - Thermochemistry -
 -------------------
 Temperature   298.150 Kelvin.  Pressure   1.00000 Atm.
 Atom     1 has atomic number  6 and mass  12.00000

 Molecular mass:   146.09429 amu.
 Principal axes and moments of inertia in atomic units:
                           1         2         3
     Eigenvalues --  1033.392231676.594912099.83172
           X            0.99913  -0.04156   0.00454
           Y            0.04163   0.99899  -0.01717
           Z           -0.00382   0.01734   0.99984
 This molecule is an asymmetric top.
 Rotational symmetry number  1.
 Warning -- assumption of classical behavior for rotation
           may cause significant error
 Rotational temperatures (Kelvin)      0.08382     0.05166     0.04125
 Rotational constants (GHZ):           1.74642     1.07643     0.85947
 Zero-point vibrational energy     550172.1 (Joules/Mol)
                                  131.49430 (Kcal/Mol)
 Warning -- explicit consideration of  17 degrees of freedom as
           vibrations may cause significant error
 Vibrational temperatures:     92.98   129.66   141.26   236.68   290.43
          (Kelvin)            327.55   364.64   369.99   402.68   445.93
                              465.31   521.52   580.99   613.65   688.87
                              737.82   809.25  1016.39  1165.02  1265.44
                             1284.12  1329.00  1363.15  1375.36  1420.30
                             1468.01  1525.40  1553.98  1590.59  1595.40
                             1638.81  1658.55  1718.10  1730.63  1781.47
                             1815.54  1846.58  1850.33  1893.87  1967.70
                             2041.74  2054.03  2065.46  2096.64  2116.87
                             2167.98  2176.01  2186.43  2200.96  2210.44
                             2235.58  2255.38  4312.17  4378.99  4397.92
                             4402.93  4416.72  4454.12  4463.12  4490.16
                             4506.70  4511.83  4523.85  4561.12  4640.65
                             5400.27

 Zero-point correction=                           0.209550 (Hartree/Particle)
 Thermal correction to Energy=                    0.220974
 Thermal correction to Enthalpy=                  0.221918
 Thermal correction to Gibbs Free Energy=         0.172998
 Sum of electronic and zero-point Energies=           -500.597783
 Sum of electronic and thermal Energies=              -500.586358
 Sum of electronic and thermal Enthalpies=            -500.585414
 Sum of electronic and thermal Free Energies=         -500.634334

                     E (Thermal)             CV                S
                      KCal/Mol        Cal/Mol-Kelvin    Cal/Mol-Kelvin
 Total                  138.663             42.399            102.961
 Electronic               0.000              0.000              0.000
 Translational            0.889              2.981             40.848
 Rotational               0.889              2.981             29.677
 Vibrational            136.886             36.437             32.436
 Vibration     1          0.597              1.971              4.311
 Vibration     2          0.602              1.956              3.658
 Vibration     3          0.604              1.950              3.490
 Vibration     4          0.623              1.886              2.497
 Vibration     5          0.639              1.837              2.116
 Vibration     6          0.651              1.799              1.897
 Vibration     7          0.665              1.757              1.707
 Vibration     8          0.667              1.751              1.681
 Vibration     9          0.680              1.711              1.534
 Vibration    10          0.699              1.655              1.363
 Vibration    11          0.708              1.629              1.293
 Vibration    12          0.736              1.550              1.111
 Vibration    13          0.769              1.462              0.949
 Vibration    14          0.788              1.413              0.870
 Vibration    15          0.835              1.297              0.713
 Vibration    16          0.868              1.222              0.627
 Vibration    17          0.918              1.113              0.519

                           ! Non-Optimized Parameters !

 1\1\GINC-NODE206\Freq\RB3LYP\6-31G(d)\C7H14O3\VSC10255\08-Dec-2020\0\\
 #N Geom=AllCheck Guess=TCheck SCRF=Check GenChk RB3LYP/6-31G(d) Freq\\
 CID_139607339_JID_489_neutraal\\0,1\C,1.0742560933,0.0432679767,-0.036
 4260119\C,0.613716979,0.8074055911,-1.2818885562\C,0.9909741836,0.0268
 668309,-2.5438629536\C,-0.8868911158,1.0505113332,-1.1530686897\C,-1.8
 344597743,1.0603773015,-2.2742437699\O,-1.7401123354,-0.0742486252,-1.
 3995399595\O,1.3277340904,2.059970083,-1.2027399788\C,0.8691817712,3.2
 074351426,-1.8992632234\C,1.2733003715,3.3106101165,-3.3667517407\O,0.

 Normal termination of Gaussian 16 at Tue Dec  8 10:53:55 2020.

 ----------------------------------------------------------------------
 # B3LYP/6-311++G(d,p) empiricaldispersion=gd3bj scf=xqc pop=npa geom=c
 heck
 ----------------------------------------------------------------------

 --------------------------------------
 CID_139607339_JID_489_Energie_neutraal
 --------------------------------------
 Structure from the checkpoint file:  "JID_489.chk"
 Charge =  0 Multiplicity = 1

 SCF Done:  E(RB3LYP) =  -500.965794914     A.U. after   13 cycles
 Normal termination of Gaussian 16 at Tue Dec  8 10:58:12 2020.

 ----------------------------------------------------------------------
 # B3LYP/6-311++G(d,p) empiricaldispersion=gd3bj scf=xqc pop=npa geom=c
 heck
 ----------------------------------------------------------------------

 ------------------------------------
 CID_139607339_JID_489_Energie_kation
 ------------------------------------
 Structure from the checkpoint file:  "JID_489.chk"
 Charge =  1 Multiplicity = 2

 SCF Done:  E(UB3LYP) =  -500.632497063     A.U. after   23 cycles
 Normal termination of Gaussian 16 at Tue Dec  8 11:04:43 2020.
 Gaussian 16:  ES64L-G16RevA.03 25-Dec-2016

 -----------------------------------
 CID_139607339_JID_489_Energie_anion
 -----------------------------------
 Structure from the checkpoint file:  "JID_489.chk"
 Charge = -1 Multiplicity = 2

                         Standard orientation:
 ---------------------------------------------------------------------
 Center     Atomic      Atomic             Coordinates (Angstroms)
 Number     Number       Type             X           Y           Z
 ---------------------------------------------------------------------
      1          6           0        1.875900   -1.704862    0.068223
      2          6           0        0.739875   -0.679554    0.141506
      3          6           0        0.431634   -0.343774    1.603142
      4          6           0        1.155039    0.537814   -0.678967
      5          6           0        0.809767    1.926825   -0.352698
      6          8           0        2.122153    1.411101   -0.082411
      7          8           0       -0.371590   -1.349112   -0.492008
      8          6           0       -1.462572   -0.612869   -1.020963
      9          6           0       -2.545751   -0.206121   -0.026599
     10          8           0       -2.226108    1.060293    0.551804
     11          1           0        2.777938   -1.303448    0.539818
     12          1           0        2.101449   -1.953406   -0.973858
     13          1           0        1.582202   -2.624067    0.584270
     14          1           0        1.284405    0.169534    2.057305
     15          1           0       -0.450243    0.293269    1.683093
     16          1           0        0.246410   -1.271682    2.153376
     17          1           0        1.363068    0.297476   -1.724966
     18          1           0        0.757301    2.663607   -1.154805
     19          1           0        0.194843    2.138571    0.517056
     20          1           0       -1.136291    0.283311   -1.563664
     21          1           0       -1.918272   -1.294681   -1.747914
     22          1           0       -3.503444   -0.139144   -0.567064
     23          1           0       -2.635936   -0.991707    0.737134
     24          1           0       -2.882423    1.249353    1.239272
 ---------------------------------------------------------------------

 SCF Done:  E(UB3LYP) =  -500.951478110     A.U. after   30 cycles

 The electronic state is 2-A.
 Alpha  occ. eigenvalues --  -19.03923 -19.01565 -19.00558 -10.13235 -10.12666
 Alpha  occ. eigenvalues --  -10.11936 -10.10521 -10.09754 -10.06149 -10.04590
 Alpha  occ. eigenvalues --   -0.97955  -0.92721  -0.90369  -0.69805  -0.62201
 Alpha  occ. eigenvalues --   -0.59055  -0.58046  -0.54302  -0.51220  -0.44877
 Alpha  occ. eigenvalues --   -0.41865  -0.40817  -0.39334  -0.36342  -0.35403
 Alpha  occ. eigenvalues --   -0.33247  -0.31874  -0.30873  -0.29526  -0.29311
 Alpha  occ. eigenvalues --   -0.28370  -0.27932  -0.25533  -0.24960  -0.23359
 Alpha  occ. eigenvalues --   -0.21720  -0.19986  -0.17656  -0.16546  -0.15143
 Alpha  occ. eigenvalues --    0.04973
 Alpha virt. eigenvalues --    0.07456   0.07992   0.08398   0.09885   0.10401
 Alpha virt. eigenvalues --    0.10784   0.11211   0.11365   0.12864   0.13366
 Alpha virt. eigenvalues --    0.14191   0.14688   0.14798   0.15788   0.17101

  Beta  occ. eigenvalues --  -19.03921 -19.01559 -19.00497 -10.13235 -10.12659
  Beta  occ. eigenvalues --  -10.11923 -10.10506 -10.09705 -10.06140 -10.04572
  Beta  occ. eigenvalues --   -0.97952  -0.92702  -0.90246  -0.69787  -0.62113
  Beta  occ. eigenvalues --   -0.59032  -0.58026  -0.54273  -0.51129  -0.44841
  Beta  occ. eigenvalues --   -0.41823  -0.40671  -0.39305  -0.36307  -0.35360
  Beta  occ. eigenvalues --   -0.33211  -0.31849  -0.30847  -0.29499  -0.29281
  Beta  occ. eigenvalues --   -0.28349  -0.27910  -0.25506  -0.24932  -0.23287
  Beta  occ. eigenvalues --   -0.21700  -0.19965  -0.17644  -0.16488  -0.15104
  Beta virt. eigenvalues --    0.07352   0.08282   0.08843   0.09142   0.10694
  Beta virt. eigenvalues --    0.10860   0.11014   0.11609   0.11794   0.13568
  Beta virt. eigenvalues --    0.13745   0.14624   0.14893   0.15022   0.15990

 Mulliken charges and spin densities:
               1          2
     1  C    0.413255  -0.648159
     2  C   -0.990558   1.097844
     3  C    0.011151  -0.726690
     4  C    0.098864  -0.432600
     5  C    0.431708  -0.682122
     6  O   -0.159296   0.023317
     7  O   -0.032920   0.008685
     8  C   -0.863874   0.605964
     9  C    2.275259  -2.576609
    10  O   -0.327712   0.040037
    11  H    0.182418  -0.032197
    12  H   -0.057876   0.205802
    13  H    0.042015   0.110017
    14  H    0.047018   0.104344
    15  H    0.262812  -0.095893
    16  H   -0.126539   0.264000
    17  H   -0.007710   0.218602
    18  H   -0.301982   0.450724
    19  H    0.269076  -0.060905
    20  H    0.345193  -0.168195
    21  H   -0.755025   0.932578
    22  H   -1.004911   1.166067
    23  H   -0.197877   0.356308
    24  H   -0.552487   0.839080
 Sum of Mulliken charges =  -1.00000   1.00000

 Dipole moment (field-independent basis, Debye):
    X=              8.5040    Y=             -0.9411    Z=             -0.5971  Tot=              8.5767
 Quadrupole moment (field-independent basis, Debye-Ang):
   XX=           -130.0151   YY=            -96.1252   ZZ=            -94.1573
   XY=              1.2285   XZ=              3.8026   YZ=             -4.3750

 Summary of Natural Population Analysis:

                                       Natural Population
                Natural  -----------------------------------------------
    Atom  No    Charge         Core      Valence    Rydberg      Total
 -----------------------------------------------------------------------
      C    1   -0.28572      0.99961     2.28002    0.00609     3.28572
      C    2    0.12449      0.99951     1.86036    0.01563     2.87551
      C    3   -0.30978      0.99961     2.30194    0.00823     3.30978
      C    4    0.03128      0.99951     1.95235    0.01685     2.96872
      C    5   -0.02757      0.99956     2.01819    0.00982     3.02757
      O    6   -0.28561      0.99992     3.27856    0.00713     4.28561
      O    7   -0.31221      0.99987     3.30091    0.01143     4.31221
      C    8   -0.02032      0.99955     2.00621    0.01456     3.02032
      C    9   -0.02365      0.99960     2.01083    0.01323     3.02365
      O   10   -0.38057      0.99989     3.37217    0.00851     4.38057
      H   11    0.10072      0.00000     0.39845    0.00084     0.39928
      H   12    0.10033      0.00000     0.39851    0.00116     0.39967
      H   13    0.10289      0.00000     0.39606    0.00105     0.39711
      H   14    0.10291      0.00000     0.39604    0.00104     0.39709
      H   15    0.11767      0.00000     0.38056    0.00177     0.38233
      H   16    0.10148      0.00000     0.39753    0.00099     0.39852
      H   17    0.09204      0.00000     0.40661    0.00136     0.40796
      H   18    0.08562      0.00000     0.41313    0.00125     0.41438
      H   19    0.10059      0.00000     0.39780    0.00161     0.39941
      H   20    0.08449      0.00000     0.41347    0.00204     0.41551
      H   21    0.09284      0.00000     0.40534    0.00182     0.40716
      H   22    0.08354      0.00000     0.41158    0.00488     0.41646
      H   23    0.08204      0.00000     0.41515    0.00280     0.41796
      H   24    0.24251      0.00000     0.23383    0.02366     0.25749
 =======================================================================
   * Total *   -0.00000      9.99664    29.84559    0.15778    40.00000

 Normal termination of Gaussian 16 at Tue Dec  8 11:12:58 2020.
