 Gaussian 16, Revision A.03,

 -----------------------------------------------------------
 # opt freq B3LYP/6-31G(d) empiricaldispersion=gd3bj scf=xqc
 -----------------------------------------------------------

 -------------------------------
 CID_153853098_JID_6746_neutraal
 -------------------------------
 Symbolic Z-matrix:
 Charge =  0 Multiplicity = 1

 SCF Done:  E(RB3LYP) =  -819.543809117     A.U. after   14 cycles
 SCF Done:  E(RB3LYP) =  -819.562502842     A.U. after   12 cycles
 SCF Done:  E(RB3LYP) =  -819.564701945     A.U. after   12 cycles
 SCF Done:  E(RB3LYP) =  -819.565307259     A.U. after   11 cycles
 SCF Done:  E(RB3LYP) =  -819.565588555     A.U. after   11 cycles
 SCF Done:  E(RB3LYP) =  -819.565736560     A.U. after   11 cycles
 SCF Done:  E(RB3LYP) =  -819.565907048     A.U. after   11 cycles
 SCF Done:  E(RB3LYP) =  -819.566070845     A.U. after   11 cycles
 SCF Done:  E(RB3LYP) =  -819.566165175     A.U. after   11 cycles
 SCF Done:  E(RB3LYP) =  -819.566256218     A.U. after   11 cycles
 SCF Done:  E(RB3LYP) =  -819.573213458     A.U. after    6 cycles
 SCF Done:  E(RB3LYP) =  -819.573213510     A.U. after    6 cycles
 SCF Done:  E(RB3LYP) =  -819.573213539     A.U. after    6 cycles
 SCF Done:  E(RB3LYP) =  -819.573213545     A.U. after    6 cycles
 Optimization completed.
    -- Stationary point found.
 Normal termination of Gaussian 16 at Thu Dec 10 23:48:05 2020.

 --------------------------------------------------------------------
 #N Geom=AllCheck Guess=TCheck SCRF=Check GenChk RB3LYP/6-31G(d) Freq
 --------------------------------------------------------------------

 Structure from the checkpoint file:  "JID_6746.chk"
 -------------------------------
 CID_153853098_JID_6746_neutraal
 -------------------------------
 Charge =  0 Multiplicity = 1

 SCF Done:  E(RB3LYP) =  -819.573213545     A.U. after    1 cycles

  Exact polarizability: 146.163   6.210 119.995   4.125   2.241 105.744
 Approx polarizability: 172.022  10.011 184.920   6.788   4.297 160.650

                      1                      2                      3
                      A                      A                      A
 Frequencies --     34.3043                43.7867                54.1793
 Red. masses --      4.9168                 3.7680                 3.9523
 Frc consts  --      0.0034                 0.0043                 0.0068
 IR Inten    --      1.4897                 1.5453                 0.3030

                      4                      5                      6
                      A                      A                      A
 Frequencies --     79.7857                88.2613               104.7597
 Red. masses --      2.5050                 3.4748                 1.5434
 Frc consts  --      0.0094                 0.0159                 0.0100
 IR Inten    --      4.1017                 0.7589                 3.5765

                      7                      8                      9
                      A                      A                      A
 Frequencies --    138.7082               155.5340               167.9447
 Red. masses --      4.5753                 2.6234                 1.6659
 Frc consts  --      0.0519                 0.0374                 0.0277
 IR Inten    --      0.4354                 7.9457                 2.4951

                     10                     11                     12
                      A                      A                      A
 Frequencies --    175.0602               188.3195               210.3921
 Red. masses --      1.2343                 1.6626                 2.9920
 Frc consts  --      0.0223                 0.0347                 0.0780
 IR Inten    --      0.2322                 3.3862                 7.1310

                     13                     14                     15
                      A                      A                      A
 Frequencies --    229.2616               253.9551               304.6110
 Red. masses --      2.4349                 2.8892                 3.5705
 Frc consts  --      0.0754                 0.1098                 0.1952
 IR Inten    --      1.8479                 8.4479                 0.2877

                     16                     17                     18
                      A                      A                      A
 Frequencies --    316.7844               339.9591               376.8871
 Red. masses --      2.4853                 3.9907                 4.2003
 Frc consts  --      0.1469                 0.2717                 0.3515
 IR Inten    --      1.4707                 9.1938                 8.2331

                     19                     20                     21
                      A                      A                      A
 Frequencies --    395.8585               451.2772               463.5222
 Red. masses --      2.6009                 2.9305                 2.8968
 Frc consts  --      0.2401                 0.3516                 0.3667
 IR Inten    --     10.0662                10.4467                 2.5275

                     22                     23                     24
                      A                      A                      A
 Frequencies --    483.9874               515.2523               531.9120
 Red. masses --      2.1493                 5.1452                 3.1200
 Frc consts  --      0.2966                 0.8048                 0.5201
 IR Inten    --      5.8708                 5.1946                 5.4465

                     25                     26                     27
                      A                      A                      A
 Frequencies --    563.7602               591.9525               629.5745
 Red. masses --      5.1293                 5.0633                 4.3482
 Frc consts  --      0.9605                 1.0454                 1.0154
 IR Inten    --      7.2346                 9.5469                21.1887

                     28                     29                     30
                      A                      A                      A
 Frequencies --    674.2646               721.4389               767.1064
 Red. masses --      2.2533                 3.8534                 2.5621
 Frc consts  --      0.6036                 1.1817                 0.8883
 IR Inten    --     27.8359                12.6805                41.9697

                     31                     32                     33
                      A                      A                      A
 Frequencies --    789.3349               805.2403               849.5615
 Red. masses --      1.4812                 4.3905                 4.3212
 Frc consts  --      0.5437                 1.6773                 1.8376
 IR Inten    --    197.5335                17.4991                62.1712

                     34                     35                     36
                      A                      A                      A
 Frequencies --    910.0362               935.3979               937.0230
 Red. masses --      2.5131                 1.7426                 2.1891
 Frc consts  --      1.2263                 0.8984                 1.1325
 IR Inten    --     41.8825                66.2895                36.8297

                     37                     38                     39
                      A                      A                      A
 Frequencies --    983.8053              1012.3848              1038.1073
 Red. masses --      3.1835                 2.8626                 2.4958
 Frc consts  --      1.8154                 1.7286                 1.5847
 IR Inten    --     29.3521                61.4448                 4.3147

                     40                     41                     42
                      A                      A                      A
 Frequencies --   1046.7969              1065.7466              1084.9427
 Red. masses --      2.4392                 2.8231                 5.5394
 Frc consts  --      1.5748                 1.8892                 3.8417
 IR Inten    --     23.3389                29.3145                20.5040

                     43                     44                     45
                      A                      A                      A
 Frequencies --   1088.3914              1106.9328              1126.2251
 Red. masses --      4.6972                 4.0977                 6.5818
 Frc consts  --      3.2784                 2.9582                 4.9186
 IR Inten    --     10.8253               154.4705               331.0264

                     46                     47                     48
                      A                      A                      A
 Frequencies --   1148.7055              1182.9930              1185.5888
 Red. masses --      3.7386                 1.8231                 1.4967
 Frc consts  --      2.9065                 1.5033                 1.2395
 IR Inten    --     88.4166               114.6732                43.0464

                     49                     50                     51
                      A                      A                      A
 Frequencies --   1188.0828              1188.2918              1203.6328
 Red. masses --      2.0859                 1.3287                 1.3152
 Frc consts  --      1.7348                 1.1054                 1.1226
 IR Inten    --     45.3289                14.7005                11.6327

                     52                     53                     54
                      A                      A                      A
 Frequencies --   1212.3684              1227.9836              1232.9374
 Red. masses --      1.6471                 1.4751                 1.6740
 Frc consts  --      1.4264                 1.3105                 1.4993
 IR Inten    --     93.9017                20.5412                24.9966

                     55                     56                     57
                      A                      A                      A
 Frequencies --   1261.2645              1264.1867              1269.4844
 Red. masses --      2.0309                 1.6798                 1.7737
 Frc consts  --      1.9035                 1.5817                 1.6842
 IR Inten    --     81.3588               110.9480                32.7340

                     58                     59                     60
                      A                      A                      A
 Frequencies --   1330.0595              1345.4975              1374.5269
 Red. masses --      1.6095                 1.6558                 1.1851
 Frc consts  --      1.6776                 1.7661                 1.3192
 IR Inten    --     25.5461               126.0393                 4.9250

                     61                     62                     63
                      A                      A                      A
 Frequencies --   1383.5484              1412.8922              1419.3392
 Red. masses --      1.1901                 1.2564                 1.2244
 Frc consts  --      1.3422                 1.4777                 1.4533
 IR Inten    --      0.2075                18.5022                17.3604

                     64                     65                     66
                      A                      A                      A
 Frequencies --   1463.1333              1482.8151              1493.6979
 Red. masses --      2.0727                 1.1457                 1.1292
 Frc consts  --      2.6143                 1.4842                 1.4844
 IR Inten    --    149.7885                 3.4404                 2.8782

                     67                     68                     69
                      A                      A                      A
 Frequencies --   1497.4379              1499.7907              1500.9931
 Red. masses --      1.1845                 1.1214                 1.1242
 Frc consts  --      1.5648                 1.4862                 1.4923
 IR Inten    --      4.7353                 4.5559                 3.2916

                     70                     71                     72
                      A                      A                      A
 Frequencies --   1506.1292              1513.9506              1518.1169
 Red. masses --      1.1114                 1.0639                 1.0673
 Frc consts  --      1.4855                 1.4368                 1.4493
 IR Inten    --     13.0066                 1.2605                 0.6186

                     73                     74                     75
                      A                      A                      A
 Frequencies --   1519.8696              1522.0497              1524.3174
 Red. masses --      1.1681                 1.1910                 1.0718
 Frc consts  --      1.5898                 1.6256                 1.4672
 IR Inten    --     43.6605                15.3153                 6.1985

                     76                     77                     78
                      A                      A                      A
 Frequencies --   1535.7725              1540.2861              1547.0409
 Red. masses --      1.0552                 1.0915                 1.0511
 Frc consts  --      1.4664                 1.5257                 1.4822
 IR Inten    --      9.4522                 1.0042                 8.4570

                     79                     80                     81
                      A                      A                      A
 Frequencies --   1557.4787              1739.1934              3052.6210
 Red. masses --      1.0537                 9.6624                 1.0320
 Frc consts  --      1.5059                17.2199                 5.6658
 IR Inten    --      2.0027               285.5761                39.1892

                     82                     83                     84
                      A                      A                      A
 Frequencies --   3056.6453              3057.4621              3058.4687
 Red. masses --      1.0661                 1.0313                 1.0699
 Frc consts  --      5.8684                 5.6803                 5.8968
 IR Inten    --     23.8083                49.3678                12.5060

                     85                     86                     87
                      A                      A                      A
 Frequencies --   3061.1906              3067.3255              3112.3757
 Red. masses --      1.0315                 1.0711                 1.0624
 Frc consts  --      5.6948                 5.9376                 6.0632
 IR Inten    --     25.2897                97.0613                 5.4232

                     88                     89                     90
                      A                      A                      A
 Frequencies --   3120.1343              3127.4033              3134.3306
 Red. masses --      1.1047                 1.1023                 1.1075
 Frc consts  --      6.3367                 6.3519                 6.4101
 IR Inten    --     31.9176                33.8756                33.3707

                     91                     92                     93
                      A                      A                      A
 Frequencies --   3136.9880              3147.4565              3157.0006
 Red. masses --      1.1049                 1.1066                 1.1064
 Frc consts  --      6.4059                 6.4590                 6.4969
 IR Inten    --     14.8341                27.4400                20.1243

                     94                     95                     96
                      A                      A                      A
 Frequencies --   3157.7435              3163.8711              3194.1636
 Red. masses --      1.1044                 1.1031                 1.0954
 Frc consts  --      6.4883                 6.5061                 6.5849
 IR Inten    --     23.9474                 6.4928                 1.9167

                     97                     98                     99
                      A                      A                      A
 Frequencies --   3212.5121              3470.8222              3482.5059
 Red. masses --      1.0922                 1.0737                 1.0739
 Frc consts  --      6.6410                 7.6207                 7.6733
 IR Inten    --      4.6593                 1.0832                 0.1541

 - Thermochemistry -
 -------------------
 Temperature   298.150 Kelvin.  Pressure   1.00000 Atm.
 Atom     1 has atomic number  6 and mass  12.00000

 Molecular mass:   233.13756 amu.
 Principal axes and moments of inertia in atomic units:
                           1         2         3
     Eigenvalues --  1733.692835525.217326153.79505
           X            0.99998   0.00542  -0.00153
           Y           -0.00538   0.99976   0.02142
           Z            0.00164  -0.02141   0.99977
 This molecule is an asymmetric top.
 Rotational symmetry number  1.
 Warning -- assumption of classical behavior for rotation
           may cause significant error
 Rotational temperatures (Kelvin)      0.04996     0.01568     0.01407
 Rotational constants (GHZ):           1.04098     0.32664     0.29327
 Zero-point vibrational energy     799086.3 (Joules/Mol)
                                  190.98622 (Kcal/Mol)
 Warning -- explicit consideration of  26 degrees of freedom as
           vibrations may cause significant error
 Vibrational temperatures:     49.36    63.00    77.95   114.79   126.99
          (Kelvin)            150.73   199.57   223.78   241.64   251.87
                              270.95   302.71   329.86   365.38   438.27
                              455.78   489.13   542.26   569.55   649.29
                              666.91   696.35   741.33   765.30   811.13
                              851.69   905.82   970.12  1037.99  1103.70
                             1135.68  1158.56  1222.33  1309.34  1345.83
                             1348.17  1415.48  1456.60  1493.60  1506.11
                             1533.37  1560.99  1565.95  1592.63  1620.39
                             1652.73  1702.06  1705.80  1709.39  1709.69
                             1731.76  1744.33  1766.79  1773.92  1814.68
                             1818.88  1826.50  1913.66  1935.87  1977.64
                             1990.62  2032.84  2042.11  2105.12  2133.44
                             2149.10  2154.48  2157.86  2159.59  2166.98
                             2178.24  2184.23  2186.75  2189.89  2193.15
                             2209.63  2216.13  2225.85  2240.86  2502.31
                             4392.04  4397.83  4399.01  4400.45  4404.37
                             4413.20  4478.01  4489.18  4499.64  4509.60
                             4513.43  4528.49  4542.22  4543.29  4552.10
                             4595.69  4622.09  4993.74  5010.55

 Zero-point correction=                           0.304356 (Hartree/Particle)
 Thermal correction to Energy=                    0.321376
 Thermal correction to Enthalpy=                  0.322321
 Thermal correction to Gibbs Free Energy=         0.259062
 Sum of electronic and zero-point Energies=           -819.268858
 Sum of electronic and thermal Energies=              -819.251837
 Sum of electronic and thermal Enthalpies=            -819.250893
 Sum of electronic and thermal Free Energies=         -819.314151

                     E (Thermal)             CV                S
                      KCal/Mol        Cal/Mol-Kelvin    Cal/Mol-Kelvin
 Total                  201.667             62.699            133.138
 Electronic               0.000              0.000              0.000
 Translational            0.889              2.981             42.241
 Rotational               0.889              2.981             32.444
 Vibrational            199.889             56.737             58.453
 Vibration     1          0.594              1.983              5.564
 Vibration     2          0.595              1.980              5.080
 Vibration     3          0.596              1.976              4.659
 Vibration     4          0.600              1.963              3.896
 Vibration     5          0.601              1.957              3.698
 Vibration     6          0.605              1.945              3.364
 Vibration     7          0.614              1.915              2.822
 Vibration     8          0.620              1.896              2.603
 Vibration     9          0.625              1.882              2.458
 Vibration    10          0.627              1.873              2.380
 Vibration    11          0.633              1.856              2.244
 Vibration    12          0.643              1.825              2.040
 Vibration    13          0.652              1.796              1.885
 Vibration    14          0.665              1.756              1.703
 Vibration    15          0.696              1.665              1.391
 Vibration    16          0.704              1.642              1.327
 Vibration    17          0.720              1.596              1.212
 Vibration    18          0.747              1.519              1.052
 Vibration    19          0.763              1.479              0.978
 Vibration    20          0.810              1.358              0.792
 Vibration    21          0.821              1.331              0.756
 Vibration    22          0.840              1.286              0.699
 Vibration    23          0.870              1.216              0.621
 Vibration    24          0.887              1.179              0.583
 Vibration    25          0.920              1.110              0.516
 Vibration    26          0.949              1.049              0.464

 Optimization completed.
    -- Stationary point found.
 Normal termination of Gaussian 16 at Fri Dec 11 00:00:33 2020.

 ----------------------------------------------------------------------
 # B3LYP/6-311++G(d,p) empiricaldispersion=gd3bj scf=xqc pop=npa geom=c
 heck
 ----------------------------------------------------------------------

 ---------------------------------------
 CID_153853098_JID_6746_Energie_neutraal
 ---------------------------------------
 Structure from the checkpoint file:  "JID_6746.chk"
 Charge =  0 Multiplicity = 1

 SCF Done:  E(RB3LYP) =  -819.819373625     A.U. after   14 cycles
 Normal termination of Gaussian 16 at Fri Dec 11 00:05:41 2020.

 ----------------------------------------------------------------------
 # B3LYP/6-311++G(d,p) empiricaldispersion=gd3bj scf=xqc pop=npa geom=c
 heck
 ----------------------------------------------------------------------

 -------------------------------------
 CID_153853098_JID_6746_Energie_kation
 -------------------------------------
 Structure from the checkpoint file:  "JID_6746.chk"
 Charge =  1 Multiplicity = 2

 SCF Done:  E(UB3LYP) =  -819.505609588     A.U. after   33 cycles
 SCF Done:  E(UB3LYP) =  -819.506144975     a.u. after   10 cycles
 Normal termination of Gaussian 16 at Fri Dec 11 02:24:32 2020.
 Gaussian 16:  ES64L-G16RevA.03 25-Dec-2016

 ----------------------------------------------------------------------
 # B3LYP/6-311++G(d,p) empiricaldispersion=gd3bj scf=xqc pop=npa geom=c
 heck
 ----------------------------------------------------------------------

 ------------------------------------
 CID_153853098_JID_6746_Energie_anion
 ------------------------------------
 Structure from the checkpoint file:  "JID_6746.chk"
 Charge = -1 Multiplicity = 2

                         Standard orientation:
 ---------------------------------------------------------------------
 Center     Atomic      Atomic             Coordinates (Angstroms)
 Number     Number       Type             X           Y           Z
 ---------------------------------------------------------------------
      1          6           0        2.659795    2.006557   -0.238122
      2          8           0        2.198870    0.745549   -0.730283
      3          6           0        1.771442   -0.171896    0.235682
      4          6           0        0.636707    0.358816    1.135544
      5          6           0       -0.499585    1.002190    0.349499
      6          8           0       -0.546608    2.227020    0.237036
      7          7           0       -1.425332    0.186894   -0.254765
      8          6           0       -2.590179    0.812768   -0.905887
      9          7           0       -3.809688    0.688047   -0.122892
     10          6           0       -4.029297   -0.703715    0.276622
     11          7           0       -2.886807   -1.388394    0.893763
     12          6           0       -1.691221   -1.220517    0.080967
     13          8           0        1.346597   -1.329786   -0.443237
     14          6           0        1.185720   -1.284916   -1.860665
     15          8           0        2.795181   -0.517866    1.128096
     16          6           0        3.916291   -1.162078    0.525981
     17          1           0        3.165946    2.484772   -1.079248
     18          1           0        3.369770    1.866951    0.584145
     19          1           0        1.817674    2.624644    0.085180
     20          1           0        0.314201   -0.472386    1.765727
     21          1           0        1.036358    1.133339    1.790769
     22          1           0       -2.354290    1.859852   -1.081006
     23          1           0       -2.747044    0.304398   -1.865024
     24          1           0       -3.729019    1.278664    0.704319
     25          1           0       -4.289376   -1.265745   -0.629236
     26          1           0       -4.882385   -0.750736    0.958425
     27          1           0       -2.716407   -0.995154    1.819595
     28          1           0       -1.854065   -1.754395   -0.863224
     29          1           0       -0.825129   -1.666710    0.560401
     30          1           0        0.472330   -0.512566   -2.162246
     31          1           0        2.137071   -1.114707   -2.372530
     32          1           0        0.796769   -2.270274   -2.129154
     33          1           0        3.629845   -2.131142    0.105606
     34          1           0        4.355985   -0.540745   -0.262487
     35          1           0        4.644205   -1.306498    1.326634
 ---------------------------------------------------------------------

 SCF Done:  E(UB3LYP) =  -819.805460496     A.U. after   33 cycles
 SCF Done:  E(UB3LYP) =  -819.805460496     a.u. after    1 cycles

 The electronic state is 2-A.
 Alpha  occ. eigenvalues --  -19.04713 -19.04247 -19.04216 -18.99561 -14.24570
 Alpha  occ. eigenvalues --  -14.21248 -14.21124 -10.24007 -10.18224 -10.13749
 Alpha  occ. eigenvalues --  -10.13416 -10.12752 -10.12098 -10.11986 -10.11603
 Alpha  occ. eigenvalues --  -10.08670  -1.02104  -0.94842  -0.92919  -0.92730
 Alpha  occ. eigenvalues --   -0.88270  -0.80258  -0.78600  -0.69335  -0.63161
 Alpha  occ. eigenvalues --   -0.61156  -0.60059  -0.59678  -0.58398  -0.54703
 Alpha  occ. eigenvalues --   -0.48914  -0.46253  -0.44507  -0.43823  -0.43130
 Alpha  occ. eigenvalues --   -0.41851  -0.40955  -0.39105  -0.38172  -0.36798
 Alpha  occ. eigenvalues --   -0.35830  -0.34729  -0.34236  -0.34008  -0.33233
 Alpha  occ. eigenvalues --   -0.33067  -0.31891  -0.31394  -0.30467  -0.30171
 Alpha  occ. eigenvalues --   -0.29029  -0.27940  -0.27534  -0.27114  -0.24483
 Alpha  occ. eigenvalues --   -0.23215  -0.20678  -0.20406  -0.19214  -0.17947
 Alpha  occ. eigenvalues --   -0.16424  -0.15234  -0.14065   0.04278
 Alpha virt. eigenvalues --    0.05758   0.06578   0.07546   0.08134   0.08327
 Alpha virt. eigenvalues --    0.09107   0.09552   0.09897   0.10261   0.10732
 Alpha virt. eigenvalues --    0.10919   0.11609   0.12059   0.12422   0.12857

  Beta  occ. eigenvalues --  -19.04706 -19.04242 -19.04209 -18.99549 -14.24573
  Beta  occ. eigenvalues --  -14.21229 -14.21093 -10.24007 -10.18208 -10.13737
  Beta  occ. eigenvalues --  -10.13407 -10.12726 -10.12084 -10.11964 -10.11567
  Beta  occ. eigenvalues --  -10.08658  -1.02094  -0.94820  -0.92906  -0.92720
  Beta  occ. eigenvalues --   -0.88243  -0.80233  -0.78551  -0.69310  -0.63127
  Beta  occ. eigenvalues --   -0.61120  -0.60021  -0.59630  -0.58354  -0.54632
  Beta  occ. eigenvalues --   -0.48875  -0.46218  -0.44478  -0.43801  -0.43094
  Beta  occ. eigenvalues --   -0.41799  -0.40911  -0.39067  -0.38145  -0.36778
  Beta  occ. eigenvalues --   -0.35800  -0.34690  -0.34206  -0.33979  -0.33205
  Beta  occ. eigenvalues --   -0.33036  -0.31850  -0.31359  -0.30437  -0.30146
  Beta  occ. eigenvalues --   -0.28989  -0.27909  -0.27502  -0.27066  -0.24459
  Beta  occ. eigenvalues --   -0.23189  -0.20657  -0.20383  -0.19200  -0.17932
  Beta  occ. eigenvalues --   -0.16408  -0.15210  -0.14037
  Beta virt. eigenvalues --    0.06340   0.07028   0.07175   0.07888   0.08588
  Beta virt. eigenvalues --    0.08945   0.09325   0.09777   0.10357   0.10501
  Beta virt. eigenvalues --    0.11171   0.11324   0.11882   0.12264   0.12471

 Mulliken charges and spin densities:
               1          2
     1  C    0.257304  -0.430593
     2  O   -0.053077   0.024683
     3  C   -1.816823   0.633887
     4  C    1.569326  -1.431942
     5  C   -0.914812   0.685292
     6  O   -0.321230   0.010326
     7  N   -0.003621   0.074632
     8  C   -0.118720  -0.342803
     9  N   -0.175087   0.148582
    10  C    0.651149  -1.040764
    11  N   -0.075842   0.102474
    12  C   -0.026603  -0.589582
    13  O   -0.109856   0.040477
    14  C    0.425206  -0.729135
    15  O   -0.064026   0.046620
    16  C    0.878783  -0.959057
    17  H   -0.067424   0.220322
    18  H    0.051120   0.107422
    19  H    0.128906   0.057064
    20  H   -0.038144   0.255938
    21  H    0.083484   0.182377
    22  H    0.136976   0.079672
    23  H    0.028525   0.151449
    24  H    0.011950   0.242797
    25  H   -0.034758   0.196153
    26  H   -0.558789   0.744234
    27  H   -0.231257   0.498338
    28  H    0.101028   0.093563
    29  H    0.135584   0.088356
    30  H    0.049030   0.137674
    31  H   -0.069386   0.233613
    32  H   -0.125796   0.299103
    33  H   -0.202927   0.353249
    34  H   -0.204204   0.355277
    35  H   -0.295988   0.460301
 Sum of Mulliken charges =  -1.00000   1.00000

 Dipole moment (field-independent basis, Debye):
    X=              1.3356    Y=              1.6758    Z=             -2.5293  Tot=              3.3150
 Quadrupole moment (field-independent basis, Debye-Ang):
   XX=           -187.1199   YY=           -138.4150   ZZ=           -135.1439
   XY=              5.5469   XZ=             10.6060   YZ=              2.3551

 Summary of Natural Population Analysis:

                                       Natural Population
                Natural  -----------------------------------------------
    Atom  No    Charge         Core      Valence    Rydberg      Total
 -----------------------------------------------------------------------
      C    1   -0.10718      0.99959     2.09953    0.00807     3.10718
      O    2   -0.31122      0.99985     3.30257    0.00881     4.31122
      C    3    0.45154      0.99959     1.52280    0.02606     2.54846
      C    4   -0.25620      0.99951     2.24530    0.01139     3.25620
      C    5    0.35070      0.99963     1.62415    0.02552     2.64930
      O    6   -0.32854      0.99988     3.32337    0.00529     4.32854
      N    7   -0.27309      0.99964     2.76221    0.01124     3.77309
      C    8    0.00311      0.99962     1.98469    0.01259     2.99689
      N    9   -0.34066      0.99975     2.82931    0.01160     3.84066
      C   10   -0.00238      0.99964     1.98678    0.01595     3.00238
      N   11   -0.33890      0.99975     2.82663    0.01252     3.83890
      C   12    0.00185      0.99961     1.98418    0.01437     2.99815
      O   13   -0.31407      0.99985     3.30440    0.00982     4.31407
      C   14   -0.10067      0.99958     2.09139    0.00970     3.10067
      O   15   -0.30776      0.99986     3.29806    0.00984     4.30776
      C   16   -0.10623      0.99959     2.09730    0.00934     3.10623
      H   17    0.08996      0.00000     0.40907    0.00097     0.41004
      H   18    0.08627      0.00000     0.41236    0.00138     0.41373
      H   19    0.09815      0.00000     0.40043    0.00142     0.40185
      H   20    0.11750      0.00000     0.38071    0.00178     0.38250
      H   21    0.11835      0.00000     0.38033    0.00132     0.38165
      H   22    0.11399      0.00000     0.38484    0.00117     0.38601
      H   23    0.08809      0.00000     0.41069    0.00122     0.41191
      H   24    0.17500      0.00000     0.32194    0.00305     0.32500
      H   25    0.08553      0.00000     0.41313    0.00134     0.41447
      H   26    0.09906      0.00000     0.39928    0.00166     0.40094
      H   27    0.17425      0.00000     0.32021    0.00554     0.32575
      H   28    0.09030      0.00000     0.40818    0.00152     0.40970
      H   29    0.11105      0.00000     0.38706    0.00189     0.38895
      H   30    0.08782      0.00000     0.41072    0.00145     0.41218
      H   31    0.08889      0.00000     0.40972    0.00139     0.41111
      H   32    0.08936      0.00000     0.40955    0.00109     0.41064
      H   33    0.08954      0.00000     0.40887    0.00160     0.41046
      H   34    0.08539      0.00000     0.41275    0.00186     0.41461
      H   35    0.09120      0.00000     0.40762    0.00118     0.40880
 =======================================================================
   * Total *   -0.00000     15.99494    46.77011    0.23495    63.00000

 Normal termination of Gaussian 16 at Fri Dec 11 02:39:36 2020.
