 Gaussian 16, Revision A.03,

 -----------------------------------------------------------
 # opt freq B3LYP/6-31G(d) empiricaldispersion=gd3bj scf=xqc
 -----------------------------------------------------------

 -------------------------------
 CID_150724127_JID_7572_neutraal
 -------------------------------
 Symbolic Z-matrix:
 Charge =  0 Multiplicity = 1

 SCF Done:  E(RB3LYP) =  -813.285445052     A.U. after   17 cycles
 SCF Done:  E(RB3LYP) =  -813.295750711     A.U. after   14 cycles
 SCF Done:  E(RB3LYP) =  -813.297506458     A.U. after   15 cycles
 SCF Done:  E(RB3LYP) =  -813.297956093     A.U. after   14 cycles
 SCF Done:  E(RB3LYP) =  -813.298837562     A.U. after   13 cycles
 SCF Done:  E(RB3LYP) =  -813.299062450     A.U. after   12 cycles
 SCF Done:  E(RB3LYP) =  -813.299088571     A.U. after   12 cycles
 SCF Done:  E(RB3LYP) =  -813.299097826     A.U. after   11 cycles
 SCF Done:  E(RB3LYP) =  -813.299099060     A.U. after    9 cycles
 SCF Done:  E(RB3LYP) =  -813.299099207     A.U. after    8 cycles
 Optimization completed.
    -- Stationary point found.
 Normal termination of Gaussian 16 at Fri Dec 11 12:25:45 2020.

 --------------------------------------------------------------------
 #N Geom=AllCheck Guess=TCheck SCRF=Check GenChk RB3LYP/6-31G(d) Freq
 --------------------------------------------------------------------

 Structure from the checkpoint file:  "JID_7572.chk"
 -------------------------------
 CID_150724127_JID_7572_neutraal
 -------------------------------
 Charge =  0 Multiplicity = 1

 SCF Done:  E(RB3LYP) =  -813.299099207     A.U. after    1 cycles

  Exact polarizability: 228.348   0.926 176.494   1.623  -4.826  53.660
 Approx polarizability: 369.848  -2.590 331.515   7.001 -17.493  89.722

                      1                      2                      3
                      A                      A                      A
 Frequencies --     40.3455                66.9745                79.5338
 Red. masses --     10.6896                 6.3302                11.9260
 Frc consts  --      0.0103                 0.0167                 0.0444
 IR Inten    --      0.8257                 1.0096                 1.0338

                      4                      5                      6
                      A                      A                      A
 Frequencies --     94.7992               136.2343               189.6038
 Red. masses --      7.6147                 9.1932                 4.6162
 Frc consts  --      0.0403                 0.1005                 0.0978
 IR Inten    --      0.6406                 0.9606                 6.9468

                      7                      8                      9
                      A                      A                      A
 Frequencies --    204.9588               228.2516               264.6760
 Red. masses --      8.7979                 8.9704                 6.7313
 Frc consts  --      0.2178                 0.2754                 0.2778
 IR Inten    --      5.9095                 2.1517                 4.8930

                     10                     11                     12
                      A                      A                      A
 Frequencies --    307.3005               323.7214               329.9701
 Red. masses --      3.7379                 1.4288                 1.1274
 Frc consts  --      0.2080                 0.0882                 0.0723
 IR Inten    --     18.7622                53.3746               131.8750

                     13                     14                     15
                      A                      A                      A
 Frequencies --    363.0896               384.0903               391.6323
 Red. masses --      4.5648                 7.8928                 5.4102
 Frc consts  --      0.3546                 0.6860                 0.4889
 IR Inten    --     12.2437                 2.5611                 0.5738

                     16                     17                     18
                      A                      A                      A
 Frequencies --    426.7397               461.9443               501.7736
 Red. masses --      3.7264                 4.3489                 4.3032
 Frc consts  --      0.3998                 0.5468                 0.6383
 IR Inten    --      0.8340                 2.2825                10.0605

                     19                     20                     21
                      A                      A                      A
 Frequencies --    519.5290               552.5069               571.7312
 Red. masses --     10.1750                 5.9796                 3.7670
 Frc consts  --      1.6181                 1.0755                 0.7255
 IR Inten    --      1.9650                 0.6595                 5.5259

                     22                     23                     24
                      A                      A                      A
 Frequencies --    583.6287               603.6732               631.0370
 Red. masses --     12.2542                 4.5358                 6.1280
 Frc consts  --      2.4593                 0.9739                 1.4377
 IR Inten    --     13.3389                13.8888                24.7320

                     25                     26                     27
                      A                      A                      A
 Frequencies --    669.2247               720.6550               731.8794
 Red. masses --      4.2864                 6.8727                 5.3191
 Frc consts  --      1.1311                 2.1030                 1.6787
 IR Inten    --     13.2966                 2.8727                 1.6054

                     28                     29                     30
                      A                      A                      A
 Frequencies --    779.4593               791.0689               805.6623
 Red. masses --      3.6859                 6.6892                 1.5718
 Frc consts  --      1.3194                 2.4663                 0.6011
 IR Inten    --      2.0467                30.8019                27.9889

                     31                     32                     33
                      A                      A                      A
 Frequencies --    828.6492               857.7351               871.8486
 Red. masses --      1.9526                 9.4824                 1.4711
 Frc consts  --      0.7900                 4.1103                 0.6588
 IR Inten    --     22.5921                18.8440                25.5439

                     34                     35                     36
                      A                      A                      A
 Frequencies --    923.7322               950.0930               959.3434
 Red. masses --      7.6670                 1.3037                 1.2982
 Frc consts  --      3.8545                 0.6934                 0.7039
 IR Inten    --     62.5053                 1.8944                 2.6995

                     37                     38                     39
                      A                      A                      A
 Frequencies --    986.3531              1031.0094              1131.9528
 Red. masses --      4.1063                 4.3642                 3.2816
 Frc consts  --      2.3538                 2.7332                 2.4773
 IR Inten    --     83.6667                39.4420               331.3390

                     40                     41                     42
                      A                      A                      A
 Frequencies --   1196.0246              1197.7809              1205.8684
 Red. masses --      1.4654                 1.3557                 1.4063
 Frc consts  --      1.2351                 1.1459                 1.2048
 IR Inten    --     33.5212                73.9025                70.7143

                     43                     44                     45
                      A                      A                      A
 Frequencies --   1240.3921              1263.5721              1286.0688
 Red. masses --      1.4205                 1.5872                 8.0691
 Frc consts  --      1.2877                 1.4931                 7.8633
 IR Inten    --     30.1372               104.1919               356.5678

                     46                     47                     48
                      A                      A                      A
 Frequencies --   1298.5107              1306.5891              1332.3616
 Red. masses --      2.2496                 8.2459                 2.2277
 Frc consts  --      2.2349                 8.2940                 2.3300
 IR Inten    --     11.3981               484.4874                13.1964

                     49                     50                     51
                      A                      A                      A
 Frequencies --   1405.3486              1418.7339              1453.2206
 Red. masses --      3.8046                 4.6108                 2.7462
 Frc consts  --      4.4271                 5.4680                 3.4170
 IR Inten    --    308.9981                 3.6259                 1.9271

                     52                     53                     54
                      A                      A                      A
 Frequencies --   1476.1688              1542.9725              1570.5660
 Red. masses --      3.2545                 2.9092                 3.8981
 Frc consts  --      4.1783                 4.0808                 5.6652
 IR Inten    --     12.4993                 3.5257               302.5388

                     55                     56                     57
                      A                      A                      A
 Frequencies --   1636.4655              1675.1822              1698.4549
 Red. masses --      6.8605                 5.8521                 5.9678
 Frc consts  --     10.8249                 9.6758                10.1431
 IR Inten    --     21.4773                49.0412                35.4939

                     58                     59                     60
                      A                      A                      A
 Frequencies --   1757.8400              2291.0597              3168.8517
 Red. masses --     12.7713                13.9897                 1.0900
 Frc consts  --     23.2512                43.2644                 6.4489
 IR Inten    --    200.1677               666.9570                27.5183

                     61                     62                     63
                      A                      A                      A
 Frequencies --   3169.6709              3199.1364              3209.3732
 Red. masses --      1.0884                 1.0940                 1.0910
 Frc consts  --      6.4424                 6.5966                 6.6206
 IR Inten    --      7.7652                12.0733                10.1893

                     64                     65                     66
                      A                      A                      A
 Frequencies --   3261.6558              3751.7209              3755.1362
 Red. masses --      1.0913                 1.0661                 1.0661
 Frc consts  --      6.8402                 8.8408                 8.8569
 IR Inten    --      2.0045                78.4216                51.1776

 - Thermochemistry -
 -------------------
 Temperature   298.150 Kelvin.  Pressure   1.00000 Atm.
 Atom     1 has atomic number  6 and mass  12.00000

 Molecular mass:   229.04874 amu.
 Principal axes and moments of inertia in atomic units:
                           1         2         3
     Eigenvalues --  2003.303065955.670157762.28902
           X            0.99991   0.01317   0.00147
           Y           -0.01316   0.99991  -0.00168
           Z           -0.00149   0.00166   1.00000
 This molecule is an asymmetric top.
 Rotational symmetry number  1.
 Warning -- assumption of classical behavior for rotation
           may cause significant error
 Rotational temperatures (Kelvin)      0.04324     0.01454     0.01116
 Rotational constants (GHZ):           0.90088     0.30303     0.23250
 Zero-point vibrational energy     443007.9 (Joules/Mol)
                                  105.88143 (Kcal/Mol)
 Warning -- explicit consideration of  23 degrees of freedom as
           vibrations may cause significant error
 Vibrational temperatures:     58.05    96.36   114.43   136.39   196.01
          (Kelvin)            272.80   294.89   328.40   380.81   442.14
                              465.76   474.75   522.41   552.62   563.47
                              613.98   664.63   721.94   747.49   794.93
                              822.59   839.71   868.55   907.92   962.87
                             1036.86  1053.01  1121.47  1138.17  1159.17
                             1192.24  1234.09  1254.40  1329.04  1366.97
                             1380.28  1419.14  1483.39  1628.63  1720.81
                             1723.34  1734.98  1784.65  1818.00  1850.37
                             1868.27  1879.89  1916.97  2021.98  2041.24
                             2090.86  2123.88  2219.99  2259.69  2354.51
                             2410.21  2443.70  2529.14  3296.32  4559.27
                             4560.45  4602.84  4617.57  4692.80  5397.89
                             5402.80

 Zero-point correction=                           0.168733 (Hartree/Particle)
 Thermal correction to Energy=                    0.182665
 Thermal correction to Enthalpy=                  0.183609
 Thermal correction to Gibbs Free Energy=         0.127512
 Sum of electronic and zero-point Energies=           -813.130366
 Sum of electronic and thermal Energies=              -813.116434
 Sum of electronic and thermal Enthalpies=            -813.115490
 Sum of electronic and thermal Free Energies=         -813.171588

                     E (Thermal)             CV                S
                      KCal/Mol        Cal/Mol-Kelvin    Cal/Mol-Kelvin
 Total                  114.624             53.555            118.067
 Electronic               0.000              0.000              0.000
 Translational            0.889              2.981             42.188
 Rotational               0.889              2.981             32.893
 Vibrational            112.846             47.593             42.986
 Vibration     1          0.594              1.981              5.242
 Vibration     2          0.598              1.970              4.240
 Vibration     3          0.600              1.963              3.902
 Vibration     4          0.603              1.953              3.559
 Vibration     5          0.614              1.917              2.856
 Vibration     6          0.633              1.854              2.232
 Vibration     7          0.640              1.833              2.088
 Vibration     8          0.651              1.798              1.893
 Vibration     9          0.671              1.738              1.631
 Vibration    10          0.697              1.660              1.377
 Vibration    11          0.708              1.628              1.291
 Vibration    12          0.713              1.616              1.260
 Vibration    13          0.737              1.548              1.109
 Vibration    14          0.753              1.504              1.023
 Vibration    15          0.759              1.488              0.994
 Vibration    16          0.788              1.412              0.869
 Vibration    17          0.820              1.334              0.760
 Vibration    18          0.857              1.246              0.654
 Vibration    19          0.875              1.207              0.611
 Vibration    20          0.908              1.134              0.539
 Vibration    21          0.928              1.092              0.501
 Vibration    22          0.941              1.067              0.479
 Vibration    23          0.962              1.024              0.443

 Optimization completed.
    -- Stationary point found.
 Normal termination of Gaussian 16 at Fri Dec 11 12:33:41 2020.

 ----------------------------------------------------------------------
 # B3LYP/6-311++G(d,p) empiricaldispersion=gd3bj scf=xqc pop=npa geom=c
 heck
 ----------------------------------------------------------------------

 ---------------------------------------
 CID_150724127_JID_7572_Energie_neutraal
 ---------------------------------------
 Structure from the checkpoint file:  "JID_7572.chk"
 Charge =  0 Multiplicity = 1

 SCF Done:  E(RB3LYP) =  -813.533490401     A.U. after   17 cycles
 Normal termination of Gaussian 16 at Fri Dec 11 12:37:28 2020.

 ----------------------------------------------------------------------
 # B3LYP/6-311++G(d,p) empiricaldispersion=gd3bj scf=xqc pop=npa geom=c
 heck
 ----------------------------------------------------------------------

 -------------------------------------
 CID_150724127_JID_7572_Energie_kation
 -------------------------------------
 Structure from the checkpoint file:  "JID_7572.chk"
 Charge =  1 Multiplicity = 2

 SCF Done:  E(UB3LYP) =  -813.251612401     A.U. after   22 cycles
 Normal termination of Gaussian 16 at Fri Dec 11 12:48:12 2020.
 Gaussian 16:  ES64L-G16RevA.03 25-Dec-2016

 ----------------------------------------------------------------------
 # B3LYP/6-311++G(d,p) empiricaldispersion=gd3bj scf=xqc pop=npa geom=c
 heck
 ----------------------------------------------------------------------

 ------------------------------------
 CID_150724127_JID_7572_Energie_anion
 ------------------------------------
 Structure from the checkpoint file:  "JID_7572.chk"
 Charge = -1 Multiplicity = 2

                         Standard orientation:
 ---------------------------------------------------------------------
 Center     Atomic      Atomic             Coordinates (Angstroms)
 Number     Number       Type             X           Y           Z
 ---------------------------------------------------------------------
      1          6           0       -2.391462   -1.796801    0.028854
      2          6           0       -1.070880   -1.421033    0.123596
      3          6           0       -0.690620   -0.053150    0.084692
      4          6           0       -1.738169    0.914319   -0.059376
      5          6           0       -1.396757    2.291261   -0.105298
      6          6           0       -0.093188    2.701100   -0.015381
      7          6           0        0.954001    1.755397    0.111642
      8          6           0        0.677253    0.391185    0.147219
      9          6           0        1.767653   -0.607673    0.274354
     10          8           0        1.715733   -1.624047    0.943300
     11          7           0        2.902314   -0.293681   -0.542312
     12          7           0        3.847465   -1.097021   -0.435004
     13          7           0        4.763774   -1.764601   -0.417566
     14          8           0        2.238213    2.185830    0.251725
     15          6           0       -3.088999    0.504654   -0.153027
     16          6           0       -3.416704   -0.832304   -0.109108
     17          8           0       -4.733751   -1.186231   -0.202140
     18          1           0       -2.652432   -2.853074    0.064591
     19          1           0       -0.310658   -2.179443    0.248014
     20          1           0       -2.191694    3.025030   -0.205717
     21          1           0        0.153494    3.760821   -0.034162
     22          1           0        2.250263    3.153602    0.193187
     23          1           0       -3.874405    1.245856   -0.261904
     24          1           0       -4.803752   -2.151820   -0.151933
 ---------------------------------------------------------------------

 SCF Done:  E(UB3LYP) =  -813.560871909     A.U. after   29 cycles

 The electronic state is 2-A.
 Alpha  occ. eigenvalues --  -19.04692 -19.02964 -18.94851 -14.34620 -14.25208
 Alpha  occ. eigenvalues --  -14.22489 -10.12473 -10.10881 -10.10051 -10.05144
 Alpha  occ. eigenvalues --  -10.04962 -10.04578 -10.04161 -10.03877 -10.03790
 Alpha  occ. eigenvalues --  -10.03688 -10.03327  -1.01343  -0.95585  -0.94303
 Alpha  occ. eigenvalues --   -0.90451  -0.83478  -0.74133  -0.68944  -0.65070
 Alpha  occ. eigenvalues --   -0.61147  -0.60542  -0.55104  -0.50984  -0.49777
 Alpha  occ. eigenvalues --   -0.47303  -0.45152  -0.42148  -0.39058  -0.38519
 Alpha  occ. eigenvalues --   -0.37961  -0.35705  -0.35322  -0.33295  -0.32891
 Alpha  occ. eigenvalues --   -0.31946  -0.31000  -0.29985  -0.28820  -0.28682
 Alpha  occ. eigenvalues --   -0.27748  -0.27237  -0.25703  -0.23833  -0.23535
 Alpha  occ. eigenvalues --   -0.23411  -0.21387  -0.19108  -0.17896  -0.14711
 Alpha  occ. eigenvalues --   -0.14001  -0.11983  -0.11123  -0.07913   0.02895
 Alpha virt. eigenvalues --    0.07275   0.07855   0.08770   0.09430   0.09806
 Alpha virt. eigenvalues --    0.10921   0.11803   0.12179   0.13216   0.13845
 Alpha virt. eigenvalues --    0.14069   0.15464   0.15752   0.16299   0.17134

  Beta  occ. eigenvalues --  -19.04703 -19.02913 -18.94494 -14.34450 -14.24949
  Beta  occ. eigenvalues --  -14.22621 -10.12198 -10.10938 -10.09913 -10.05225
  Beta  occ. eigenvalues --  -10.04881 -10.04439 -10.04121 -10.03754 -10.03747
  Beta  occ. eigenvalues --  -10.03613 -10.02983  -1.01018  -0.95609  -0.94175
  Beta  occ. eigenvalues --   -0.89899  -0.83253  -0.73917  -0.68661  -0.64669
  Beta  occ. eigenvalues --   -0.60828  -0.60316  -0.54573  -0.50854  -0.49500
  Beta  occ. eigenvalues --   -0.47047  -0.44993  -0.42028  -0.38848  -0.37936
  Beta  occ. eigenvalues --   -0.37558  -0.35390  -0.35150  -0.33065  -0.32500
  Beta  occ. eigenvalues --   -0.31720  -0.30679  -0.29873  -0.28549  -0.28155
  Beta  occ. eigenvalues --   -0.27647  -0.27079  -0.24621  -0.23689  -0.23226
  Beta  occ. eigenvalues --   -0.22770  -0.21206  -0.19000  -0.16972  -0.14048
  Beta  occ. eigenvalues --   -0.13228  -0.11646  -0.10334  -0.06914
  Beta virt. eigenvalues --    0.07252   0.07832   0.08108   0.09540   0.09863
  Beta virt. eigenvalues --    0.10611   0.10938   0.11783   0.12417   0.13735
  Beta virt. eigenvalues --    0.14035   0.14115   0.15693   0.15800   0.16321

 Mulliken charges and spin densities:
               1          2
     1  C   -0.214794   0.106257
     2  C   -0.579936   0.005405
     3  C    0.803904   0.054793
     4  C    0.303414  -0.060022
     5  C   -0.290493   0.246458
     6  C   -0.235420   0.041220
     7  C   -0.543385   0.094658
     8  C    0.640154   0.021302
     9  C   -0.298990   0.203391
    10  O   -0.338794   0.125549
    11  N    0.460500  -0.076562
    12  N    0.079163   0.058245
    13  N   -0.499313   0.138298
    14  O   -0.192889   0.016464
    15  C   -0.547511   0.109860
    16  C   -0.282080  -0.046836
    17  O   -0.261429  -0.000768
    18  H    0.094082  -0.009584
    19  H    0.139650  -0.000256
    20  H    0.085923  -0.021626
    21  H    0.070317  -0.004362
    22  H    0.245485   0.003944
    23  H    0.111311  -0.005583
    24  H    0.251132  -0.000244
 Sum of Mulliken charges =  -1.00000   1.00000

 Dipole moment (field-independent basis, Debye):
    X=             -3.5567    Y=              2.4781    Z=             -0.9226  Tot=              4.4320
 Quadrupole moment (field-independent basis, Debye-Ang):
   XX=           -146.4610   YY=           -101.7588   ZZ=           -108.1965
   XY=             19.4431   XZ=             -1.3636   YZ=              2.8387

 Summary of Natural Population Analysis:

                                       Natural Population
                Natural  -----------------------------------------------
    Atom  No    Charge         Core      Valence    Rydberg      Total
 -----------------------------------------------------------------------
      C    1   -0.11394      0.99953     2.10538    0.00903     3.11394
      C    2   -0.08526      0.99957     2.07627    0.00943     3.08526
      C    3    0.00285      0.99940     1.98862    0.00913     2.99715
      C    4   -0.04305      0.99939     2.03524    0.00842     3.04305
      C    5   -0.01063      0.99943     2.00216    0.00903     3.01063
      C    6   -0.14153      0.99956     2.13177    0.01020     3.14153
      C    7    0.19577      0.99937     1.79295    0.01191     2.80423
      C    8   -0.07962      0.99942     2.07004    0.01017     3.07962
      C    9    0.36406      0.99963     1.61312    0.02319     2.63594
      O   10   -0.27834      0.99987     3.27143    0.00704     4.27834
      N   11   -0.22014      0.99967     2.70532    0.01515     3.72014
      N   12    0.14701      0.99971     2.33602    0.01725     3.35299
      N   13   -0.01236      0.99981     2.49917    0.01338     3.51236
      O   14   -0.33112      0.99987     3.32464    0.00661     4.33112
      C   15   -0.09423      0.99941     2.08552    0.00930     3.09423
      C   16    0.12923      0.99938     1.85896    0.01242     2.87077
      O   17   -0.35003      0.99988     3.34369    0.00647     4.35003
      H   18    0.08763      0.00000     0.41108    0.00128     0.41237
      H   19    0.11382      0.00000     0.38437    0.00181     0.38618
      H   20    0.08556      0.00000     0.41205    0.00239     0.41444
      H   21    0.08657      0.00000     0.41198    0.00145     0.41343
      H   22    0.22535      0.00000     0.27202    0.00262     0.27465
      H   23    0.09448      0.00000     0.40338    0.00214     0.40552
      H   24    0.22791      0.00000     0.26965    0.00244     0.27209
 =======================================================================
   * Total *    0.00001     16.99290    41.80485    0.20224    58.99999

 Normal termination of Gaussian 16 at Fri Dec 11 12:59:12 2020.
