 Gaussian 16, Revision A.03,

 -----------------------------------------------------------
 # opt freq B3LYP/6-31G(d) empiricaldispersion=gd3bj scf=xqc
 -----------------------------------------------------------

 ------------------------------
 CID_64629192_JID_6345_neutraal
 ------------------------------
 Symbolic Z-matrix:
 Charge =  0 Multiplicity = 1

 SCF Done:  E(RB3LYP) =  -1076.94407796     A.U. after   14 cycles
 SCF Done:  E(RB3LYP) =  -1076.94874294     A.U. after   12 cycles
 SCF Done:  E(RB3LYP) =  -1076.94989299     A.U. after   11 cycles
 SCF Done:  E(RB3LYP) =  -1076.95061404     A.U. after   13 cycles
 SCF Done:  E(RB3LYP) =  -1076.95086983     A.U. after   11 cycles
 SCF Done:  E(RB3LYP) =  -1076.95108970     A.U. after   12 cycles
 SCF Done:  E(RB3LYP) =  -1076.95114587     A.U. after   12 cycles
 SCF Done:  E(RB3LYP) =  -1076.95123440     A.U. after   11 cycles
 SCF Done:  E(RB3LYP) =  -1076.95124705     A.U. after   10 cycles
 SCF Done:  E(RB3LYP) =  -1076.95125672     A.U. after   10 cycles
 SCF Done:  E(RB3LYP) =  -1076.95126681     A.U. after    9 cycles
 SCF Done:  E(RB3LYP) =  -1076.95126794     A.U. after    9 cycles
 SCF Done:  E(RB3LYP) =  -1076.95126821     A.U. after    8 cycles
 SCF Done:  E(RB3LYP) =  -1076.95126835     A.U. after    7 cycles
 SCF Done:  E(RB3LYP) =  -1076.95126840     A.U. after    8 cycles
 SCF Done:  E(RB3LYP) =  -1076.95126841     A.U. after    6 cycles
 Optimization completed.
    -- Stationary point found.
 Normal termination of Gaussian 16 at Thu Dec 10 22:25:53 2020.

 --------------------------------------------------------------------
 #N Geom=AllCheck Guess=TCheck SCRF=Check GenChk RB3LYP/6-31G(d) Freq
 --------------------------------------------------------------------

 Structure from the checkpoint file:  "JID_6345.chk"
 ------------------------------
 CID_64629192_JID_6345_neutraal
 ------------------------------
 Charge =  0 Multiplicity = 1

 SCF Done:  E(RB3LYP) =  -1076.95126841     A.U. after    1 cycles

  Exact polarizability: 187.106   1.151 147.931   1.344   0.362 135.112
 Approx polarizability: 222.488  -0.481 210.362   5.594  -0.002 218.898

                      1                      2                      3
                      A                      A                      A
 Frequencies --     12.1060                21.4277                36.3534
 Red. masses --      4.2659                 4.6287                 4.3671
 Frc consts  --      0.0004                 0.0013                 0.0034
 IR Inten    --      1.4843                 2.4386                 1.0831

                      4                      5                      6
                      A                      A                      A
 Frequencies --     46.4066                59.4798                67.8026
 Red. masses --      3.1378                 3.3103                 4.3026
 Frc consts  --      0.0040                 0.0069                 0.0117
 IR Inten    --      0.0107                 0.1121                 1.4345

                      7                      8                      9
                      A                      A                      A
 Frequencies --     86.5353               120.9232               136.0286
 Red. masses --      2.5732                 2.7394                 2.7638
 Frc consts  --      0.0114                 0.0236                 0.0301
 IR Inten    --      0.0962                 4.1051                 3.1298

                     10                     11                     12
                      A                      A                      A
 Frequencies --    172.7933               189.2011               198.4578
 Red. masses --      2.5290                 1.4546                 2.6098
 Frc consts  --      0.0445                 0.0307                 0.0606
 IR Inten    --      0.0300                 2.5544                 2.3075

                     13                     14                     15
                      A                      A                      A
 Frequencies --    209.1217               238.6403               245.1462
 Red. masses --      1.4985                 1.6979                 1.4343
 Frc consts  --      0.0386                 0.0570                 0.0508
 IR Inten    --      0.1899                 0.4001                 0.1912

                     16                     17                     18
                      A                      A                      A
 Frequencies --    257.2697               278.7192               286.1620
 Red. masses --      1.5513                 2.9160                 4.0183
 Frc consts  --      0.0605                 0.1335                 0.1939
 IR Inten    --      0.8331                 0.2269                 1.1291

                     19                     20                     21
                      A                      A                      A
 Frequencies --    308.4069               310.3617               339.6338
 Red. masses --      2.2126                 1.8012                 3.4675
 Frc consts  --      0.1240                 0.1022                 0.2357
 IR Inten    --      0.7493                 0.1090                 1.2963

                     22                     23                     24
                      A                      A                      A
 Frequencies --    355.8568               387.5528               421.0256
 Red. masses --      2.1974                 1.9415                 2.0389
 Frc consts  --      0.1640                 0.1718                 0.2129
 IR Inten    --      1.0533                 2.1284                 6.3216

                     25                     26                     27
                      A                      A                      A
 Frequencies --    450.6791               454.6479               488.8651
 Red. masses --      2.5130                 3.5065                 2.8979
 Frc consts  --      0.3007                 0.4270                 0.4081
 IR Inten    --      7.4775                24.4625                18.9249

                     28                     29                     30
                      A                      A                      A
 Frequencies --    506.0061               525.9067               568.4520
 Red. masses --      2.6216                 3.4994                 2.6297
 Frc consts  --      0.3955                 0.5702                 0.5007
 IR Inten    --     11.5409                 5.8818                 0.1236

                     31                     32                     33
                      A                      A                      A
 Frequencies --    680.4464               712.0998               735.6398
 Red. masses --      4.2382                 1.2625                 1.5080
 Frc consts  --      1.1562                 0.3772                 0.4808
 IR Inten    --     13.5536                13.2032                 0.8790

                     34                     35                     36
                      A                      A                      A
 Frequencies --    758.2028               779.4072               787.3293
 Red. masses --      2.9280                 1.8785                 1.5314
 Frc consts  --      0.9917                 0.6723                 0.5593
 IR Inten    --     16.6510                26.3587                22.6897

                     37                     38                     39
                      A                      A                      A
 Frequencies --    823.9725               852.9362               883.4879
 Red. masses --      2.2707                 1.5823                 1.7078
 Frc consts  --      0.9083                 0.6782                 0.7854
 IR Inten    --      2.5882                 7.5876                23.1027

                     40                     41                     42
                      A                      A                      A
 Frequencies --    895.6583               901.3118               932.7312
 Red. masses --      1.9716                 1.6878                 1.5956
 Frc consts  --      0.9319                 0.8079                 0.8179
 IR Inten    --     17.6311                 4.2516                 2.9536

                     43                     44                     45
                      A                      A                      A
 Frequencies --    950.0358               977.0118               990.7790
 Red. masses --      1.7663                 1.6352                 1.6655
 Frc consts  --      0.9393                 0.9197                 0.9633
 IR Inten    --      1.9790                 5.0040                 1.4579

                     46                     47                     48
                      A                      A                      A
 Frequencies --    998.4013              1004.3812              1013.5203
 Red. masses --      1.4127                 1.4204                 1.5882
 Frc consts  --      0.8297                 0.8442                 0.9612
 IR Inten    --     13.9589                22.0002                 6.4439

                     49                     50                     51
                      A                      A                      A
 Frequencies --   1037.5157              1066.7031              1071.9566
 Red. masses --      1.7345                 1.7402                 2.0282
 Frc consts  --      1.1001                 1.1667                 1.3731
 IR Inten    --      1.9291                 3.5848                29.5349

                     52                     53                     54
                      A                      A                      A
 Frequencies --   1077.8744              1100.4586              1106.3153
 Red. masses --      1.5730                 2.2114                 1.8138
 Frc consts  --      1.0768                 1.5779                 1.3080
 IR Inten    --      5.9526                16.3669                 2.2570

                     55                     56                     57
                      A                      A                      A
 Frequencies --   1126.9816              1134.5752              1153.9349
 Red. masses --      2.9549                 2.6312                 2.2208
 Frc consts  --      2.2112                 1.9956                 1.7423
 IR Inten    --    114.7519                38.3268                 7.1135

                     58                     59                     60
                      A                      A                      A
 Frequencies --   1164.5791              1191.0323              1203.1717
 Red. masses --      2.0323                 1.9583                 1.3744
 Frc consts  --      1.6239                 1.6367                 1.1723
 IR Inten    --     10.3430                58.3095                 6.9880

                     61                     62                     63
                      A                      A                      A
 Frequencies --   1213.2782              1243.9612              1266.6603
 Red. masses --      1.4484                 1.4022                 1.3090
 Frc consts  --      1.2562                 1.2784                 1.2374
 IR Inten    --      7.2017                 1.2437                 0.6563

                     64                     65                     66
                      A                      A                      A
 Frequencies --   1285.9592              1292.7566              1312.6695
 Red. masses --      1.7007                 1.3954                 2.1306
 Frc consts  --      1.6570                 1.3740                 2.1631
 IR Inten    --     42.0514                 3.9970                87.3659

                     67                     68                     69
                      A                      A                      A
 Frequencies --   1314.3753              1330.9614              1351.0425
 Red. masses --      1.5863                 1.1613                 1.1164
 Frc consts  --      1.6147                 1.2121                 1.2006
 IR Inten    --     59.8721                 0.3357                 0.6791

                     70                     71                     72
                      A                      A                      A
 Frequencies --   1361.1347              1372.2068              1379.5395
 Red. masses --      1.2177                 1.3084                 1.3818
 Frc consts  --      1.3292                 1.4516                 1.5494
 IR Inten    --     17.5260                 6.5736                20.1893

                     73                     74                     75
                      A                      A                      A
 Frequencies --   1386.4417              1391.8218              1404.1654
 Red. masses --      1.5335                 1.3120                 1.3460
 Frc consts  --      1.7367                 1.4974                 1.5636
 IR Inten    --      4.1704                11.6512                 1.9582

                     76                     77                     78
                      A                      A                      A
 Frequencies --   1409.2337              1423.1190              1426.2579
 Red. masses --      1.4547                 1.4059                 1.4221
 Frc consts  --      1.7022                 1.6776                 1.7044
 IR Inten    --      0.2955                 2.1522                 2.5662

                     79                     80                     81
                      A                      A                      A
 Frequencies --   1435.9357              1443.8845              1444.2644
 Red. masses --      1.2319                 1.2904                 1.3273
 Frc consts  --      1.4966                 1.5850                 1.6313
 IR Inten    --      6.8190                 4.3196                 1.5085

                     82                     83                     84
                      A                      A                      A
 Frequencies --   1471.3688              1477.2314              1502.6536
 Red. masses --      1.0809                 1.0769                 1.0988
 Frc consts  --      1.3788                 1.3845                 1.4618
 IR Inten    --      6.1177                13.0965                 9.8186

                     85                     86                     87
                      A                      A                      A
 Frequencies --   1504.6934              1511.1765              1514.0613
 Red. masses --      1.0598                 1.1339                 1.0826
 Frc consts  --      1.4138                 1.5257                 1.4622
 IR Inten    --      2.4975                21.9024                 3.3951

                     88                     89                     90
                      A                      A                      A
 Frequencies --   1519.0581              1524.2234              1526.3825
 Red. masses --      1.0801                 1.0623                 1.0616
 Frc consts  --      1.4684                 1.4541                 1.4573
 IR Inten    --      0.8593                 0.0187                15.3518

                     91                     92                     93
                      A                      A                      A
 Frequencies --   1530.4451              1531.2092              1535.3470
 Red. masses --      1.0590                 1.0845                 1.0718
 Frc consts  --      1.4615                 1.4981                 1.4886
 IR Inten    --      4.7621                 9.3878                 8.9811

                     94                     95                     96
                      A                      A                      A
 Frequencies --   1543.3267              1545.6391              1551.9149
 Red. masses --      1.0705                 1.0965                 1.0857
 Frc consts  --      1.5023                 1.5434                 1.5406
 IR Inten    --      5.3705                 3.1526                12.0949

                     97                     98                     99
                      A                      A                      A
 Frequencies --   2965.7560              3028.0590              3029.1948
 Red. masses --      1.0723                 1.0656                 1.0625
 Frc consts  --      5.5567                 5.7568                 5.7442
 IR Inten    --     65.2637                16.4234                22.2236

                    100                    101                    102
                      A                      A                      A
 Frequencies --   3034.1621              3036.6735              3042.0308
 Red. masses --      1.0662                 1.0629                 1.0386
 Frc consts  --      5.7830                 5.7747                 5.6626
 IR Inten    --     32.8481                20.5918                22.1816

                    103                    104                    105
                      A                      A                      A
 Frequencies --   3043.9877              3046.1478              3050.0618
 Red. masses --      1.0501                 1.0504                 1.0624
 Frc consts  --      5.7326                 5.7427                 5.8230
 IR Inten    --      7.2605                27.6623                 1.5094

                    106                    107                    108
                      A                      A                      A
 Frequencies --   3059.2767              3062.0441              3069.7289
 Red. masses --      1.0999                 1.0957                 1.0973
 Frc consts  --      6.0652                 6.0531                 6.0921
 IR Inten    --      3.7390                20.6380                60.4999

                    109                    110                    111
                      A                      A                      A
 Frequencies --   3074.8316              3078.1839              3079.6913
 Red. masses --      1.0606                 1.0934                 1.0831
 Frc consts  --      5.9079                 6.1040                 6.0527
 IR Inten    --      5.6832                60.0979               149.2672

                    112                    113                    114
                      A                      A                      A
 Frequencies --   3080.3427              3082.3136              3089.1239
 Red. masses --      1.0479                 1.0899                 1.1018
 Frc consts  --      5.8585                 6.1010                 6.1949
 IR Inten    --     25.6054                24.9158                34.9401

                    115                    116                    117
                      A                      A                      A
 Frequencies --   3089.9010              3110.1995              3111.5336
 Red. masses --      1.0851                 1.1017                 1.0982
 Frc consts  --      6.1040                 6.2788                 6.2645
 IR Inten    --      4.7114                48.2654                27.0984

                    118                    119                    120
                      A                      A                      A
 Frequencies --   3116.4465              3125.2935              3135.4399
 Red. masses --      1.1019                 1.1023                 1.1045
 Frc consts  --      6.3055                 6.3435                 6.3975
 IR Inten    --     50.1592                29.2484                 9.7130

                    121                    122                    123
                      A                      A                      A
 Frequencies --   3182.2103              3197.1138              3478.2608
 Red. masses --      1.1067                 1.1084                 1.0728
 Frc consts  --      6.6028                 6.6754                 7.6469
 IR Inten    --      1.8327                 8.0670                 0.5497

 - Thermochemistry -
 -------------------
 Temperature   298.150 Kelvin.  Pressure   1.00000 Atm.
 Atom     1 has atomic number  6 and mass  12.00000

 Molecular mass:   249.17625 amu.
 Principal axes and moments of inertia in atomic units:
                           1         2         3
     Eigenvalues --  1537.89775********************
           X            1.00000  -0.00272   0.00010
           Y            0.00272   0.99995   0.00910
           Z           -0.00013  -0.00910   0.99996
 This molecule is an asymmetric top.
 Rotational symmetry number  1.
 Warning -- assumption of classical behavior for rotation
           may cause significant error
 Rotational temperatures (Kelvin)      0.05632     0.00697     0.00669
 Rotational constants (GHZ):           1.17351     0.14515     0.13933
 Zero-point vibrational energy    1026807.6 (Joules/Mol)
                                  245.41291 (Kcal/Mol)
 Warning -- explicit consideration of  30 degrees of freedom as
           vibrations may cause significant error
 Vibrational temperatures:     17.42    30.83    52.30    66.77    85.58
          (Kelvin)             97.55   124.51   173.98   195.71   248.61
                              272.22   285.54   300.88   343.35   352.71
                              370.15   401.01   411.72   443.73   446.54
                              488.66   512.00   557.60   605.76   648.43
                              654.14   703.37   728.03   756.66   817.88
                              979.01  1024.55  1058.42  1090.88  1121.39
                             1132.79  1185.51  1227.18  1271.14  1288.65
                             1296.79  1341.99  1366.89  1405.70  1425.51
                             1436.48  1445.08  1458.23  1492.75  1534.75
                             1542.31  1550.82  1583.31  1591.74  1621.48
                             1632.40  1660.26  1675.57  1713.63  1731.10
                             1745.64  1789.78  1822.44  1850.21  1859.99
                             1888.64  1891.09  1914.96  1943.85  1958.37
                             1974.30  1984.85  1994.78  2002.52  2020.28
                             2027.57  2047.55  2052.07  2065.99  2077.43
                             2077.97  2116.97  2125.41  2161.98  2164.92
                             2174.25  2178.40  2185.59  2193.02  2196.12
                             2201.97  2203.07  2209.02  2220.50  2223.83
                             2232.86  4267.06  4356.70  4358.34  4365.48
                             4369.10  4376.80  4379.62  4382.73  4388.36
                             4401.62  4405.60  4416.66  4424.00  4428.82
                             4430.99  4431.93  4434.76  4444.56  4445.68
                             4474.88  4476.80  4483.87  4496.60  4511.20
                             4578.49  4599.93  5004.44

 Zero-point correction=                           0.391090 (Hartree/Particle)
 Thermal correction to Energy=                    0.411056
 Thermal correction to Enthalpy=                  0.412000
 Thermal correction to Gibbs Free Energy=         0.339891
 Sum of electronic and zero-point Energies=          -1076.560178
 Sum of electronic and thermal Energies=             -1076.540213
 Sum of electronic and thermal Enthalpies=           -1076.539269
 Sum of electronic and thermal Free Energies=        -1076.611377

                     E (Thermal)             CV                S
                      KCal/Mol        Cal/Mol-Kelvin    Cal/Mol-Kelvin
 Total                  257.941             73.572            151.765
 Electronic               0.000              0.000              0.000
 Translational            0.889              2.981             42.439
 Rotational               0.889              2.981             33.870
 Vibrational            256.164             67.610             75.455
 Vibration     1          0.593              1.987              7.631
 Vibration     2          0.593              1.985              6.497
 Vibration     3          0.594              1.982              5.449
 Vibration     4          0.595              1.979              4.965
 Vibration     5          0.597              1.974              4.474
 Vibration     6          0.598              1.970              4.216
 Vibration     7          0.601              1.959              3.737
 Vibration     8          0.609              1.932              3.086
 Vibration     9          0.614              1.917              2.859
 Vibration    10          0.626              1.876              2.405
 Vibration    11          0.633              1.855              2.236
 Vibration    12          0.637              1.842              2.147
 Vibration    13          0.642              1.827              2.051
 Vibration    14          0.657              1.781              1.813
 Vibration    15          0.660              1.771              1.765
 Vibration    16          0.667              1.750              1.680
 Vibration    17          0.679              1.713              1.542
 Vibration    18          0.684              1.699              1.497
 Vibration    19          0.698              1.658              1.371
 Vibration    20          0.699              1.654              1.360
 Vibration    21          0.720              1.596              1.214
 Vibration    22          0.731              1.563              1.140
 Vibration    23          0.756              1.497              1.010
 Vibration    24          0.784              1.425              0.888
 Vibration    25          0.809              1.359              0.794
 Vibration    26          0.813              1.351              0.782
 Vibration    27          0.845              1.275              0.687
 Vibration    28          0.861              1.237              0.643
 Vibration    29          0.881              1.193              0.596
 Vibration    30          0.924              1.099              0.507

 Optimization completed.
    -- Stationary point found.
 Normal termination of Gaussian 16 at Thu Dec 10 22:40:12 2020.

 ----------------------------------------------------------------------
 # B3LYP/6-311++G(d,p) empiricaldispersion=gd3bj scf=xqc pop=npa geom=c
 heck
 ----------------------------------------------------------------------

 --------------------------------------
 CID_64629192_JID_6345_Energie_neutraal
 --------------------------------------
 Structure from the checkpoint file:  "JID_6345.chk"
 Charge =  0 Multiplicity = 1

 SCF Done:  E(RB3LYP) =  -1077.17752838     A.U. after   14 cycles
 Normal termination of Gaussian 16 at Thu Dec 10 22:48:07 2020.

 ----------------------------------------------------------------------
 # B3LYP/6-311++G(d,p) empiricaldispersion=gd3bj scf=xqc pop=npa geom=c
 heck
 ----------------------------------------------------------------------

 ------------------------------------
 CID_64629192_JID_6345_Energie_kation
 ------------------------------------
 Structure from the checkpoint file:  "JID_6345.chk"
 Charge =  1 Multiplicity = 2

 SCF Done:  E(UB3LYP) =  -1076.85684112     A.U. after   24 cycles
 Normal termination of Gaussian 16 at Thu Dec 10 23:07:40 2020.
 Gaussian 16:  ES64L-G16RevA.03 25-Dec-2016

 ----------------------------------------------------------------------
 # B3LYP/6-311++G(d,p) empiricaldispersion=gd3bj scf=xqc pop=npa geom=c
 heck
 ----------------------------------------------------------------------

 -----------------------------------
 CID_64629192_JID_6345_Energie_anion
 -----------------------------------
 Structure from the checkpoint file:  "JID_6345.chk"
 Charge = -1 Multiplicity = 2

                         Standard orientation:
 ---------------------------------------------------------------------
 Center     Atomic      Atomic             Coordinates (Angstroms)
 Number     Number       Type             X           Y           Z
 ---------------------------------------------------------------------
      1          6           0        6.462140    0.404813   -0.889720
      2          6           0        5.647682   -0.800894   -0.411717
      3          6           0        4.773180   -0.513908    0.818375
      4          6           0        3.730818    0.600464    0.632929
      5          6           0        2.751534    0.383815   -0.531491
      6          6           0        1.954574   -0.929312   -0.473243
      7          6           0        1.109723   -1.124477    0.796929
      8          6           0        0.137101    0.016736    1.101992
      9          7           0       -0.816931    0.212636    0.008763
     10          6           0       -1.782367    1.295084    0.235786
     11          6           0       -1.212735    2.696018   -0.034983
     12          6           0       -3.034031    1.055671   -0.609600
     13         16           0       -4.002874   -0.399344   -0.088878
     14          8           0       -3.909579   -0.499284    1.378786
     15          8           0       -5.317148   -0.285812   -0.744743
     16          6           0       -3.144750   -1.816976   -0.800048
     17          1           0        5.816438    1.218590   -1.238248
     18          1           0        7.123519    0.131349   -1.719241
     19          1           0        7.087353    0.802663   -0.080777
     20          1           0        5.021526   -1.167508   -1.235941
     21          1           0        6.331854   -1.623571   -0.166348
     22          1           0        4.267471   -1.441534    1.117286
     23          1           0        5.424500   -0.241554    1.660387
     24          1           0        3.168137    0.709487    1.569028
     25          1           0        4.242874    1.559161    0.482045
     26          1           0        2.057212    1.234895   -0.564434
     27          1           0        3.300270    0.414552   -1.481442
     28          1           0        1.303562   -0.988229   -1.356475
     29          1           0        2.641551   -1.779433   -0.565501
     30          1           0        0.539230   -2.056854    0.703223
     31          1           0        1.770137   -1.246972    1.664255
     32          1           0       -0.444826   -0.235602    1.995620
     33          1           0        0.705475    0.932483    1.342408
     34          1           0       -0.308610    0.403987   -0.853989
     35          1           0       -2.089482    1.228247    1.284532
     36          1           0       -0.944952    2.809950   -1.093463
     37          1           0       -1.935642    3.480295    0.215119
     38          1           0       -0.311534    2.867291    0.562836
     39          1           0       -3.750722    1.877133   -0.510596
     40          1           0       -2.805678    0.933076   -1.674175
     41          1           0       -3.229084   -1.772079   -1.887767
     42          1           0       -2.104729   -1.767031   -0.475539
     43          1           0       -3.654746   -2.703186   -0.415691
 ---------------------------------------------------------------------

 SCF Done:  E(UB3LYP) =  -1077.17134536     A.U. after   26 cycles

 The electronic state is 2-A.
 Alpha  occ. eigenvalues --  -88.95262 -19.02173 -19.02032 -14.21413 -10.12709
 Alpha  occ. eigenvalues --  -10.11916 -10.11170 -10.10595 -10.07982 -10.07858
 Alpha  occ. eigenvalues --  -10.07850 -10.07733 -10.07504 -10.07450 -10.07219
 Alpha  occ. eigenvalues --  -10.07174  -8.01763  -5.98020  -5.97914  -5.97865
 Alpha  occ. eigenvalues --   -1.01322  -0.90997  -0.83179  -0.73114  -0.71672
 Alpha  occ. eigenvalues --   -0.69264  -0.67706  -0.64777  -0.62786  -0.60763
 Alpha  occ. eigenvalues --   -0.57168  -0.53596  -0.52527  -0.50036  -0.48754
 Alpha  occ. eigenvalues --   -0.45045  -0.42265  -0.41073  -0.40268  -0.39418
 Alpha  occ. eigenvalues --   -0.38359  -0.37980  -0.37549  -0.36144  -0.34659
 Alpha  occ. eigenvalues --   -0.34273  -0.34096  -0.33671  -0.32506  -0.32171
 Alpha  occ. eigenvalues --   -0.31784  -0.31058  -0.30264  -0.29119  -0.28911
 Alpha  occ. eigenvalues --   -0.28409  -0.27020  -0.26135  -0.25354  -0.25017
 Alpha  occ. eigenvalues --   -0.24546  -0.24082  -0.22854  -0.22790  -0.22159
 Alpha  occ. eigenvalues --   -0.22109  -0.21188  -0.19944  -0.14914   0.03613
 Alpha virt. eigenvalues --    0.05493   0.06215   0.06665   0.07479   0.07849
 Alpha virt. eigenvalues --    0.07884   0.09058   0.09209   0.09384   0.10128
 Alpha virt. eigenvalues --    0.10330   0.10516   0.10946   0.11518   0.11732

  Beta  occ. eigenvalues --  -88.95258 -19.02165 -19.02029 -14.21389 -10.12706
  Beta  occ. eigenvalues --  -10.11887 -10.11142 -10.10587 -10.07976 -10.07835
  Beta  occ. eigenvalues --  -10.07815 -10.07723 -10.07485 -10.07439 -10.07196
  Beta  occ. eigenvalues --  -10.07148  -8.01758  -5.98017  -5.97910  -5.97862
  Beta  occ. eigenvalues --   -1.01305  -0.90979  -0.83149  -0.73086  -0.71642
  Beta  occ. eigenvalues --   -0.69231  -0.67668  -0.64742  -0.62724  -0.60720
  Beta  occ. eigenvalues --   -0.57123  -0.53548  -0.52472  -0.49987  -0.48707
  Beta  occ. eigenvalues --   -0.44993  -0.42237  -0.41046  -0.40241  -0.39394
  Beta  occ. eigenvalues --   -0.38333  -0.37949  -0.37518  -0.36113  -0.34623
  Beta  occ. eigenvalues --   -0.34231  -0.34061  -0.33647  -0.32472  -0.32134
  Beta  occ. eigenvalues --   -0.31750  -0.31033  -0.30232  -0.29089  -0.28878
  Beta  occ. eigenvalues --   -0.28382  -0.26980  -0.26097  -0.25318  -0.24989
  Beta  occ. eigenvalues --   -0.24527  -0.24067  -0.22843  -0.22770  -0.22126
  Beta  occ. eigenvalues --   -0.22078  -0.21179  -0.19928  -0.14888
  Beta virt. eigenvalues --    0.05587   0.06319   0.06675   0.06953   0.07695
  Beta virt. eigenvalues --    0.08222   0.08357   0.09235   0.09386   0.09824
  Beta virt. eigenvalues --    0.10405   0.10471   0.10711   0.11142   0.11685

 Mulliken charges and spin densities:
               1          2
     1  C    0.609420  -1.244172
     2  C   -0.735236   0.554578
     3  C    0.221067  -0.489427
     4  C   -0.051651  -0.207086
     5  C    0.432151  -0.540634
     6  C   -0.119951  -0.193211
     7  C    0.098470  -0.424668
     8  C   -0.321842  -0.299891
     9  N    0.182441  -0.057173
    10  C   -1.260527   1.087801
    11  C    0.980649  -1.669781
    12  C   -0.300600  -0.348717
    13  S    0.384738   0.134715
    14  O   -0.255612   0.010673
    15  O   -0.182780   0.012707
    16  C   -0.296825  -0.357986
    17  H   -0.129864   0.274132
    18  H   -0.153400   0.288052
    19  H   -0.056933   0.186632
    20  H    0.082542   0.047252
    21  H   -0.175337   0.323854
    22  H    0.020820   0.118157
    23  H    0.011477   0.133783
    24  H   -0.043262   0.183107
    25  H    0.003771   0.161512
    26  H   -0.030879   0.192973
    27  H   -0.257219   0.443146
    28  H   -0.588504   0.791588
    29  H    0.019999   0.120257
    30  H    0.076041   0.114569
    31  H    0.076474   0.047943
    32  H    0.131974   0.033385
    33  H    0.191357  -0.039307
    34  H    0.705681  -0.473994
    35  H    0.164233   0.054649
    36  H   -0.450094   0.629277
    37  H   -0.057709   0.202286
    38  H   -0.163323   0.300828
    39  H    0.125229   0.106991
    40  H   -0.220409   0.484113
    41  H   -0.112100   0.315584
    42  H    0.376138  -0.138239
    43  H    0.069385   0.129741
 Sum of Mulliken charges =  -1.00000   1.00000

 Dipole moment (field-independent basis, Debye):
    X=             -0.6228    Y=             -1.8188    Z=              3.9011  Tot=              4.3491
 Quadrupole moment (field-independent basis, Debye-Ang):
   XX=           -243.1102   YY=           -147.3518   ZZ=           -152.8167
   XY=             -2.3674   XZ=              7.0304   YZ=              3.9211

 Summary of Natural Population Analysis:

                                       Natural Population
                Natural  -----------------------------------------------
    Atom  No    Charge         Core      Valence    Rydberg      Total
 -----------------------------------------------------------------------
      C    1   -0.28615      0.99967     2.28216    0.00433     3.28615
      C    2   -0.19162      0.99964     2.18518    0.00680     3.19162
      C    3   -0.18907      0.99963     2.18220    0.00725     3.18907
      C    4   -0.19405      0.99962     2.18520    0.00922     3.19405
      C    5   -0.19618      0.99963     2.18654    0.01001     3.19618
      C    6   -0.19610      0.99962     2.18652    0.00996     3.19610
      C    7   -0.19210      0.99962     2.18499    0.00749     3.19210
      C    8   -0.08566      0.99962     2.07715    0.00889     3.08566
      N    9   -0.35606      0.99973     2.84361    0.01272     3.85606
      C   10   -0.02303      0.99959     2.01087    0.01256     3.02303
      C   11   -0.29321      0.99964     2.28727    0.00629     3.29321
      C   12   -0.28611      0.99954     2.27340    0.01317     3.28611
      S   13    1.02020      4.99931     1.88702    0.09347     6.97980
      O   14   -0.47392      0.99991     3.46850    0.00551     4.47392
      O   15   -0.47468      0.99991     3.46912    0.00565     4.47468
      C   16   -0.39424      0.99961     2.38694    0.00770     3.39424
      H   17    0.09804      0.00000     0.40078    0.00118     0.40196
      H   18    0.09832      0.00000     0.40057    0.00111     0.40168
      H   19    0.09397      0.00000     0.40479    0.00124     0.40603
      H   20    0.09497      0.00000     0.40364    0.00139     0.40503
      H   21    0.09389      0.00000     0.40488    0.00123     0.40611
      H   22    0.09476      0.00000     0.40404    0.00120     0.40524
      H   23    0.09433      0.00000     0.40456    0.00111     0.40567
      H   24    0.09489      0.00000     0.40390    0.00121     0.40511
      H   25    0.09821      0.00000     0.40070    0.00109     0.40179
      H   26    0.09779      0.00000     0.40052    0.00170     0.40221
      H   27    0.10007      0.00000     0.39856    0.00137     0.39993
      H   28    0.09959      0.00000     0.39881    0.00160     0.40041
      H   29    0.09762      0.00000     0.40115    0.00123     0.40238
      H   30    0.09857      0.00000     0.40021    0.00122     0.40143
      H   31    0.09634      0.00000     0.40262    0.00104     0.40366
      H   32    0.09540      0.00000     0.40346    0.00114     0.40460
      H   33    0.08037      0.00000     0.41801    0.00161     0.41963
      H   34    0.17819      0.00000     0.31672    0.00509     0.32181
      H   35    0.10515      0.00000     0.39320    0.00165     0.39485
      H   36    0.10257      0.00000     0.39556    0.00187     0.39743
      H   37    0.10082      0.00000     0.39831    0.00087     0.39918
      H   38    0.10373      0.00000     0.39523    0.00104     0.39627
      H   39    0.11866      0.00000     0.38037    0.00096     0.38134
      H   40    0.11723      0.00000     0.38118    0.00159     0.38277
      H   41    0.11452      0.00000     0.38418    0.00130     0.38548
      H   42    0.12981      0.00000     0.36861    0.00158     0.37019
      H   43    0.11416      0.00000     0.38490    0.00093     0.38584
 =======================================================================
   * Total *    0.00000     19.99430    48.74613    0.25957    69.00000

 Normal termination of Gaussian 16 at Thu Dec 10 23:26:10 2020.
