 Gaussian 16, Revision A.03,

 -----------------------------------------------------------
 # opt freq B3LYP/6-31G(d) empiricaldispersion=gd3bj scf=xqc
 -----------------------------------------------------------

 -----------------------------
 CID_87521818_JID_267_neutraal
 -----------------------------
 Symbolic Z-matrix:
 Charge =  0 Multiplicity = 1

 SCF Done:  E(RB3LYP) =  -464.926835814     A.U. after   13 cycles
 SCF Done:  E(RB3LYP) =  -464.932100590     A.U. after   11 cycles
 SCF Done:  E(RB3LYP) =  -464.932532478     A.U. after   11 cycles
 SCF Done:  E(RB3LYP) =  -464.933142525     A.U. after   12 cycles
 SCF Done:  E(RB3LYP) =  -464.933894230     A.U. after   11 cycles
 SCF Done:  E(RB3LYP) =  -464.934061154     A.U. after   11 cycles
 SCF Done:  E(RB3LYP) =  -464.934560029     A.U. after   12 cycles
 SCF Done:  E(RB3LYP) =  -464.934314909     A.U. after   11 cycles
 SCF Done:  E(RB3LYP) =  -464.934749677     A.U. after   10 cycles
 SCF Done:  E(RB3LYP) =  -464.934778193     A.U. after    9 cycles
 SCF Done:  E(RB3LYP) =  -464.934801812     A.U. after    9 cycles
 SCF Done:  E(RB3LYP) =  -464.934806558     A.U. after    9 cycles
 SCF Done:  E(RB3LYP) =  -464.934808376     A.U. after    8 cycles
 SCF Done:  E(RB3LYP) =  -464.934808924     A.U. after    7 cycles
 SCF Done:  E(RB3LYP) =  -464.934809217     A.U. after    7 cycles
 SCF Done:  E(RB3LYP) =  -464.934809308     A.U. after    7 cycles
 Optimization completed.
    -- Stationary point found.

 1\1\GINC-NODE112\FOpt\RB3LYP\6-31G(d)\C8H16O2\VSC10255\08-Dec-2020\0\\
 # opt freq B3LYP/6-31G(d) empiricaldispersion=gd3bj scf=xqc\\CID_87521
 818_JID_267_neutraal\\0,1\C,1.0190444916,-0.4750891349,-0.0131798413\C
 ,0.0716812801,-0.4118976528,1.1855835083\C,0.7362319041,-0.1285131245,
 2.539580316\C,0.0120590696,-0.2429049774,3.6735638882\C,-1.4321901299,
 -0.6879557376,3.7021340107\C,0.5515409776,0.0123514494,5.0829974364\C,
 1.3806567851,-1.1596487585,5.6049279218\O,1.3617706907,1.1853776932,5.
 2188033785\C,2.19537876,0.2705610491,2.5147966416\O,-0.9866981009,0.52

 Normal termination of Gaussian 16 at Tue Dec  8 10:25:45 2020.

 --------------------------------------------------------------------
 #N Geom=AllCheck Guess=TCheck SCRF=Check GenChk RB3LYP/6-31G(d) Freq
 --------------------------------------------------------------------

 Structure from the checkpoint file:  "JID_267.chk"
 -----------------------------
 CID_87521818_JID_267_neutraal
 -----------------------------
 Charge =  0 Multiplicity = 1

 SCF Done:  E(RB3LYP) =  -464.934809308     A.U. after    1 cycles

  Exact polarizability: 107.230  -9.456  93.630   1.165  -0.773  76.584
 Approx polarizability: 138.575 -15.146 134.246   0.591  -1.652 113.640

                      1                      2                      3
                      A                      A                      A
 Frequencies --     31.9080                83.9514                84.7922
 Red. masses --      2.7441                 3.5567                 2.4967
 Frc consts  --      0.0016                 0.0148                 0.0106
 IR Inten    --      0.4496                 2.3243                 0.7113

                      4                      5                      6
                      A                      A                      A
 Frequencies --    128.2178               186.4027               197.8950
 Red. masses --      1.1559                 1.4479                 1.8246
 Frc consts  --      0.0112                 0.0296                 0.0421
 IR Inten    --      2.8246                 2.3808                 9.3550

                      7                      8                      9
                      A                      A                      A
 Frequencies --    209.9157               243.5712               245.5548
 Red. masses --      1.6896                 1.2574                 1.8328
 Frc consts  --      0.0439                 0.0440                 0.0651
 IR Inten    --     46.9735                 6.2874                67.2139

                     10                     11                     12
                      A                      A                      A
 Frequencies --    264.2501               298.9520               308.9958
 Red. masses --      1.7727                 2.1750                 1.1254
 Frc consts  --      0.0729                 0.1145                 0.0633
 IR Inten    --      4.1265                 3.5974                 2.7995

                     13                     14                     15
                      A                      A                      A
 Frequencies --    334.1333               363.8157               373.1000
 Red. masses --      1.7125                 2.4665                 1.9903
 Frc consts  --      0.1126                 0.1923                 0.1632
 IR Inten    --     44.5278                 3.1843                78.8137

                     16                     17                     18
                      A                      A                      A
 Frequencies --    416.2980               440.3955               495.3786
 Red. masses --      2.7324                 3.2176                 3.1771
 Frc consts  --      0.2790                 0.3677                 0.4594
 IR Inten    --      3.4962                10.3862                15.0999

                     19                     20                     21
                      A                      A                      A
 Frequencies --    540.5771               602.4363               624.4535
 Red. masses --      2.9638                 3.7779                 3.3714
 Frc consts  --      0.5103                 0.8078                 0.7746
 IR Inten    --      9.1696                 3.3829                 0.7494

                     22                     23                     24
                      A                      A                      A
 Frequencies --    693.8303               836.5677               908.2674
 Red. masses --      2.6340                 2.3931                 2.2828
 Frc consts  --      0.7471                 0.9868                 1.1095
 IR Inten    --      6.8113                 8.6087                12.5772

                     25                     26                     27
                      A                      A                      A
 Frequencies --    944.6295               988.4097              1020.7044
 Red. masses --      2.0067                 1.4365                 1.8218
 Frc consts  --      1.0550                 0.8268                 1.1183
 IR Inten    --     11.5844                 7.4887                20.4425

                     28                     29                     30
                      A                      A                      A
 Frequencies --   1035.6778              1049.3202              1071.6152
 Red. masses --      1.6926                 1.5788                 2.0738
 Frc consts  --      1.0696                 1.0242                 1.4032
 IR Inten    --     41.6396                24.0821                50.2531

                     31                     32                     33
                      A                      A                      A
 Frequencies --   1081.6317              1099.5203              1107.2556
 Red. masses --      1.6046                 1.7538                 2.3758
 Frc consts  --      1.1061                 1.2492                 1.7161
 IR Inten    --     25.5033                45.6862                 5.9768

                     34                     35                     36
                      A                      A                      A
 Frequencies --   1143.1427              1165.6973              1201.2424
 Red. masses --      2.3569                 2.4230                 2.2707
 Frc consts  --      1.8146                 1.9399                 1.9305
 IR Inten    --     19.9125                17.6718                 2.1639

                     37                     38                     39
                      A                      A                      A
 Frequencies --   1275.1570              1285.8184              1299.9401
 Red. masses --      1.5113                 2.1151                 1.3461
 Frc consts  --      1.4478                 2.0603                 1.3402
 IR Inten    --      6.8168                12.9203                48.7055

                     40                     41                     42
                      A                      A                      A
 Frequencies --   1386.3428              1413.6072              1421.5044
 Red. masses --      1.3720                 1.2529                 1.3185
 Frc consts  --      1.5537                 1.4751                 1.5698
 IR Inten    --     34.6460                 8.8559                31.4212

                     43                     44                     45
                      A                      A                      A
 Frequencies --   1431.3737              1435.1050              1439.2357
 Red. masses --      1.2490                 1.2487                 1.3374
 Frc consts  --      1.5077                 1.5152                 1.6322
 IR Inten    --     18.6316                20.0565                 6.5811

                     46                     47                     48
                      A                      A                      A
 Frequencies --   1446.4918              1451.3025              1508.1413
 Red. masses --      1.2267                 1.2110                 1.0615
 Frc consts  --      1.5123                 1.5029                 1.4225
 IR Inten    --     10.0024                 1.1141                 3.1445

                     49                     50                     51
                      A                      A                      A
 Frequencies --   1509.8478              1514.7978              1521.2941
 Red. masses --      1.0482                 1.0488                 1.0609
 Frc consts  --      1.4079                 1.4179                 1.4466
 IR Inten    --      7.3916                 3.4286                 6.2478

                     52                     53                     54
                      A                      A                      A
 Frequencies --   1524.3831              1528.6636              1530.9088
 Red. masses --      1.0493                 1.0554                 1.0576
 Frc consts  --      1.4366                 1.4530                 1.4604
 IR Inten    --      1.0322                 4.4218                 6.2449

                     55                     56                     57
                      A                      A                      A
 Frequencies --   1552.5756              1721.0715              2980.0189
 Red. masses --      1.0494                 6.6568                 1.0835
 Frc consts  --      1.4904                11.6175                 5.6693
 IR Inten    --     11.5394                 0.7670                58.3829

                     58                     59                     60
                      A                      A                      A
 Frequencies --   3030.8832              3035.2641              3056.2613
 Red. masses --      1.0455                 1.0445                 1.0369
 Frc consts  --      5.6585                 5.6698                 5.7066
 IR Inten    --     42.4322                24.5477                29.0048

                     61                     62                     63
                      A                      A                      A
 Frequencies --   3061.4556              3061.9133              3070.1299
 Red. masses --      1.0506                 1.0682                 1.0983
 Frc consts  --      5.8013                 5.9003                 6.0993
 IR Inten    --      9.5056                28.8644                21.5842

                     64                     65                     66
                      A                      A                      A
 Frequencies --   3074.8032              3123.0757              3131.5907
 Red. masses --      1.0984                 1.1017                 1.1029
 Frc consts  --      6.1186                 6.3311                 6.3728
 IR Inten    --     14.1314                40.0932                25.5541

                     67                     68                     69
                      A                      A                      A
 Frequencies --   3137.8286              3143.0201              3188.8957
 Red. masses --      1.1020                 1.1028                 1.0926
 Frc consts  --      6.3925                 6.4189                 6.5461
 IR Inten    --     27.3816                26.1003                12.5380

                     70                     71                     72
                      A                      A                      A
 Frequencies --   3194.5710              3732.2117              3738.5898
 Red. masses --      1.0939                 1.0662                 1.0660
 Frc consts  --      6.5772                 8.7499                 8.7781
 IR Inten    --      1.1336                 6.8593                 8.4066

 - Thermochemistry -
 -------------------
 Temperature   298.150 Kelvin.  Pressure   1.00000 Atm.
 Atom     1 has atomic number  6 and mass  12.00000

 Molecular mass:   144.11503 amu.
 Principal axes and moments of inertia in atomic units:
                           1         2         3
     Eigenvalues --   891.428952190.406592552.62712
           X            0.99956  -0.02889   0.00694
           Y            0.02890   0.99958  -0.00089
           Z           -0.00691   0.00109   0.99998
 This molecule is an asymmetric top.
 Rotational symmetry number  1.
 Warning -- assumption of classical behavior for rotation
           may cause significant error
 Rotational temperatures (Kelvin)      0.09716     0.03954     0.03393
 Rotational constants (GHZ):           2.02455     0.82393     0.70701
 Zero-point vibrational energy     608783.1 (Joules/Mol)
                                  145.50265 (Kcal/Mol)
 Warning -- explicit consideration of  20 degrees of freedom as
           vibrations may cause significant error
 Vibrational temperatures:     45.91   120.79   122.00   184.48   268.19
          (Kelvin)            284.73   302.02   350.44   353.30   380.20
                              430.13   444.58   480.74   523.45   536.81
                              598.96   633.63   712.74   777.77   866.77
                              898.45   998.27  1203.63  1306.79  1359.11
                             1422.10  1468.57  1490.11  1509.74  1541.82
                             1556.23  1581.96  1593.09  1644.73  1677.18
                             1728.32  1834.67  1850.01  1870.32  1994.64
                             2033.87  2045.23  2059.43  2064.80  2070.74
                             2081.18  2088.10  2169.88  2172.33  2179.46
                             2188.80  2193.25  2199.41  2202.64  2233.81
                             2476.24  4287.58  4360.76  4367.07  4397.28
                             4404.75  4405.41  4417.23  4423.96  4493.41
                             4505.66  4514.64  4522.10  4588.11  4596.28
                             5369.82  5379.00

 Zero-point correction=                           0.231873 (Hartree/Particle)
 Thermal correction to Energy=                    0.244829
 Thermal correction to Enthalpy=                  0.245773
 Thermal correction to Gibbs Free Energy=         0.193272
 Sum of electronic and zero-point Energies=           -464.702936
 Sum of electronic and thermal Energies=              -464.689980
 Sum of electronic and thermal Enthalpies=            -464.689036
 Sum of electronic and thermal Free Energies=         -464.741537

                     E (Thermal)             CV                S
                      KCal/Mol        Cal/Mol-Kelvin    Cal/Mol-Kelvin
 Total                  153.632             47.287            110.497
 Electronic               0.000              0.000              0.000
 Translational            0.889              2.981             40.807
 Rotational               0.889              2.981             29.990
 Vibrational            151.855             41.326             39.700
 Vibration     1          0.594              1.983              5.707
 Vibration     2          0.601              1.960              3.796
 Vibration     3          0.601              1.960              3.777
 Vibration     4          0.611              1.925              2.973
 Vibration     5          0.632              1.858              2.263
 Vibration     6          0.637              1.843              2.153
 Vibration     7          0.642              1.826              2.044
 Vibration     8          0.659              1.773              1.777
 Vibration     9          0.660              1.770              1.762
 Vibration    10          0.671              1.738              1.634
 Vibration    11          0.692              1.676              1.423
 Vibration    12          0.698              1.657              1.368
 Vibration    13          0.716              1.607              1.240
 Vibration    14          0.737              1.547              1.106
 Vibration    15          0.745              1.527              1.067
 Vibration    16          0.780              1.435              0.905
 Vibration    17          0.800              1.382              0.825
 Vibration    18          0.851              1.260              0.670
 Vibration    19          0.896              1.160              0.564
 Vibration    20          0.961              1.027              0.445

                           ! Non-Optimized Parameters !

 1\1\GINC-NODE112\Freq\RB3LYP\6-31G(d)\C8H16O2\VSC10255\08-Dec-2020\0\\
 #N Geom=AllCheck Guess=TCheck SCRF=Check GenChk RB3LYP/6-31G(d) Freq\\
 CID_87521818_JID_267_neutraal\\0,1\C,1.0190444916,-0.4750891349,-0.013
 1798413\C,0.0716812801,-0.4118976528,1.1855835083\C,0.7362319041,-0.12
 85131245,2.539580316\C,0.0120590696,-0.2429049774,3.6735638882\C,-1.43
 21901299,-0.6879557376,3.7021340107\C,0.5515409776,0.0123514494,5.0829
 974364\C,1.3806567851,-1.1596487585,5.6049279218\O,1.3617706907,1.1853
 776932,5.2188033785\C,2.19537876,0.2705610491,2.5147966416\O,-0.986698

 Normal termination of Gaussian 16 at Tue Dec  8 10:31:00 2020.

 ----------------------------------------------------------------------
 # B3LYP/6-311++G(d,p) empiricaldispersion=gd3bj scf=xqc pop=npa geom=c
 heck
 ----------------------------------------------------------------------

 -------------------------------------
 CID_87521818_JID_267_Energie_neutraal
 -------------------------------------
 Structure from the checkpoint file:  "JID_267.chk"
 Charge =  0 Multiplicity = 1

 SCF Done:  E(RB3LYP) =  -465.088602294     A.U. after   15 cycles
 Normal termination of Gaussian 16 at Tue Dec  8 10:33:51 2020.

 ----------------------------------------------------------------------
 # B3LYP/6-311++G(d,p) empiricaldispersion=gd3bj scf=xqc pop=npa geom=c
 heck
 ----------------------------------------------------------------------

 -----------------------------------
 CID_87521818_JID_267_Energie_kation
 -----------------------------------
 Structure from the checkpoint file:  "JID_267.chk"
 Charge =  1 Multiplicity = 2

 SCF Done:  E(UB3LYP) =  -464.778039204     A.U. after   19 cycles
 Normal termination of Gaussian 16 at Tue Dec  8 10:39:35 2020.
 Gaussian 16:  ES64L-G16RevA.03 25-Dec-2016

 ----------------------------------
 CID_87521818_JID_267_Energie_anion
 ----------------------------------
 Structure from the checkpoint file:  "JID_267.chk"
 Charge = -1 Multiplicity = 2

                         Standard orientation:
 ---------------------------------------------------------------------
 Center     Atomic      Atomic             Coordinates (Angstroms)
 Number     Number       Type             X           Y           Z
 ---------------------------------------------------------------------
      1          6           0        2.931626   -0.898566   -0.522639
      2          6           0        1.890085    0.196248   -0.287907
      3          6           0        0.452084   -0.294286   -0.071639
      4          6           0       -0.559731    0.599622   -0.047383
      5          6           0       -0.371024    2.082508   -0.271400
      6          6           0       -2.033710    0.243819    0.161154
      7          6           0       -2.678715   -0.311441   -1.107343
      8          8           0       -2.286732   -0.705074    1.203501
      9          6           0        0.257236   -1.784214    0.104809
     10          8           0        2.319834    1.048525    0.789696
     11          1           0        3.020895   -1.567254    0.340530
     12          1           0        3.904976   -0.426793   -0.683919
     13          1           0        2.691340   -1.507659   -1.401100
     14          1           0        1.907835    0.854683   -1.163281
     15          1           0       -1.049916    2.434861   -1.060624
     16          1           0       -0.636336    2.642424    0.635705
     17          1           0        0.647010    2.364288   -0.533414
     18          1           0       -2.553589    1.181060    0.418297
     19          1           0       -2.188002   -1.239213   -1.414968
     20          1           0       -3.739046   -0.517900   -0.929284
     21          1           0       -2.595076    0.411837   -1.925127
     22          1           0       -1.741726   -0.442707    1.961914
     23          1           0        0.545684   -2.325323   -0.805635
     24          1           0        0.895783   -2.178561    0.906368
     25          1           0       -0.772619   -2.034353    0.349294
     26          1           0        2.070867    0.600861    1.613765
 ---------------------------------------------------------------------

 SCF Done:  E(UB3LYP) =  -465.075345546     A.U. after   31 cycles

 The electronic state is 2-A.
 Alpha  occ. eigenvalues --  -19.01026 -19.00468 -10.11562 -10.11249 -10.06524
 Alpha  occ. eigenvalues --  -10.06446 -10.05451 -10.05255 -10.05134 -10.04520
 Alpha  occ. eigenvalues --   -0.91301  -0.90607  -0.71059  -0.65880  -0.62445
 Alpha  occ. eigenvalues --   -0.60978  -0.54529  -0.52463  -0.48623  -0.43091
 Alpha  occ. eigenvalues --   -0.41002  -0.35690  -0.35565  -0.34022  -0.32043
 Alpha  occ. eigenvalues --   -0.31566  -0.30453  -0.29111  -0.28727  -0.28051
 Alpha  occ. eigenvalues --   -0.27966  -0.27434  -0.26163  -0.25706  -0.25145
 Alpha  occ. eigenvalues --   -0.22369  -0.20190  -0.17213  -0.16094  -0.12339
 Alpha  occ. eigenvalues --    0.04727
 Alpha virt. eigenvalues --    0.07376   0.07657   0.08573   0.09715   0.09787
 Alpha virt. eigenvalues --    0.10128   0.10453   0.11328   0.11948   0.12652
 Alpha virt. eigenvalues --    0.12973   0.13676   0.14295   0.14782   0.15389

  Beta  occ. eigenvalues --  -19.00995 -19.00426 -10.11551 -10.11237 -10.06515
  Beta  occ. eigenvalues --  -10.06441 -10.05421 -10.05231 -10.05104 -10.04483
  Beta  occ. eigenvalues --   -0.91239  -0.90517  -0.71016  -0.65830  -0.62395
  Beta  occ. eigenvalues --   -0.60927  -0.54459  -0.52395  -0.48547  -0.43025
  Beta  occ. eigenvalues --   -0.40937  -0.35633  -0.35514  -0.33973  -0.31992
  Beta  occ. eigenvalues --   -0.31523  -0.30411  -0.29077  -0.28687  -0.28014
  Beta  occ. eigenvalues --   -0.27927  -0.27398  -0.26119  -0.25664  -0.25098
  Beta  occ. eigenvalues --   -0.22329  -0.20147  -0.17167  -0.16054  -0.12282
  Beta virt. eigenvalues --    0.07125   0.08068   0.08861   0.08936   0.09990
  Beta virt. eigenvalues --    0.10190   0.10743   0.10944   0.11635   0.12339
  Beta virt. eigenvalues --    0.12921   0.13411   0.14057   0.14599   0.14861

 Mulliken charges and spin densities:
               1          2
     1  C    0.809042  -1.251300
     2  C   -1.490327   0.329523
     3  C    0.603010   0.760476
     4  C   -1.834528   1.809593
     5  C    1.322928  -1.806603
     6  C   -1.224675   0.715999
     7  C    0.827261  -1.461490
     8  O   -0.164877  -0.021775
     9  C    2.118246  -2.600309
    10  O   -0.192398   0.066571
    11  H   -0.085066   0.237796
    12  H   -0.189390   0.336597
    13  H   -0.188755   0.324042
    14  H    0.016404   0.132067
    15  H   -0.033776   0.169986
    16  H   -0.294278   0.475128
    17  H    0.053207   0.127342
    18  H   -0.277688   0.468867
    19  H   -0.101322   0.258851
    20  H   -0.044085   0.183417
    21  H   -0.236188   0.379264
    22  H   -0.194641   0.456747
    23  H   -0.070467   0.211158
    24  H   -0.393773   0.552303
    25  H    0.313599  -0.131650
    26  H   -0.047463   0.277402
 Sum of Mulliken charges =  -1.00000   1.00000

 Dipole moment (field-independent basis, Debye):
    X=             -0.2686    Y=              0.1301    Z=             -2.3729  Tot=              2.3916
 Quadrupole moment (field-independent basis, Debye-Ang):
   XX=           -115.2169   YY=            -99.4152   ZZ=            -99.4398
   XY=              0.7529   XZ=             -0.8045   YZ=             -1.4142

 Summary of Natural Population Analysis:

                                       Natural Population
                Natural  -----------------------------------------------
    Atom  No    Charge         Core      Valence    Rydberg      Total
 -----------------------------------------------------------------------
      C    1   -0.29356      0.99965     2.28888    0.00504     3.29356
      C    2    0.05164      0.99953     1.93513    0.01370     2.94836
      C    3   -0.02521      0.99940     2.01353    0.01227     3.02521
      C    4   -0.01486      0.99942     2.00236    0.01308     3.01486
      C    5   -0.29538      0.99962     2.29011    0.00565     3.29538
      C    6    0.05468      0.99951     1.93098    0.01483     2.94532
      C    7   -0.28498      0.99964     2.28002    0.00533     3.28498
      O    8   -0.37444      0.99990     3.36767    0.00688     4.37444
      C    9   -0.30805      0.99963     2.30140    0.00702     3.30805
      O   10   -0.37345      0.99990     3.36701    0.00654     4.37345
      H   11    0.09903      0.00000     0.39947    0.00150     0.40097
      H   12    0.10195      0.00000     0.39693    0.00112     0.39805
      H   13    0.09966      0.00000     0.39887    0.00147     0.40034
      H   14    0.08526      0.00000     0.41263    0.00211     0.41474
      H   15    0.09755      0.00000     0.40116    0.00129     0.40245
      H   16    0.10620      0.00000     0.39200    0.00180     0.39380
      H   17    0.10846      0.00000     0.39019    0.00135     0.39154
      H   18    0.07797      0.00000     0.41936    0.00266     0.42203
      H   19    0.10120      0.00000     0.39767    0.00113     0.39880
      H   20    0.09971      0.00000     0.39917    0.00112     0.40029
      H   21    0.09995      0.00000     0.39883    0.00122     0.40005
      H   22    0.23504      0.00000     0.25884    0.00611     0.26496
      H   23    0.10094      0.00000     0.39775    0.00131     0.39906
      H   24    0.10291      0.00000     0.39540    0.00170     0.39709
      H   25    0.11693      0.00000     0.38152    0.00155     0.38307
      H   26    0.23084      0.00000     0.26295    0.00621     0.26916
 =======================================================================
   * Total *    0.00000      9.99620    29.87984    0.12396    40.00000

 Normal termination of Gaussian 16 at Tue Dec  8 10:49:28 2020.
