 Gaussian 16, Revision A.03,

 -----------------------------------------------------------
 # opt freq B3LYP/6-31G(d) empiricaldispersion=gd3bj scf=xqc
 -----------------------------------------------------------

 ------------------------------
 CID_87309589_JID_5851_neutraal
 ------------------------------
 Symbolic Z-matrix:
 Charge =  0 Multiplicity = 1

 SCF Done:  E(RB3LYP) =  -990.622807034     A.U. after   17 cycles
 SCF Done:  E(RB3LYP) =  -990.669823634     A.U. after   14 cycles
 SCF Done:  E(RB3LYP) =  -990.673262486     A.U. after   13 cycles
 SCF Done:  E(RB3LYP) =  -990.672230213     A.U. after   14 cycles
 SCF Done:  E(RB3LYP) =  -990.674096438     A.U. after   13 cycles
 SCF Done:  E(RB3LYP) =  -990.674325538     A.U. after   12 cycles
 SCF Done:  E(RB3LYP) =  -990.674469187     A.U. after   12 cycles
 SCF Done:  E(RB3LYP) =  -990.674540775     A.U. after   11 cycles
 SCF Done:  E(RB3LYP) =  -990.674571054     A.U. after   11 cycles
 SCF Done:  E(RB3LYP) =  -990.674577063     A.U. after   10 cycles
 SCF Done:  E(RB3LYP) =  -990.674579401     A.U. after    8 cycles
 SCF Done:  E(RB3LYP) =  -990.674580355     A.U. after    9 cycles
 SCF Done:  E(RB3LYP) =  -990.674580530     A.U. after    8 cycles
 SCF Done:  E(RB3LYP) =  -990.674580549     A.U. after    8 cycles
 Optimization completed.
    -- Stationary point found.
 Normal termination of Gaussian 16 at Thu Dec 10 17:17:58 2020.

 --------------------------------------------------------------------
 #N Geom=AllCheck Guess=TCheck SCRF=Check GenChk RB3LYP/6-31G(d) Freq
 --------------------------------------------------------------------

 Structure from the checkpoint file:  "JID_5851.chk"
 ------------------------------
 CID_87309589_JID_5851_neutraal
 ------------------------------
 Charge =  0 Multiplicity = 1

 SCF Done:  E(RB3LYP) =  -990.674580549     A.U. after    1 cycles

  Exact polarizability: 175.093   1.381 149.464 -26.867   3.461 117.574
 Approx polarizability: 230.857   1.092 260.951 -54.931  12.147 185.097

                      1                      2                      3
                      A                      A                      A
 Frequencies --     31.2141                40.9549                51.2414
 Red. masses --      5.8531                 2.9762                 7.6658
 Frc consts  --      0.0034                 0.0029                 0.0119
 IR Inten    --      2.4843                 0.2017                 0.2439

                      4                      5                      6
                      A                      A                      A
 Frequencies --     65.4813                98.0051               112.6400
 Red. masses --      3.4686                 3.7934                 6.8740
 Frc consts  --      0.0088                 0.0215                 0.0514
 IR Inten    --      0.5921                 0.4683                 1.8678

                      7                      8                      9
                      A                      A                      A
 Frequencies --    124.0296               129.3927               173.2072
 Red. masses --     10.8164                 4.0279                 5.1481
 Frc consts  --      0.0980                 0.0397                 0.0910
 IR Inten    --      9.2675                 0.0378                 7.1443

                     10                     11                     12
                      A                      A                      A
 Frequencies --    188.9392               217.6673               260.5171
 Red. masses --      2.6813                 1.8964                 2.0605
 Frc consts  --      0.0564                 0.0529                 0.0824
 IR Inten    --      0.7863                 2.4042                 0.5781

                     13                     14                     15
                      A                      A                      A
 Frequencies --    297.2063               313.1576               346.2015
 Red. masses --      1.8464                 5.5694                 2.4666
 Frc consts  --      0.0961                 0.3218                 0.1742
 IR Inten    --      0.3418                 1.2532                 0.7425

                     16                     17                     18
                      A                      A                      A
 Frequencies --    397.7376               440.8189               463.3754
 Red. masses --      1.9960                 4.9875                 2.2090
 Frc consts  --      0.1860                 0.5710                 0.2795
 IR Inten    --      0.3064                 4.7221                 7.6382

                     19                     20                     21
                      A                      A                      A
 Frequencies --    475.0914               497.2096               504.8622
 Red. masses --      5.7154                 2.3349                 5.6845
 Frc consts  --      0.7601                 0.3401                 0.8537
 IR Inten    --      5.0763                46.6921                 3.6938

                     22                     23                     24
                      A                      A                      A
 Frequencies --    516.1211               550.7675               599.7512
 Red. masses --      4.5857                 2.4179                11.7528
 Frc consts  --      0.7197                 0.4321                 2.4908
 IR Inten    --      2.0189                46.8724                 0.6434

                     25                     26                     27
                      A                      A                      A
 Frequencies --    651.8749               667.0708               681.8952
 Red. masses --      6.1627                 6.8429                 5.7288
 Frc consts  --      1.5430                 1.7940                 1.5695
 IR Inten    --      6.6364                22.2942                11.4472

                     28                     29                     30
                      A                      A                      A
 Frequencies --    718.6837               771.7353               787.0434
 Red. masses --      1.5311                 2.8628                 1.7761
 Frc consts  --      0.4659                 1.0046                 0.6482
 IR Inten    --      8.2973                 4.9269                 2.1322

                     31                     32                     33
                      A                      A                      A
 Frequencies --    807.8032               867.1424               880.1628
 Red. masses --      3.1345                 1.5925                 1.8511
 Frc consts  --      1.2051                 0.7055                 0.8449
 IR Inten    --      2.1502                 2.6555                 4.3029

                     34                     35                     36
                      A                      A                      A
 Frequencies --    940.8192               946.9860               967.5715
 Red. masses --      2.9374                 1.9554                 1.8853
 Frc consts  --      1.5319                 1.0332                 1.0399
 IR Inten    --      1.9624                 4.5627                 6.3432

                     37                     38                     39
                      A                      A                      A
 Frequencies --    983.7713              1028.4944              1065.9171
 Red. masses --      2.2139                 1.7328                 2.0406
 Frc consts  --      1.2624                 1.0799                 1.3660
 IR Inten    --     10.1957                 2.8265                 7.8796

                     40                     41                     42
                      A                      A                      A
 Frequencies --   1078.0088              1110.8497              1132.0171
 Red. masses --      1.6830                 2.1122                 1.7811
 Frc consts  --      1.1523                 1.5357                 1.3447
 IR Inten    --      7.2279                 1.4560                 0.3326

                     43                     44                     45
                      A                      A                      A
 Frequencies --   1158.3231              1201.9011              1227.7105
 Red. masses --      1.8425                 1.2750                 1.2529
 Frc consts  --      1.4565                 1.0852                 1.1127
 IR Inten    --      4.5043                 2.6691                 2.0700

                     46                     47                     48
                      A                      A                      A
 Frequencies --   1253.0472              1263.5211              1288.8853
 Red. masses --      1.3093                 3.3131                 1.3907
 Frc consts  --      1.2112                 3.1164                 1.3612
 IR Inten    --      6.6584                13.8637                15.6673

                     49                     50                     51
                      A                      A                      A
 Frequencies --   1301.5540              1320.5829              1346.3985
 Red. masses --      1.5768                 1.5541                 1.2523
 Frc consts  --      1.5738                 1.5968                 1.3376
 IR Inten    --     11.2710                25.0228                18.8638

                     52                     53                     54
                      A                      A                      A
 Frequencies --   1376.6815              1387.5322              1395.8192
 Red. masses --      1.3867                 1.3467                 1.6752
 Frc consts  --      1.5485                 1.5276                 1.9230
 IR Inten    --      3.1888                 6.1608                 3.3950

                     55                     56                     57
                      A                      A                      A
 Frequencies --   1408.2509              1420.6515              1435.1610
 Red. masses --      1.5587                 1.3572                 1.5611
 Frc consts  --      1.8213                 1.6138                 1.8944
 IR Inten    --     11.9162                 2.5363                18.5873

                     58                     59                     60
                      A                      A                      A
 Frequencies --   1443.9655              1449.2417              1506.0112
 Red. masses --      1.3612                 1.7753                 1.0848
 Frc consts  --      1.6722                 2.1969                 1.4496
 IR Inten    --      9.4886                14.5100                 5.8845

                     61                     62                     63
                      A                      A                      A
 Frequencies --   1515.0501              1520.4719              1528.3870
 Red. masses --      1.0907                 1.0771                 1.0526
 Frc consts  --      1.4751                 1.4671                 1.4487
 IR Inten    --      0.8304                 9.4661                 5.9534

                     64                     65                     66
                      A                      A                      A
 Frequencies --   1531.9342              1539.5534              1543.1300
 Red. masses --      1.0802                 1.0607                 1.0867
 Frc consts  --      1.4936                 1.4812                 1.5247
 IR Inten    --      8.7746                 8.1764                 7.1094

                     67                     68                     69
                      A                      A                      A
 Frequencies --   1620.6553              2317.1339              2338.4833
 Red. masses --      4.5771                12.6552                12.6666
 Frc consts  --      7.0831                40.0333                40.8111
 IR Inten    --    613.5885                85.8632                81.1728

                     70                     71                     72
                      A                      A                      A
 Frequencies --   3024.9627              3036.8003              3044.0262
 Red. masses --      1.0679                 1.0672                 1.0672
 Frc consts  --      5.7571                 5.7987                 5.8261
 IR Inten    --     27.4082                 9.3974                12.8082

                     73                     74                     75
                      A                      A                      A
 Frequencies --   3047.0923              3056.3579              3062.4566
 Red. masses --      1.0380                 1.0670                 1.0828
 Frc consts  --      5.6783                 5.8727                 5.9833
 IR Inten    --     15.9015                23.7695                37.8588

                     76                     77                     78
                      A                      A                      A
 Frequencies --   3067.4402              3078.7409              3086.4526
 Red. masses --      1.0913                 1.0990                 1.0970
 Frc consts  --      6.0498                 6.1377                 6.1572
 IR Inten    --     30.0162                 5.5890                39.4103

                     79                     80                     81
                      A                      A                      A
 Frequencies --   3102.3079              3110.6950              3112.2968
 Red. masses --      1.0957                 1.0615                 1.1020
 Frc consts  --      6.2132                 6.0520                 6.2889
 IR Inten    --     60.3060                16.9932                49.8711

                     82                     83                     84
                      A                      A                      A
 Frequencies --   3118.3523              3170.4161              3573.8854
 Red. masses --      1.1018                 1.1072                 1.0770
 Frc consts  --      6.3123                 6.5568                 8.1047
 IR Inten    --     39.6149                 2.6785                40.0745

 - Thermochemistry -
 -------------------
 Temperature   298.150 Kelvin.  Pressure   1.00000 Atm.
 Atom     1 has atomic number  6 and mass  12.00000

 Molecular mass:   221.09867 amu.
 Principal axes and moments of inertia in atomic units:
                           1         2         3
     Eigenvalues --  2074.586575960.038326407.50728
           X            0.99985  -0.00208   0.01693
           Y            0.00192   0.99995   0.00985
           Z           -0.01695  -0.00982   0.99981
 This molecule is an asymmetric top.
 Rotational symmetry number  1.
 Warning -- assumption of classical behavior for rotation
           may cause significant error
 Rotational temperatures (Kelvin)      0.04175     0.01453     0.01352
 Rotational constants (GHZ):           0.86993     0.30281     0.28166
 Zero-point vibrational energy     653853.4 (Joules/Mol)
                                  156.27472 (Kcal/Mol)
 Warning -- explicit consideration of  24 degrees of freedom as
           vibrations may cause significant error
 Vibrational temperatures:     44.91    58.92    73.72    94.21   141.01
          (Kelvin)            162.06   178.45   186.17   249.21   271.84
                              313.17   374.83   427.61   450.56   498.11
                              572.26   634.24   666.69   683.55   715.37
                              726.38   742.58   792.43   862.91   937.90
                              959.77   981.10  1034.03  1110.35  1132.38
                             1162.25  1247.62  1266.36  1353.63  1362.50
                             1392.12  1415.43  1479.77  1533.62  1551.01
                             1598.26  1628.72  1666.57  1729.27  1766.40
                             1802.86  1817.92  1854.42  1872.65  1900.02
                             1937.17  1980.74  1996.35  2008.27  2026.16
                             2044.00  2064.88  2077.54  2085.14  2166.81
                             2179.82  2187.62  2199.01  2204.11  2215.07
                             2220.22  2331.76  3333.84  3364.56  4352.25
                             4369.28  4379.67  4384.09  4397.42  4406.19
                             4413.36  4429.62  4440.72  4463.53  4475.60
                             4477.90  4486.61  4561.52  5142.02

 Zero-point correction=                           0.249040 (Hartree/Particle)
 Thermal correction to Energy=                    0.264891
 Thermal correction to Enthalpy=                  0.265835
 Thermal correction to Gibbs Free Energy=         0.204276
 Sum of electronic and zero-point Energies=           -990.425541
 Sum of electronic and thermal Energies=              -990.409689
 Sum of electronic and thermal Enthalpies=            -990.408745
 Sum of electronic and thermal Free Energies=         -990.470304

                     E (Thermal)             CV                S
                      KCal/Mol        Cal/Mol-Kelvin    Cal/Mol-Kelvin
 Total                  166.222             57.798            129.562
 Electronic               0.000              0.000              0.000
 Translational            0.889              2.981             42.083
 Rotational               0.889              2.981             32.738
 Vibrational            164.444             51.837             54.741
 Vibration     1          0.594              1.983              5.751
 Vibration     2          0.594              1.981              5.212
 Vibration     3          0.596              1.977              4.769
 Vibration     4          0.597              1.971              4.285
 Vibration     5          0.603              1.951              3.494
 Vibration     6          0.607              1.939              3.223
 Vibration     7          0.610              1.929              3.037
 Vibration     8          0.612              1.924              2.955
 Vibration     9          0.627              1.875              2.400
 Vibration    10          0.633              1.855              2.238
 Vibration    11          0.646              1.814              1.978
 Vibration    12          0.669              1.745              1.658
 Vibration    13          0.691              1.679              1.433
 Vibration    14          0.701              1.649              1.346
 Vibration    15          0.724              1.583              1.183
 Vibration    16          0.764              1.475              0.971
 Vibration    17          0.801              1.381              0.824
 Vibration    18          0.821              1.331              0.756
 Vibration    19          0.832              1.305              0.723
 Vibration    20          0.853              1.256              0.665
 Vibration    21          0.860              1.239              0.646
 Vibration    22          0.871              1.214              0.619
 Vibration    23          0.906              1.138              0.543
 Vibration    24          0.958              1.032              0.450

 Optimization completed.
    -- Stationary point found.
 Normal termination of Gaussian 16 at Thu Dec 10 17:27:07 2020.

 ----------------------------------------------------------------------
 # B3LYP/6-311++G(d,p) empiricaldispersion=gd3bj scf=xqc pop=npa geom=c
 heck
 ----------------------------------------------------------------------

 --------------------------------------
 CID_87309589_JID_5851_Energie_neutraal
 --------------------------------------
 Structure from the checkpoint file:  "JID_5851.chk"
 Charge =  0 Multiplicity = 1

 SCF Done:  E(RB3LYP) =  -990.865265649     A.U. after   17 cycles
 Normal termination of Gaussian 16 at Thu Dec 10 17:31:50 2020.

 ----------------------------------------------------------------------
 # B3LYP/6-311++G(d,p) empiricaldispersion=gd3bj scf=xqc pop=npa geom=c
 heck
 ----------------------------------------------------------------------

 ------------------------------------
 CID_87309589_JID_5851_Energie_kation
 ------------------------------------
 Structure from the checkpoint file:  "JID_5851.chk"
 Charge =  1 Multiplicity = 2

 SCF Done:  E(UB3LYP) =  -990.557342861     A.U. after   25 cycles
 Normal termination of Gaussian 16 at Thu Dec 10 17:40:21 2020.
 Gaussian 16:  ES64L-G16RevA.03 25-Dec-2016

 ----------------------------------------------------------------------
 # B3LYP/6-311++G(d,p) empiricaldispersion=gd3bj scf=xqc pop=npa geom=c
 heck
 ----------------------------------------------------------------------

 -----------------------------------
 CID_87309589_JID_5851_Energie_anion
 -----------------------------------
 Structure from the checkpoint file:  "JID_5851.chk"
 Charge = -1 Multiplicity = 2

                         Standard orientation:
 ---------------------------------------------------------------------
 Center     Atomic      Atomic             Coordinates (Angstroms)
 Number     Number       Type             X           Y           Z
 ---------------------------------------------------------------------
      1          6           0       -4.774959    0.320823   -1.042393
      2          6           0       -3.788936   -0.719499   -0.502973
      3          6           0       -2.364237   -0.581119   -1.060751
      4          6           0       -1.692098    0.785042   -0.831782
      5          6           0       -1.641892    1.308438    0.614226
      6          6           0       -0.549483    0.755543    1.548341
      7          6           0       -0.584683   -0.761227    1.835961
      8         16           0        0.659864   -1.561202    0.732499
      9          6           0        1.440325   -0.019135    0.429580
     10          6           0        2.582548    0.119407   -0.344379
     11          6           0        3.227026   -1.015834   -0.899893
     12          7           0        3.730800   -1.966564   -1.347643
     13          6           0        3.075702    1.431203   -0.572539
     14          7           0        3.391696    2.546746   -0.701181
     15          7           0        0.799047    1.002851    1.034392
     16          1           0       -4.504283    1.337470   -0.735501
     17          1           0       -5.790588    0.127616   -0.680739
     18          1           0       -4.800921    0.303369   -2.138688
     19          1           0       -3.773873   -0.669447    0.595361
     20          1           0       -4.155247   -1.724823   -0.746545
     21          1           0       -1.736673   -1.383264   -0.658721
     22          1           0       -2.395684   -0.751713   -2.145149
     23          1           0       -0.676574    0.756372   -1.245543
     24          1           0       -2.227097    1.535596   -1.425183
     25          1           0       -1.491394    2.395985    0.581910
     26          1           0       -2.608210    1.162223    1.112661
     27          1           0       -0.644055    1.280639    2.505849
     28          1           0       -0.307067   -0.971063    2.870736
     29          1           0       -1.566336   -1.191502    1.635337
     30          1           0        1.093507    1.948691    0.814875
 ---------------------------------------------------------------------

 SCF Done:  E(UB3LYP) =  -990.873546663     A.U. after   30 cycles

 The electronic state is 2-A.
 Alpha  occ. eigenvalues --  -88.76612 -14.24781 -14.19387 -14.18944 -10.14303
 Alpha  occ. eigenvalues --  -10.13531 -10.11885 -10.10148 -10.10070 -10.09672
 Alpha  occ. eigenvalues --  -10.08140 -10.07930 -10.07684 -10.07539 -10.07330
 Alpha  occ. eigenvalues --   -7.85230  -5.81603  -5.81243  -5.80640  -0.87982
 Alpha  occ. eigenvalues --   -0.79747  -0.78662  -0.72964  -0.71123  -0.70516
 Alpha  occ. eigenvalues --   -0.66886  -0.63316  -0.59200  -0.54608  -0.52152
 Alpha  occ. eigenvalues --   -0.50349  -0.47406  -0.46491  -0.44425  -0.40623
 Alpha  occ. eigenvalues --   -0.38555  -0.36437  -0.35970  -0.33658  -0.32338
 Alpha  occ. eigenvalues --   -0.31716  -0.31208  -0.30700  -0.30134  -0.28012
 Alpha  occ. eigenvalues --   -0.27738  -0.27015  -0.25983  -0.25361  -0.25135
 Alpha  occ. eigenvalues --   -0.24581  -0.23436  -0.23241  -0.23020  -0.22636
 Alpha  occ. eigenvalues --   -0.22627  -0.21761  -0.15375  -0.11679   0.03232
 Alpha virt. eigenvalues --    0.05510   0.06335   0.07085   0.07923   0.08791
 Alpha virt. eigenvalues --    0.09027   0.09647   0.10045   0.10894   0.10996
 Alpha virt. eigenvalues --    0.11910   0.12168   0.12409   0.12780   0.13353

  Beta  occ. eigenvalues --  -88.76604 -14.24675 -14.19302 -14.18886 -10.13787
  Beta  occ. eigenvalues --  -10.13521 -10.11850 -10.10164 -10.10054 -10.09658
  Beta  occ. eigenvalues --  -10.08102 -10.07911 -10.07682 -10.07520 -10.07320
  Beta  occ. eigenvalues --   -7.85222  -5.81598  -5.81249  -5.80601  -0.87621
  Beta  occ. eigenvalues --   -0.79625  -0.78565  -0.72815  -0.70861  -0.70435
  Beta  occ. eigenvalues --   -0.66810  -0.63209  -0.59081  -0.54510  -0.51996
  Beta  occ. eigenvalues --   -0.49981  -0.47323  -0.46326  -0.44293  -0.40450
  Beta  occ. eigenvalues --   -0.38511  -0.36312  -0.35902  -0.33553  -0.32216
  Beta  occ. eigenvalues --   -0.31662  -0.30819  -0.30630  -0.29506  -0.27958
  Beta  occ. eigenvalues --   -0.27663  -0.26937  -0.25845  -0.25228  -0.24969
  Beta  occ. eigenvalues --   -0.24070  -0.23363  -0.23164  -0.22712  -0.22562
  Beta  occ. eigenvalues --   -0.22397  -0.21677  -0.14999  -0.11104
  Beta virt. eigenvalues --    0.05735   0.06879   0.07333   0.08121   0.08460
  Beta virt. eigenvalues --    0.09114   0.09271   0.09996   0.10230   0.11038
  Beta virt. eigenvalues --    0.11104   0.11961   0.12253   0.12577   0.12904

 Mulliken charges and spin densities:
               1          2
     1  C    0.119934  -0.772831
     2  C   -0.314085   0.159540
     3  C   -0.219280   0.019713
     4  C    0.018466  -0.001309
     5  C    0.859727  -1.678385
     6  C   -0.481424   1.037875
     7  C   -0.096700  -0.904110
     8  S    0.308299  -0.228160
     9  C   -1.145214   0.152731
    10  C    3.153765   0.185180
    11  C   -1.426017   0.004771
    12  N   -0.265527   0.028626
    13  C   -0.951303  -0.019850
    14  N   -0.287120   0.036756
    15  N    0.029704   0.050718
    16  H    0.007078   0.141000
    17  H   -0.126312   0.258959
    18  H    0.060176   0.070555
    19  H   -0.036852   0.166480
    20  H   -0.043661   0.188765
    21  H    0.074848   0.058308
    22  H    0.086974   0.062943
    23  H    0.143575   0.035800
    24  H    0.206925  -0.042686
    25  H    0.117257   0.048113
    26  H   -0.356028   0.521949
    27  H   -0.583426   0.845462
    28  H    0.035641   0.238698
    29  H   -0.149266   0.292278
    30  H    0.259848   0.042114
 Sum of Mulliken charges =  -1.00000   1.00000

 Dipole moment (field-independent basis, Debye):
    X=             -4.8099    Y=             -0.6866    Z=             -0.1242  Tot=              4.8602
 Quadrupole moment (field-independent basis, Debye-Ang):
   XX=           -181.4368   YY=           -136.9859   ZZ=           -129.7525
   XY=              2.5302   XZ=             18.7085   YZ=             -5.8522

 Summary of Natural Population Analysis:

                                       Natural Population
                Natural  -----------------------------------------------
    Atom  No    Charge         Core      Valence    Rydberg      Total
 -----------------------------------------------------------------------
      C    1   -0.28686      0.99967     2.28271    0.00448     3.28686
      C    2   -0.19382      0.99964     2.18584    0.00834     3.19382
      C    3   -0.19302      0.99962     2.18594    0.00746     3.19302
      C    4   -0.19796      0.99962     2.18952    0.00883     3.19796
      C    5   -0.19693      0.99960     2.18695    0.01038     3.19693
      C    6   -0.00930      0.99959     1.99458    0.01514     3.00930
      C    7   -0.24480      0.99957     2.23485    0.01038     3.24480
      S    8    0.15124      4.99953     2.83212    0.01711     7.84876
      C    9    0.17223      0.99950     1.81365    0.01462     2.82777
      C   10   -0.23682      0.99927     2.22689    0.01065     3.23682
      C   11    0.15713      0.99964     1.82641    0.01682     2.84287
      N   12   -0.19570      0.99979     2.68496    0.01095     3.69570
      C   13    0.15551      0.99963     1.82703    0.01783     2.84449
      N   14   -0.19770      0.99979     2.68717    0.01075     3.69770
      N   15   -0.29339      0.99963     2.78336    0.01040     3.79339
      H   16    0.09744      0.00000     0.40155    0.00101     0.40256
      H   17    0.09829      0.00000     0.40077    0.00094     0.40171
      H   18    0.09331      0.00000     0.40566    0.00102     0.40669
      H   19    0.09450      0.00000     0.40408    0.00143     0.40550
      H   20    0.09486      0.00000     0.40420    0.00094     0.40514
      H   21    0.10281      0.00000     0.39554    0.00165     0.39719
      H   22    0.09409      0.00000     0.40488    0.00103     0.40591
      H   23    0.10571      0.00000     0.39323    0.00106     0.39429
      H   24    0.09622      0.00000     0.40276    0.00103     0.40378
      H   25    0.10078      0.00000     0.39815    0.00107     0.39922
      H   26    0.10512      0.00000     0.39225    0.00263     0.39488
      H   27    0.10579      0.00000     0.39176    0.00245     0.39421
      H   28    0.10790      0.00000     0.39081    0.00129     0.39210
      H   29    0.11044      0.00000     0.38836    0.00120     0.38956
      H   30    0.20294      0.00000     0.29475    0.00231     0.29706
 =======================================================================
   * Total *   -0.00000     18.99409    39.81073    0.19518    59.00000

 Normal termination of Gaussian 16 at Thu Dec 10 17:50:18 2020.
