 Gaussian 16, Revision A.03,

 -----------------------------------------------------------
 # opt freq B3LYP/6-31G(d) empiricaldispersion=gd3bj scf=xqc
 -----------------------------------------------------------

 -----------------------------
 CID_54529917_JID_175_neutraal
 -----------------------------
 Symbolic Z-matrix:
 Charge =  0 Multiplicity = 1

 SCF Done:  E(RB3LYP) =  -442.651298485     A.U. after   14 cycles
 SCF Done:  E(RB3LYP) =  -442.658553866     A.U. after   12 cycles
 SCF Done:  E(RB3LYP) =  -442.660693124     A.U. after   12 cycles
 SCF Done:  E(RB3LYP) =  -442.662814415     A.U. after   13 cycles
 SCF Done:  E(RB3LYP) =  -442.663397431     A.U. after   12 cycles
 SCF Done:  E(RB3LYP) =  -442.663770618     A.U. after   11 cycles
 SCF Done:  E(RB3LYP) =  -442.663828490     A.U. after   11 cycles
 SCF Done:  E(RB3LYP) =  -442.663852968     A.U. after   10 cycles
 SCF Done:  E(RB3LYP) =  -442.663862576     A.U. after    9 cycles
 SCF Done:  E(RB3LYP) =  -442.663863141     A.U. after    8 cycles
 SCF Done:  E(RB3LYP) =  -442.663863259     A.U. after    7 cycles
 SCF Done:  E(RB3LYP) =  -442.663863339     A.U. after    7 cycles
 Optimization completed.
    -- Stationary point found.
 Normal termination of Gaussian 16 at Tue Dec  8 10:19:26 2020.

 --------------------------------------------------------------------
 #N Geom=AllCheck Guess=TCheck SCRF=Check GenChk RB3LYP/6-31G(d) Freq
 --------------------------------------------------------------------

 Structure from the checkpoint file:  "JID_175.chk"
 -----------------------------
 CID_54529917_JID_175_neutraal
 -----------------------------
 Charge =  0 Multiplicity = 1

 SCF Done:  E(RB3LYP) =  -442.663863339     A.U. after    1 cycles

  Exact polarizability: 124.098   0.920  91.942  -5.715  -7.713  64.544
 Approx polarizability: 164.812   5.415 148.304 -13.385 -15.935  97.586

                      1                      2                      3
                      A                      A                      A
 Frequencies --     61.4000                97.9426               118.2488
 Red. masses --      3.0843                 2.6852                 2.5976
 Frc consts  --      0.0069                 0.0152                 0.0214
 IR Inten    --      0.7869                 0.2630                 0.5215

                      4                      5                      6
                      A                      A                      A
 Frequencies --    147.9337               187.7971               232.4463
 Red. masses --      1.3508                 2.6117                 1.2158
 Frc consts  --      0.0174                 0.0543                 0.0387
 IR Inten    --      0.3400                 0.4998                 0.7134

                      7                      8                      9
                      A                      A                      A
 Frequencies --    304.3316               310.4117               353.0142
 Red. masses --      2.1569                 2.6950                 3.0241
 Frc consts  --      0.1177                 0.1530                 0.2220
 IR Inten    --      4.4882                 0.7146                 4.7205

                     10                     11                     12
                      A                      A                      A
 Frequencies --    389.0024               409.7500               466.8228
 Red. masses --      1.5496                 1.8908                 2.8471
 Frc consts  --      0.1382                 0.1870                 0.3656
 IR Inten    --     37.2554                37.9417                 5.6481

                     13                     14                     15
                      A                      A                      A
 Frequencies --    486.0646               538.0799               633.4296
 Red. masses --      3.5373                 4.1749                 4.7194
 Frc consts  --      0.4924                 0.7122                 1.1157
 IR Inten    --      0.7617                16.6579                 2.3953

                     16                     17                     18
                      A                      A                      A
 Frequencies --    692.0033               726.1448               736.1776
 Red. masses --      3.9244                 3.1497                 1.3256
 Frc consts  --      1.1072                 0.9785                 0.4233
 IR Inten    --     10.0886                 3.7780                12.4396

                     19                     20                     21
                      A                      A                      A
 Frequencies --    796.0987               807.7158               824.9273
 Red. masses --      1.9188                 1.1832                 2.2176
 Frc consts  --      0.7165                 0.4548                 0.8891
 IR Inten    --      1.1859                 5.7563                16.5976

                     22                     23                     24
                      A                      A                      A
 Frequencies --    913.4968               932.6937               959.8658
 Red. masses --      1.3192                 3.6138                 2.7897
 Frc consts  --      0.6486                 1.8522                 1.5143
 IR Inten    --     10.2827               139.4931                82.0751

                     25                     26                     27
                      A                      A                      A
 Frequencies --    991.3765              1036.8136              1069.8414
 Red. masses --      2.0426                 2.3628                 1.7445
 Frc consts  --      1.1828                 1.4965                 1.1764
 IR Inten    --      9.8977                26.6322                 1.2868

                     28                     29                     30
                      A                      A                      A
 Frequencies --   1076.8944              1114.8923              1139.2916
 Red. masses --      1.5396                 1.8659                 1.9085
 Frc consts  --      1.0519                 1.3665                 1.4595
 IR Inten    --      3.1553                 8.4801                10.4880

                     31                     32                     33
                      A                      A                      A
 Frequencies --   1200.7319              1210.8788              1233.6096
 Red. masses --      1.8628                 1.4198                 2.7847
 Frc consts  --      1.5824                 1.2265                 2.4968
 IR Inten    --     60.3050                 1.1028                29.5791

                     34                     35                     36
                      A                      A                      A
 Frequencies --   1270.1444              1300.8338              1349.5278
 Red. masses --      1.3823                 1.4045                 1.3388
 Frc consts  --      1.3139                 1.4003                 1.4366
 IR Inten    --     14.1992                32.3643                 5.5769

                     37                     38                     39
                      A                      A                      A
 Frequencies --   1379.2770              1405.7453              1433.4979
 Red. masses --      1.6763                 1.2698                 1.2628
 Frc consts  --      1.8790                 1.4784                 1.5289
 IR Inten    --     11.4001                26.1925                26.1452

                     40                     41                     42
                      A                      A                      A
 Frequencies --   1437.3704              1446.6034              1446.9893
 Red. masses --      1.3181                 1.6527                 1.1893
 Frc consts  --      1.6044                 2.0377                 1.4672
 IR Inten    --     15.1387                34.2743                66.6393

                     43                     44                     45
                      A                      A                      A
 Frequencies --   1508.9508              1510.1263              1517.0804
 Red. masses --      1.3352                 1.0569                 1.0661
 Frc consts  --      1.7912                 1.4201                 1.4457
 IR Inten    --     22.7453                 4.6578                13.6955

                     46                     47                     48
                      A                      A                      A
 Frequencies --   1520.2096              1531.6767              1544.2059
 Red. masses --      1.1053                 1.6229                 1.0675
 Frc consts  --      1.5050                 2.2433                 1.4998
 IR Inten    --      6.5805                 3.8466                 3.2173

                     49                     50                     51
                      A                      A                      A
 Frequencies --   1631.6369              1720.3901              3039.0525
 Red. masses --      4.6776                 6.0441                 1.0378
 Frc consts  --      7.3371                10.5399                 5.6471
 IR Inten    --    111.2916               109.3313                33.8384

                     52                     53                     54
                      A                      A                      A
 Frequencies --   3048.6418              3052.4059              3066.2440
 Red. masses --      1.0605                 1.0391                 1.0861
 Frc consts  --      5.8070                 5.7043                 6.0166
 IR Inten    --     40.8115                29.8924                49.6034

                     55                     56                     57
                      A                      A                      A
 Frequencies --   3088.6348              3091.4902              3115.8898
 Red. masses --      1.1002                 1.1033                 1.1023
 Frc consts  --      6.1839                 6.2125                 6.3056
 IR Inten    --     22.7450                15.9940                50.8186

                     58                     59                     60
                      A                      A                      A
 Frequencies --   3129.6978              3163.9299              3194.5605
 Red. masses --      1.1006                 1.1005                 1.0883
 Frc consts  --      6.3517                 6.4905                 6.5439
 IR Inten    --     21.2229                10.5989                 9.6002

                     61                     62                     63
                      A                      A                      A
 Frequencies --   3197.5033              3224.5658              3711.7005
 Red. masses --      1.0901                 1.0953                 1.0658
 Frc consts  --      6.5668                 6.7099                 8.6509
 IR Inten    --     10.0886                12.7803                 8.9340

 - Thermochemistry -
 -------------------
 Temperature   298.150 Kelvin.  Pressure   1.00000 Atm.
 Atom     1 has atomic number  6 and mass  12.00000

 Molecular mass:   139.09971 amu.
 Principal axes and moments of inertia in atomic units:
                           1         2         3
     Eigenvalues --   670.679751983.969372380.31875
           X            0.99995  -0.01024  -0.00055
           Y            0.01022   0.99959  -0.02663
           Z            0.00082   0.02662   0.99965
 This molecule is an asymmetric top.
 Rotational symmetry number  1.
 Warning -- assumption of classical behavior for rotation
           may cause significant error
 Rotational temperatures (Kelvin)      0.12914     0.04366     0.03639
 Rotational constants (GHZ):           2.69091     0.90966     0.75819
 Zero-point vibrational energy     528024.0 (Joules/Mol)
                                  126.20075 (Kcal/Mol)
 Warning -- explicit consideration of  14 degrees of freedom as
           vibrations may cause significant error
 Vibrational temperatures:     88.34   140.92   170.13   212.84   270.20
          (Kelvin)            334.44   437.87   446.61   507.91   559.69
                              589.54   671.65   699.34   774.18   911.36
                              995.64  1044.76  1059.20  1145.41  1162.12
                             1186.89  1314.32  1341.94  1381.03  1426.37
                             1491.74  1539.26  1549.41  1604.08  1639.19
                             1727.59  1742.18  1774.89  1827.45  1871.61
                             1941.67  1984.47  2022.55  2062.48  2068.06
                             2081.34  2081.89  2171.04  2172.73  2182.74
                             2187.24  2203.74  2221.77  2347.56  2475.26
                             4372.52  4386.32  4391.73  4411.64  4443.86
                             4447.96  4483.07  4502.94  4552.19  4596.26
                             4600.49  4639.43  5340.31

 Zero-point correction=                           0.201114 (Hartree/Particle)
 Thermal correction to Energy=                    0.211569
 Thermal correction to Enthalpy=                  0.212513
 Thermal correction to Gibbs Free Energy=         0.165500
 Sum of electronic and zero-point Energies=           -442.462750
 Sum of electronic and thermal Energies=              -442.452294
 Sum of electronic and thermal Enthalpies=            -442.451350
 Sum of electronic and thermal Free Energies=         -442.498364

                     E (Thermal)             CV                S
                      KCal/Mol        Cal/Mol-Kelvin    Cal/Mol-Kelvin
 Total                  132.762             39.544             98.948
 Electronic               0.000              0.000              0.000
 Translational            0.889              2.981             40.702
 Rotational               0.889              2.981             29.539
 Vibrational            130.984             33.582             28.707
 Vibration     1          0.597              1.973              4.412
 Vibration     2          0.603              1.951              3.495
 Vibration     3          0.608              1.934              3.129
 Vibration     4          0.617              1.905              2.699
 Vibration     5          0.632              1.857              2.249
 Vibration     6          0.653              1.791              1.860
 Vibration     7          0.695              1.665              1.393
 Vibration     8          0.699              1.654              1.360
 Vibration     9          0.729              1.569              1.153
 Vibration    10          0.757              1.494              1.004
 Vibration    11          0.774              1.449              0.927
 Vibration    12          0.824              1.324              0.747
 Vibration    13          0.842              1.281              0.694
 Vibration    14          0.893              1.166              0.569

                           ! Non-Optimized Parameters !
 Normal termination of Gaussian 16 at Tue Dec  8 10:23:28 2020.

 ----------------------------------------------------------------------
 # B3LYP/6-311++G(d,p) empiricaldispersion=gd3bj scf=xqc pop=npa geom=c
 heck
 ----------------------------------------------------------------------

 -------------------------------------
 CID_54529917_JID_175_Energie_neutraal
 -------------------------------------
 Structure from the checkpoint file:  "JID_175.chk"
 Charge =  0 Multiplicity = 1

 SCF Done:  E(RB3LYP) =  -442.797511438     A.U. after   15 cycles
 Normal termination of Gaussian 16 at Tue Dec  8 10:25:11 2020.

 ----------------------------------------------------------------------
 # B3LYP/6-311++G(d,p) empiricaldispersion=gd3bj scf=xqc pop=npa geom=c
 heck
 ----------------------------------------------------------------------

 -----------------------------------
 CID_54529917_JID_175_Energie_kation
 -----------------------------------
 Structure from the checkpoint file:  "JID_175.chk"
 Charge =  1 Multiplicity = 2

 SCF Done:  E(UB3LYP) =  -442.531344056     A.U. after   19 cycles
 Normal termination of Gaussian 16 at Tue Dec  8 10:28:13 2020.
 Gaussian 16:  ES64L-G16RevA.03 25-Dec-2016

 ----------------------------------------------------------------------
 # B3LYP/6-311++G(d,p) empiricaldispersion=gd3bj scf=xqc pop=npa geom=c
 heck
 ----------------------------------------------------------------------

 ----------------------------------
 CID_54529917_JID_175_Energie_anion
 ----------------------------------
 Structure from the checkpoint file:  "JID_175.chk"
 Charge = -1 Multiplicity = 2

                         Standard orientation:
 ---------------------------------------------------------------------
 Center     Atomic      Atomic             Coordinates (Angstroms)
 Number     Number       Type             X           Y           Z
 ---------------------------------------------------------------------
      1          6           0        3.109558   -0.301809    0.558394
      2          6           0        2.240810   -0.456316   -0.693759
      3          7           0        0.806836   -0.322659   -0.449291
      4          6           0        0.112215   -1.381988    0.072608
      5          6           0       -1.218893   -1.327734    0.331559
      6          6           0       -1.940195   -0.120296   -0.001526
      7          6           0       -1.253387    0.960062   -0.445972
      8          6           0        0.240367    1.016000   -0.440252
      9          8           0        0.726116    1.811117    0.666005
     10          6           0       -3.442348   -0.117098    0.116490
     11          1           0        2.956580    0.684304    1.001344
     12          1           0        4.169211   -0.425724    0.306070
     13          1           0        2.847520   -1.060829    1.304707
     14          1           0        2.515505    0.301509   -1.436084
     15          1           0        2.413431   -1.434935   -1.157885
     16          1           0        0.697102   -2.282961    0.234608
     17          1           0       -1.737771   -2.200067    0.711464
     18          1           0       -1.765685    1.875359   -0.727238
     19          1           0        0.641734    1.554005   -1.305933
     20          1           0        0.226627    1.511745    1.444634
     21          1           0       -3.887897   -0.896454   -0.514687
     22          1           0       -3.753389   -0.327886    1.147914
     23          1           0       -3.868511    0.846680   -0.177177
 ---------------------------------------------------------------------

 SCF Done:  E(UB3LYP) =  -442.780002416     A.U. after   33 cycles
 SCF Done:  E(UB3LYP) =  -442.780002416     a.u. after    1 cycles

 The electronic state is 2-A.
 Alpha  occ. eigenvalues --  -19.01763 -14.23727 -10.15388 -10.10159 -10.10135
 Alpha  occ. eigenvalues --  -10.07993 -10.06468 -10.05511 -10.05327 -10.04747
 Alpha  occ. eigenvalues --   -0.92709  -0.84555  -0.71899  -0.65736  -0.64744
 Alpha  occ. eigenvalues --   -0.60082  -0.54061  -0.53010  -0.49442  -0.42646
 Alpha  occ. eigenvalues --   -0.40292  -0.39150  -0.36429  -0.34946  -0.33261
 Alpha  occ. eigenvalues --   -0.33102  -0.31523  -0.30450  -0.29007  -0.28557
 Alpha  occ. eigenvalues --   -0.27211  -0.25073  -0.24923  -0.23885  -0.22685
 Alpha  occ. eigenvalues --   -0.19296  -0.15793  -0.09059   0.04776
 Alpha virt. eigenvalues --    0.06602   0.07618   0.07979   0.08864   0.09240
 Alpha virt. eigenvalues --    0.09495   0.09990   0.11043   0.11399   0.12230
 Alpha virt. eigenvalues --    0.13009   0.13862   0.14731   0.14962   0.16001

  Beta  occ. eigenvalues --  -19.01753 -14.23732 -10.15379 -10.10130 -10.10108
  Beta  occ. eigenvalues --  -10.07995 -10.06436 -10.05495 -10.05295 -10.04728
  Beta  occ. eigenvalues --   -0.92691  -0.84538  -0.71874  -0.65691  -0.64706
  Beta  occ. eigenvalues --   -0.60033  -0.54015  -0.52939  -0.49390  -0.42603
  Beta  occ. eigenvalues --   -0.40246  -0.39115  -0.36392  -0.34892  -0.33223
  Beta  occ. eigenvalues --   -0.33055  -0.31489  -0.30402  -0.28973  -0.28516
  Beta  occ. eigenvalues --   -0.27162  -0.25033  -0.24888  -0.23858  -0.22648
  Beta  occ. eigenvalues --   -0.19275  -0.15770  -0.09027
  Beta virt. eigenvalues --    0.07024   0.07724   0.07996   0.08549   0.09392
  Beta virt. eigenvalues --    0.09671   0.10272   0.10619   0.11428   0.12056
  Beta virt. eigenvalues --    0.12792   0.13308   0.14482   0.14827   0.15313

 Mulliken charges and spin densities:
               1          2
     1  C    1.327158  -1.819292
     2  C   -1.115100   1.075817
     3  N    0.102396   0.154136
     4  C   -0.428909   0.036708
     5  C   -0.050936   0.298545
     6  C    1.007500  -0.567863
     7  C   -0.936060   0.518958
     8  C   -0.128320  -0.687459
     9  O   -0.162842   0.005468
    10  C    3.133606  -3.865313
    11  H    0.028346   0.152306
    12  H   -0.648812   0.785605
    13  H   -0.178496   0.309866
    14  H   -0.282272   0.383845
    15  H   -0.547277   0.732875
    16  H   -0.645441   0.800398
    17  H   -0.817009   1.011079
    18  H   -0.321010   0.472781
    19  H   -0.016968   0.213670
    20  H    0.190224   0.040043
    21  H   -0.079997   0.229190
    22  H   -0.180387   0.327756
    23  H   -0.249395   0.390881
 Sum of Mulliken charges =  -1.00000   1.00000

 Dipole moment (field-independent basis, Debye):
    X=             -1.7503    Y=              3.7916    Z=             -0.1924  Tot=              4.1805
 Quadrupole moment (field-independent basis, Debye-Ang):
   XX=           -133.0555   YY=           -106.5055   ZZ=            -89.9880
   XY=              4.4006   XZ=              2.1409   YZ=              1.3237

 Summary of Natural Population Analysis:

                                       Natural Population
                Natural  -----------------------------------------------
    Atom  No    Charge         Core      Valence    Rydberg      Total
 -----------------------------------------------------------------------
      C    1   -0.29281      0.99966     2.28799    0.00516     3.29281
      C    2   -0.08040      0.99962     2.06923    0.01155     3.08040
      N    3   -0.24119      0.99966     2.72773    0.01381     3.74119
      C    4    0.04202      0.99952     1.94486    0.01360     2.95798
      C    5   -0.17092      0.99952     2.15945    0.01195     3.17092
      C    6   -0.01021      0.99950     1.99854    0.01217     3.01021
      C    7   -0.14032      0.99947     2.13083    0.01001     3.14032
      C    8    0.13975      0.99956     1.84376    0.01694     2.86025
      O    9   -0.37946      0.99990     3.37299    0.00656     4.37946
      C   10   -0.28945      0.99963     2.28448    0.00533     3.28945
      H   11    0.10660      0.00000     0.39196    0.00144     0.39340
      H   12    0.09965      0.00000     0.39841    0.00194     0.40035
      H   13    0.09785      0.00000     0.40075    0.00140     0.40215
      H   14    0.09472      0.00000     0.40376    0.00152     0.40528
      H   15    0.09759      0.00000     0.40001    0.00240     0.40241
      H   16    0.10089      0.00000     0.39692    0.00219     0.39911
      H   17    0.10591      0.00000     0.39253    0.00156     0.39409
      H   18    0.09925      0.00000     0.39980    0.00095     0.40075
      H   19    0.08612      0.00000     0.41232    0.00156     0.41388
      H   20    0.22727      0.00000     0.26920    0.00353     0.27273
      H   21    0.10310      0.00000     0.39535    0.00155     0.39690
      H   22    0.10379      0.00000     0.39451    0.00171     0.39621
      H   23    0.10026      0.00000     0.39850    0.00124     0.39974
 =======================================================================
   * Total *   -0.00000      9.99603    27.87389    0.13008    38.00000

 Normal termination of Gaussian 16 at Tue Dec  8 10:36:21 2020.
