 Gaussian 16, Revision A.03,

 -----------------------------------------------------------
 # opt freq B3LYP/6-31G(d) empiricaldispersion=gd3bj scf=xqc
 -----------------------------------------------------------

 -----------------------------
 CID_82418574_JID_404_neutraal
 -----------------------------
 Symbolic Z-matrix:
 Charge =  0 Multiplicity = 1

 SCF Done:  E(RB3LYP) =  -472.287823265     A.U. after   15 cycles
 SCF Done:  E(RB3LYP) =  -472.292167300     A.U. after   13 cycles
 SCF Done:  E(RB3LYP) =  -472.292133940     A.U. after   13 cycles
 SCF Done:  E(RB3LYP) =  -472.293182867     A.U. after   13 cycles
 SCF Done:  E(RB3LYP) =  -472.293500948     A.U. after   12 cycles
 SCF Done:  E(RB3LYP) =  -472.293665644     A.U. after   13 cycles
 SCF Done:  E(RB3LYP) =  -472.293699113     A.U. after   12 cycles
 SCF Done:  E(RB3LYP) =  -472.293714516     A.U. after   12 cycles
 SCF Done:  E(RB3LYP) =  -472.293723745     A.U. after   12 cycles
 SCF Done:  E(RB3LYP) =  -472.293724906     A.U. after    9 cycles
 SCF Done:  E(RB3LYP) =  -472.293725536     A.U. after    9 cycles
 Optimization completed.
    -- Stationary point found.
 Normal termination of Gaussian 16 at Tue Dec  8 10:30:46 2020.

 --------------------------------------------------------------------
 #N Geom=AllCheck Guess=TCheck SCRF=Check GenChk RB3LYP/6-31G(d) Freq
 --------------------------------------------------------------------

 Structure from the checkpoint file:  "JID_404.chk"
 -----------------------------
 CID_82418574_JID_404_neutraal
 -----------------------------
 Charge =  0 Multiplicity = 1

 SCF Done:  E(RB3LYP) =  -472.293725536     A.U. after    1 cycles

  Exact polarizability: 108.875  -5.117  85.384  -0.461  -0.802  43.062
 Approx polarizability: 159.283  -9.194 158.441   1.321  -4.058  66.028

                      1                      2                      3
                      A                      A                      A
 Frequencies --     40.2279                89.8523               136.5933
 Red. masses --      5.8846                 3.0827                 4.1320
 Frc consts  --      0.0056                 0.0147                 0.0454
 IR Inten    --      0.3087                 8.7337                 2.0724

                      4                      5                      6
                      A                      A                      A
 Frequencies --    187.0668               259.1949               297.3911
 Red. masses --      4.8447                 4.3091                 1.2335
 Frc consts  --      0.0999                 0.1706                 0.0643
 IR Inten    --      0.8284                 0.2007                42.1744

                      7                      8                      9
                      A                      A                      A
 Frequencies --    357.9791               370.3670               400.8899
 Red. masses --      3.1242                 4.2322                 6.0295
 Frc consts  --      0.2359                 0.3420                 0.5709
 IR Inten    --     11.5240                 0.7802                 9.2374

                     10                     11                     12
                      A                      A                      A
 Frequencies --    524.1834               587.7428               642.3271
 Red. masses --      4.1356                 4.2638                 8.1638
 Frc consts  --      0.6695                 0.8678                 1.9845
 IR Inten    --      2.7685                19.3026                 0.0679

                     13                     14                     15
                      A                      A                      A
 Frequencies --    731.8896               766.4805               773.3275
 Red. masses --      5.5799                 5.6148                 2.3510
 Frc consts  --      1.7610                 1.9435                 0.8284
 IR Inten    --     11.7834                 5.2325                22.2581

                     16                     17                     18
                      A                      A                      A
 Frequencies --    834.1258               894.4617               958.7706
 Red. masses --      1.6254                 1.4740                 2.0392
 Frc consts  --      0.6663                 0.6948                 1.1044
 IR Inten    --     10.1960                88.2930                74.3320

                     19                     20                     21
                      A                      A                      A
 Frequencies --    981.1843              1026.3476              1044.7678
 Red. masses --      1.3851                 1.3539                 6.0200
 Frc consts  --      0.7856                 0.8403                 3.8716
 IR Inten    --      2.4897                 1.1288                 8.9535

                     22                     23                     24
                      A                      A                      A
 Frequencies --   1058.4918              1074.3239              1114.6807
 Red. masses --      3.9624                 2.8559                 1.9425
 Frc consts  --      2.6157                 1.9420                 1.4220
 IR Inten    --     11.8485                 1.1216                 9.1663

                     25                     26                     27
                      A                      A                      A
 Frequencies --   1148.3944              1168.8467              1190.7364
 Red. masses --      1.8094                 1.4880                 2.3306
 Frc consts  --      1.4060                 1.1978                 1.9469
 IR Inten    --      5.3280                 0.5169                28.0603

                     28                     29                     30
                      A                      A                      A
 Frequencies --   1235.9917              1279.4529              1333.6779
 Red. masses --      1.7573                 2.5028                 1.3624
 Frc consts  --      1.5817                 2.4140                 1.4278
 IR Inten    --     13.2033                39.3393                33.7419

                     31                     32                     33
                      A                      A                      A
 Frequencies --   1417.8298              1438.3582              1472.2136
 Red. masses --      1.8577                 2.0954                 1.9909
 Frc consts  --      2.2003                 2.5542                 2.5424
 IR Inten    --      2.6263                 1.3447                 5.9245

                     34                     35                     36
                      A                      A                      A
 Frequencies --   1527.4670              1604.1739              1623.8501
 Red. masses --      1.0810                 5.2185                 5.1344
 Frc consts  --      1.4860                 7.9122                 7.9769
 IR Inten    --      4.6361                19.3580                 4.7533

                     37                     38                     39
                      A                      A                      A
 Frequencies --   1696.3897              1810.0744              3025.5713
 Red. masses --      1.0916                11.1739                 1.0613
 Frc consts  --      1.8508                21.5699                 5.7240
 IR Inten    --     33.0499               130.2749                41.8638

                     40                     41                     42
                      A                      A                      A
 Frequencies --   3081.4083              3196.6675              3213.2487
 Red. masses --      1.1023                 1.0883                 1.0942
 Frc consts  --      6.1669                 6.5524                 6.6562
 IR Inten    --     26.8593                 8.1795                12.6381

                     43                     44                     45
                      A                      A                      A
 Frequencies --   3227.8271              3473.1221              3557.3656
 Red. masses --      1.0964                 1.0498                 1.0932
 Frc consts  --      6.7301                 7.4607                 8.1509
 IR Inten    --     12.3429                 0.3498                 1.2602

 - Thermochemistry -
 -------------------
 Temperature   298.150 Kelvin.  Pressure   1.00000 Atm.
 Atom     1 has atomic number  6 and mass  12.00000

 Molecular mass:   137.05891 amu.
 Principal axes and moments of inertia in atomic units:
                           1         2         3
     Eigenvalues --   669.115581832.754642413.01522
           X            0.99996   0.00711  -0.00466
           Y           -0.00709   0.99997   0.00418
           Z            0.00469  -0.00414   0.99998
 This molecule is an asymmetric top.
 Rotational symmetry number  1.
 Warning -- assumption of classical behavior for rotation
           may cause significant error
 Rotational temperatures (Kelvin)      0.12945     0.04726     0.03589
 Rotational constants (GHZ):           2.69720     0.98472     0.74792
 Zero-point vibrational energy     346171.4 (Joules/Mol)
                                   82.73694 (Kcal/Mol)
 Warning -- explicit consideration of  11 degrees of freedom as
           vibrations may cause significant error
 Vibrational temperatures:     57.88   129.28   196.53   269.15   372.92
          (Kelvin)            427.88   515.05   532.88   576.79   754.18
                              845.63   924.17  1053.03  1102.79  1112.65
                             1200.12  1286.93  1379.46  1411.71  1476.69
                             1503.19  1522.93  1545.71  1603.78  1652.28
                             1681.71  1713.20  1778.32  1840.85  1918.87
                             2039.94  2069.48  2118.19  2197.68  2308.05
                             2336.36  2440.73  2604.29  4353.12  4433.46
                             4599.29  4623.15  4644.12  4997.05  5118.26

 Zero-point correction=                           0.131850 (Hartree/Particle)
 Thermal correction to Energy=                    0.140703
 Thermal correction to Enthalpy=                  0.141647
 Thermal correction to Gibbs Free Energy=         0.097073
 Sum of electronic and zero-point Energies=           -472.161876
 Sum of electronic and thermal Energies=              -472.153023
 Sum of electronic and thermal Enthalpies=            -472.152078
 Sum of electronic and thermal Free Energies=         -472.196652

                     E (Thermal)             CV                S
                      KCal/Mol        Cal/Mol-Kelvin    Cal/Mol-Kelvin
 Total                   88.292             32.181             93.814
 Electronic               0.000              0.000              0.000
 Translational            0.889              2.981             40.658
 Rotational               0.889              2.981             29.472
 Vibrational             86.515             26.219             23.685
 Vibration     1          0.594              1.981              5.248
 Vibration     2          0.602              1.956              3.663
 Vibration     3          0.614              1.917              2.851
 Vibration     4          0.632              1.858              2.257
 Vibration     5          0.668              1.747              1.667
 Vibration     6          0.691              1.679              1.432
 Vibration     7          0.733              1.559              1.131
 Vibration     8          0.742              1.533              1.078
 Vibration     9          0.767              1.468              0.959
 Vibration    10          0.879              1.196              0.600
 Vibration    11          0.945              1.058              0.471

 Optimization completed.
    -- Stationary point found.
 Normal termination of Gaussian 16 at Tue Dec  8 10:33:12 2020.

 ----------------------------------------------------------------------
 # B3LYP/6-311++G(d,p) empiricaldispersion=gd3bj scf=xqc pop=npa geom=c
 heck
 ----------------------------------------------------------------------

 -------------------------------------
 CID_82418574_JID_404_Energie_neutraal
 -------------------------------------
 Structure from the checkpoint file:  "JID_404.chk"
 Charge =  0 Multiplicity = 1

 SCF Done:  E(RB3LYP) =  -472.430780320     A.U. after   15 cycles
 Normal termination of Gaussian 16 at Tue Dec  8 10:34:49 2020.

 ----------------------------------------------------------------------
 # B3LYP/6-311++G(d,p) empiricaldispersion=gd3bj scf=xqc pop=npa geom=c
 heck
 ----------------------------------------------------------------------

 -----------------------------------
 CID_82418574_JID_404_Energie_kation
 -----------------------------------
 Structure from the checkpoint file:  "JID_404.chk"
 Charge =  1 Multiplicity = 2

 SCF Done:  E(UB3LYP) =  -472.107799377     A.U. after   27 cycles
 Normal termination of Gaussian 16 at Tue Dec  8 10:41:27 2020.
 Gaussian 16:  ES64L-G16RevA.03 25-Dec-2016

 ----------------------------------------------------------------------
 # B3LYP/6-311++G(d,p) empiricaldispersion=gd3bj scf=xqc pop=npa geom=c
 heck
 ----------------------------------------------------------------------

 ----------------------------------
 CID_82418574_JID_404_Energie_anion
 ----------------------------------
 Structure from the checkpoint file:  "JID_404.chk"
 Charge = -1 Multiplicity = 2

                         Standard orientation:
 ---------------------------------------------------------------------
 Center     Atomic      Atomic             Coordinates (Angstroms)
 Number     Number       Type             X           Y           Z
 ---------------------------------------------------------------------
      1          6           0        1.873147   -1.425656   -0.037555
      2          6           0        0.525990   -1.107813   -0.012667
      3          6           0        0.194440    0.254706    0.026523
      4          7           0        1.115936    1.232769    0.049215
      5          7           0        2.407600    0.923684    0.033211
      6          6           0        2.776987   -0.363277   -0.013141
      7          6           0       -1.237339    0.735011    0.057796
      8          8           0       -1.539307    1.847991   -0.321776
      9          6           0       -2.310932   -0.219249    0.590847
     10          7           0       -2.538412   -1.306215   -0.373107
     11          1           0        2.219829   -2.453671   -0.079747
     12          1           0       -0.259570   -1.854057   -0.060308
     13          1           0        3.850889   -0.529653   -0.032038
     14          1           0       -1.964460   -0.667400    1.530431
     15          1           0       -3.193790    0.398715    0.807498
     16          1           0       -3.231298   -1.952457   -0.000186
     17          1           0       -2.936762   -0.919404   -1.227487
 ---------------------------------------------------------------------

 SCF Done:  E(UB3LYP) =  -472.452241951     A.U. after   28 cycles

 The electronic state is 2-A.
 Alpha  occ. eigenvalues --  -18.92398 -14.19033 -14.17658 -14.17005 -10.06794
 Alpha  occ. eigenvalues --  -10.05977 -10.05195 -10.04517 -10.04265 -10.04180
 Alpha  occ. eigenvalues --   -0.87040  -0.85245  -0.76071  -0.66825  -0.66779
 Alpha  occ. eigenvalues --   -0.56265  -0.50615  -0.50261  -0.41129  -0.38056
 Alpha  occ. eigenvalues --   -0.35726  -0.35404  -0.32937  -0.29578  -0.28786
 Alpha  occ. eigenvalues --   -0.27596  -0.26776  -0.26155  -0.23910  -0.21495
 Alpha  occ. eigenvalues --   -0.16219  -0.15832  -0.14130  -0.12530  -0.08398
 Alpha  occ. eigenvalues --   -0.07429   0.03959
 Alpha virt. eigenvalues --    0.07728   0.09179   0.09720   0.11016   0.11267
 Alpha virt. eigenvalues --    0.12086   0.13240   0.14943   0.15245   0.17059
 Alpha virt. eigenvalues --    0.17436   0.18203   0.18594   0.19756   0.20085

  Beta  occ. eigenvalues --  -18.91817 -14.19161 -14.17585 -14.16634 -10.06544
  Beta  occ. eigenvalues --  -10.05998 -10.04933 -10.04459 -10.04174 -10.04081
  Beta  occ. eigenvalues --   -0.86179  -0.84746  -0.75916  -0.66579  -0.66225
  Beta  occ. eigenvalues --   -0.55879  -0.50156  -0.50043  -0.40647  -0.37913
  Beta  occ. eigenvalues --   -0.35550  -0.35044  -0.32727  -0.29261  -0.28196
  Beta  occ. eigenvalues --   -0.27179  -0.26369  -0.25927  -0.23453  -0.19110
  Beta  occ. eigenvalues --   -0.16060  -0.15052  -0.13122  -0.11603  -0.07918
  Beta  occ. eigenvalues --   -0.07102
  Beta virt. eigenvalues --    0.07844   0.09124   0.10067   0.10642   0.11055
  Beta virt. eigenvalues --    0.11168   0.12153   0.13303   0.14835   0.16762
  Beta virt. eigenvalues --    0.17109   0.17603   0.18520   0.18609   0.19783

 Mulliken charges and spin densities:
               1          2
     1  C   -0.537107   0.063413
     2  C    0.400991   0.078837
     3  C    0.151153   0.086273
     4  N   -0.030772   0.172190
     5  N   -0.088479  -0.078453
     6  C   -0.341335   0.205071
     7  C   -0.737856   0.214652
     8  O   -0.345880   0.200160
     9  C    0.112003  -0.341445
    10  N   -0.321806  -0.041107
    11  H    0.112834   0.002754
    12  H    0.247224  -0.003321
    13  H    0.132797  -0.015847
    14  H    0.026420   0.093947
    15  H    0.113349   0.025440
    16  H   -0.055592   0.279848
    17  H    0.162055   0.057586
 Sum of Mulliken charges =  -1.00000   1.00000

 Dipole moment (field-independent basis, Debye):
    X=             -0.1362    Y=             -5.2871    Z=              0.4792  Tot=              5.3106
 Quadrupole moment (field-independent basis, Debye-Ang):
   XX=            -84.0430   YY=            -83.6229   ZZ=            -65.2907
   XY=             -4.8676   XZ=             -0.4679   YZ=              1.4944

 Summary of Natural Population Analysis:

                                       Natural Population
                Natural  -----------------------------------------------
    Atom  No    Charge         Core      Valence    Rydberg      Total
 -----------------------------------------------------------------------
      C    1   -0.11343      0.99956     2.10538    0.00848     3.11343
      C    2   -0.09370      0.99953     2.08586    0.00831     3.09370
      C    3    0.06558      0.99951     1.91910    0.01582     2.93442
      N    4   -0.05569      0.99969     2.54098    0.01501     3.55569
      N    5   -0.15786      0.99974     2.64139    0.01673     3.65786
      C    6    0.04412      0.99961     1.94142    0.01485     2.95588
      C    7    0.28526      0.99965     1.69137    0.02372     2.71474
      O    8   -0.22282      0.99987     3.21606    0.00689     4.22282
      C    9   -0.13292      0.99961     2.11934    0.01397     3.13292
      N   10   -0.42225      0.99977     2.91156    0.01091     3.92225
      H   11    0.09206      0.00000     0.40674    0.00120     0.40794
      H   12    0.11339      0.00000     0.38498    0.00163     0.38661
      H   13    0.07933      0.00000     0.41931    0.00136     0.42067
      H   14    0.09061      0.00000     0.40794    0.00146     0.40939
      H   15    0.08407      0.00000     0.41376    0.00217     0.41593
      H   16    0.17140      0.00000     0.32564    0.00296     0.32860
      H   17    0.17285      0.00000     0.32546    0.00169     0.32715
 =======================================================================
   * Total *    0.00000      9.99655    25.85630    0.14715    36.00000

 Normal termination of Gaussian 16 at Tue Dec  8 10:46:03 2020.
