 Gaussian 16, Revision A.03,

 -----------------------------------------------------------
 # opt freq B3LYP/6-31G(d) empiricaldispersion=gd3bj scf=xqc
 -----------------------------------------------------------

 -------------------------------
 CID_118402842_JID_5465_neutraal
 -------------------------------
 Symbolic Z-matrix:
 Charge =  0 Multiplicity = 1

 SCF Done:  E(RB3LYP) =  -671.497669134     A.U. after   14 cycles
 SCF Done:  E(RB3LYP) =  -671.500927455     A.U. after   12 cycles
 SCF Done:  E(RB3LYP) =  -671.501190179     A.U. after   11 cycles
 SCF Done:  E(RB3LYP) =  -671.501272476     A.U. after   10 cycles
 SCF Done:  E(RB3LYP) =  -671.501313645     A.U. after   11 cycles
 SCF Done:  E(RB3LYP) =  -671.501335490     A.U. after   11 cycles
 SCF Done:  E(RB3LYP) =  -671.501340941     A.U. after    9 cycles
 SCF Done:  E(RB3LYP) =  -671.501342115     A.U. after    8 cycles
 SCF Done:  E(RB3LYP) =  -671.501342271     A.U. after    7 cycles
 SCF Done:  E(RB3LYP) =  -671.501342297     A.U. after    6 cycles
 Optimization completed.
    -- Stationary point found.
 Normal termination of Gaussian 16 at Thu Dec 10 16:13:42 2020.

 --------------------------------------------------------------------
 #N Geom=AllCheck Guess=TCheck SCRF=Check GenChk RB3LYP/6-31G(d) Freq
 --------------------------------------------------------------------

 Structure from the checkpoint file:  "JID_5465.chk"
 -------------------------------
 CID_118402842_JID_5465_neutraal
 -------------------------------
 Charge =  0 Multiplicity = 1

 SCF Done:  E(RB3LYP) =  -671.501342297     A.U. after    1 cycles

  Exact polarizability: 191.925   2.124 144.749   0.558  -1.835  83.510
 Approx polarizability: 248.935   2.141 231.551  -0.044  -4.492 128.370

                      1                      2                      3
                      A                      A                      A
 Frequencies --     33.1174                65.1880                73.9390
 Red. masses --      3.7335                 2.9622                 2.8243
 Frc consts  --      0.0024                 0.0074                 0.0091
 IR Inten    --      0.4079                 0.9392                 1.1557

                      4                      5                      6
                      A                      A                      A
 Frequencies --     86.8992               145.7252               174.3806
 Red. masses --      3.0038                 2.5571                 1.6403
 Frc consts  --      0.0134                 0.0320                 0.0294
 IR Inten    --      4.6282                 3.4795                 0.7454

                      7                      8                      9
                      A                      A                      A
 Frequencies --    187.7881               202.9794               218.3444
 Red. masses --      2.4404                 2.6258                 2.6165
 Frc consts  --      0.0507                 0.0637                 0.0735
 IR Inten    --      2.9829                 0.9428                 1.0058

                     10                     11                     12
                      A                      A                      A
 Frequencies --    271.0120               303.8963               311.4054
 Red. masses --      1.5292                 2.3071                 3.7406
 Frc consts  --      0.0662                 0.1255                 0.2137
 IR Inten    --      2.0761                 0.3032                 0.5519

                     13                     14                     15
                      A                      A                      A
 Frequencies --    326.9548               338.4061               407.9502
 Red. masses --      3.7650                 3.8011                 2.8819
 Frc consts  --      0.2371                 0.2565                 0.2826
 IR Inten    --      1.0992                 1.3578                 1.7940

                     16                     17                     18
                      A                      A                      A
 Frequencies --    423.4192               484.2480               501.5431
 Red. masses --      3.4598                 4.5915                 3.4283
 Frc consts  --      0.3655                 0.6344                 0.5081
 IR Inten    --     14.4872                 0.2381                 0.2231

                     19                     20                     21
                      A                      A                      A
 Frequencies --    551.0008               571.4640               578.8118
 Red. masses --      5.4509                 4.0721                 4.3617
 Frc consts  --      0.9750                 0.7835                 0.8609
 IR Inten    --      0.4655                 4.6550                 1.0196

                     22                     23                     24
                      A                      A                      A
 Frequencies --    595.1471               684.8185               715.9393
 Red. masses --      4.4067                 3.4691                 2.9739
 Frc consts  --      0.9196                 0.9586                 0.8981
 IR Inten    --      2.8430                 1.8526                 8.5931

                     25                     26                     27
                      A                      A                      A
 Frequencies --    735.5568               781.8662               811.5745
 Red. masses --      3.0490                 1.5552                 3.9857
 Frc consts  --      0.9719                 0.5601                 1.5467
 IR Inten    --      9.4492                38.1650                 6.4231

                     28                     29                     30
                      A                      A                      A
 Frequencies --    827.9706               866.5269               893.3023
 Red. masses --      3.0938                 1.3846                 2.9392
 Frc consts  --      1.2496                 0.6125                 1.3819
 IR Inten    --     11.3844                 1.4490                46.2824

                     31                     32                     33
                      A                      A                      A
 Frequencies --    930.8417               946.7514               956.4545
 Red. masses --      2.2965                 2.5911                 1.3518
 Frc consts  --      1.1724                 1.3684                 0.7286
 IR Inten    --     22.3095                37.9765                 3.1151

                     34                     35                     36
                      A                      A                      A
 Frequencies --    996.4030              1008.9895              1063.4284
 Red. masses --      3.7449                 2.3957                 2.1387
 Frc consts  --      2.1906                 1.4370                 1.4250
 IR Inten    --      6.2818                 1.9052                 0.9248

                     37                     38                     39
                      A                      A                      A
 Frequencies --   1103.7182              1117.9560              1130.7375
 Red. masses --      6.4028                 2.4247                 4.3377
 Frc consts  --      4.5955                 1.7855                 3.2676
 IR Inten    --    273.7567                 6.4453               106.0769

                     40                     41                     42
                      A                      A                      A
 Frequencies --   1176.2378              1186.6434              1188.7159
 Red. masses --      1.2318                 1.2741                 1.2662
 Frc consts  --      1.0041                 1.0570                 1.0542
 IR Inten    --      0.3199                 1.0399                 0.6217

                     43                     44                     45
                      A                      A                      A
 Frequencies --   1199.7830              1208.6837              1216.7817
 Red. masses --      1.4251                 1.9609                 1.4011
 Frc consts  --      1.2087                 1.6879                 1.2222
 IR Inten    --      0.3789                 1.3471                14.1370

                     46                     47                     48
                      A                      A                      A
 Frequencies --   1223.5926              1235.7827              1242.7767
 Red. masses --      1.3107                 1.4795                 1.4481
 Frc consts  --      1.1561                 1.3312                 1.3177
 IR Inten    --      1.0773                 2.5547                14.4236

                     49                     50                     51
                      A                      A                      A
 Frequencies --   1253.1912              1305.1164              1315.4382
 Red. masses --      1.6130                 2.3105                 2.3747
 Frc consts  --      1.4925                 2.3187                 2.4210
 IR Inten    --      2.3227               118.5161                77.3557

                     52                     53                     54
                      A                      A                      A
 Frequencies --   1350.1701              1367.8526              1372.7937
 Red. masses --      1.6178                 2.3520                 2.8150
 Frc consts  --      1.7376                 2.5927                 3.1257
 IR Inten    --      4.7131                11.2052                 3.6759

                     55                     56                     57
                      A                      A                      A
 Frequencies --   1401.6430              1486.4993              1490.4490
 Red. masses --      1.9718                 1.1506                 1.1489
 Frc consts  --      2.2824                 1.4979                 1.5038
 IR Inten    --     19.9842                12.3131                 6.2695

                     58                     59                     60
                      A                      A                      A
 Frequencies --   1494.2900              1505.8497              1507.0015
 Red. masses --      1.3738                 1.0511                 1.2111
 Frc consts  --      1.8074                 1.4042                 1.6205
 IR Inten    --     39.9420                 2.7619                 7.8754

                     61                     62                     63
                      A                      A                      A
 Frequencies --   1516.1743              1520.6703              1523.3226
 Red. masses --      1.1999                 1.0493                 1.9292
 Frc consts  --      1.6251                 1.4296                 2.6376
 IR Inten    --      7.8583                 5.2674                67.7695

                     64                     65                     66
                      A                      A                      A
 Frequencies --   1526.5590              1538.1406              1539.5950
 Red. masses --      1.6760                 1.0526                 1.1748
 Frc consts  --      2.3012                 1.4672                 1.6407
 IR Inten    --      3.6796                23.8084                 4.8475

                     67                     68                     69
                      A                      A                      A
 Frequencies --   1647.3780              1659.7135              1739.3842
 Red. masses --      6.2856                 6.3934                 9.4911
 Frc consts  --     10.0504                10.3764                16.9183
 IR Inten    --     69.9714                16.0076                 9.4415

                     70                     71                     72
                      A                      A                      A
 Frequencies --   3002.0097              3025.9621              3033.5420
 Red. masses --      1.0718                 1.0346                 1.0712
 Frc consts  --      5.6910                 5.5813                 5.8079
 IR Inten    --     18.8609                64.6862                13.5330

                     73                     74                     75
                      A                      A                      A
 Frequencies --   3036.5111              3044.5075              3084.7401
 Red. masses --      1.0327                 1.0681                 1.1066
 Frc consts  --      5.6102                 5.8329                 6.2040
 IR Inten    --     94.1401                32.6080                41.6928

                     76                     77                     78
                      A                      A                      A
 Frequencies --   3098.7000              3099.2958              3099.4918
 Red. masses --      1.0932                 1.1068                 1.0896
 Frc consts  --      6.1844                 6.2638                 6.1672
 IR Inten    --     15.6709                48.7461                11.0207

                     79                     80                     81
                      A                      A                      A
 Frequencies --   3146.7376              3157.3509              3161.2230
 Red. masses --      1.1027                 1.0999                 1.0920
 Frc consts  --      6.4332                 6.4604                 6.4293
 IR Inten    --     25.9803                25.1742                 7.3069

                     82                     83                     84
                      A                      A                      A
 Frequencies --   3180.3491              3199.0476              3230.6552
 Red. masses --      1.0867                 1.0935                 1.0918
 Frc consts  --      6.4760                 6.5935                 6.7136
 IR Inten    --      5.2600                27.4811                14.8070

 - Thermochemistry -
 -------------------
 Temperature   298.150 Kelvin.  Pressure   1.00000 Atm.
 Atom     1 has atomic number  6 and mass  12.00000

 Molecular mass:   205.11028 amu.
 Principal axes and moments of inertia in atomic units:
                           1         2         3
     Eigenvalues --  1473.595555567.196486662.02175
           X            0.99999  -0.00404   0.00165
           Y            0.00404   0.99999   0.00081
           Z           -0.00166  -0.00080   1.00000
 This molecule is an asymmetric top.
 Rotational symmetry number  1.
 Warning -- assumption of classical behavior for rotation
           may cause significant error
 Rotational temperatures (Kelvin)      0.05878     0.01556     0.01300
 Rotational constants (GHZ):           1.22472     0.32417     0.27090
 Zero-point vibrational energy     663728.9 (Joules/Mol)
                                  158.63502 (Kcal/Mol)
 Warning -- explicit consideration of  22 degrees of freedom as
           vibrations may cause significant error
 Vibrational temperatures:     47.65    93.79   106.38   125.03   209.67
          (Kelvin)            250.89   270.19   292.04   314.15   389.93
                              437.24   448.04   470.42   486.89   586.95
                              609.21   696.72   721.61   792.77   822.21
                              832.78   856.28   985.30  1030.08  1058.30
                             1124.93  1167.67  1191.27  1246.74  1285.26
                             1339.27  1362.16  1376.12  1433.60  1451.71
                             1530.04  1588.00  1608.49  1626.88  1692.34
                             1707.32  1710.30  1726.22  1739.03  1750.68
                             1760.48  1778.02  1788.08  1803.06  1877.77
                             1892.62  1942.59  1968.03  1975.14  2016.65
                             2138.74  2144.42  2149.95  2166.58  2168.24
                             2181.44  2187.91  2191.72  2196.38  2213.04
                             2215.13  2370.21  2387.96  2502.59  4319.22
                             4353.68  4364.59  4368.86  4380.37  4438.25
                             4458.34  4459.20  4459.48  4527.45  4542.72
                             4548.29  4575.81  4602.72  4648.19

 Zero-point correction=                           0.252801 (Hartree/Particle)
 Thermal correction to Energy=                    0.266816
 Thermal correction to Enthalpy=                  0.267760
 Thermal correction to Gibbs Free Energy=         0.211409
 Sum of electronic and zero-point Energies=           -671.248541
 Sum of electronic and thermal Energies=              -671.234527
 Sum of electronic and thermal Enthalpies=            -671.233582
 Sum of electronic and thermal Free Energies=         -671.289933

                     E (Thermal)             CV                S
                      KCal/Mol        Cal/Mol-Kelvin    Cal/Mol-Kelvin
 Total                  167.429             53.353            118.601
 Electronic               0.000              0.000              0.000
 Translational            0.889              2.981             41.859
 Rotational               0.889              2.981             32.369
 Vibrational            165.652             47.391             44.372
 Vibration     1          0.594              1.983              5.633
 Vibration     2          0.597              1.971              4.294
 Vibration     3          0.599              1.966              4.046
 Vibration     4          0.601              1.958              3.729
 Vibration     5          0.617              1.907              2.727
 Vibration     6          0.627              1.874              2.388
 Vibration     7          0.632              1.857              2.250
 Vibration     8          0.639              1.836              2.106
 Vibration     9          0.646              1.813              1.973
 Vibration    10          0.675              1.727              1.590
 Vibration    11          0.695              1.666              1.395
 Vibration    12          0.700              1.652              1.355
 Vibration    13          0.711              1.622              1.275
 Vibration    14          0.719              1.599              1.220
 Vibration    15          0.773              1.453              0.934
 Vibration    16          0.786              1.419              0.880
 Vibration    17          0.840              1.285              0.699
 Vibration    18          0.857              1.247              0.654
 Vibration    19          0.906              1.137              0.542
 Vibration    20          0.928              1.093              0.501
 Vibration    21          0.935              1.077              0.488
 Vibration    22          0.953              1.042              0.458

                           ! Non-Optimized Parameters !
 Normal termination of Gaussian 16 at Thu Dec 10 16:23:32 2020.

 ----------------------------------------------------------------------
 # B3LYP/6-311++G(d,p) empiricaldispersion=gd3bj scf=xqc pop=npa geom=c
 heck
 ----------------------------------------------------------------------

 ---------------------------------------
 CID_118402842_JID_5465_Energie_neutraal
 ---------------------------------------
 Structure from the checkpoint file:  "JID_5465.chk"
 Charge =  0 Multiplicity = 1

 SCF Done:  E(RB3LYP) =  -671.683370968     A.U. after   15 cycles
 Normal termination of Gaussian 16 at Thu Dec 10 16:28:52 2020.

 ----------------------------------------------------------------------
 # B3LYP/6-311++G(d,p) empiricaldispersion=gd3bj scf=xqc pop=npa geom=c
 heck
 ----------------------------------------------------------------------

 -------------------------------------
 CID_118402842_JID_5465_Energie_kation
 -------------------------------------
 Structure from the checkpoint file:  "JID_5465.chk"
 Charge =  1 Multiplicity = 2

 SCF Done:  E(UB3LYP) =  -671.396410148     A.U. after   25 cycles
 Normal termination of Gaussian 16 at Thu Dec 10 16:39:50 2020.
 Gaussian 16:  ES64L-G16RevA.03 25-Dec-2016

 ----------------------------------------------------------------------
 # B3LYP/6-311++G(d,p) empiricaldispersion=gd3bj scf=xqc pop=npa geom=c
 heck
 ----------------------------------------------------------------------

 ------------------------------------
 CID_118402842_JID_5465_Energie_anion
 ------------------------------------
 Structure from the checkpoint file:  "JID_5465.chk"
 Charge = -1 Multiplicity = 2

                         Standard orientation:
 ---------------------------------------------------------------------
 Center     Atomic      Atomic             Coordinates (Angstroms)
 Number     Number       Type             X           Y           Z
 ---------------------------------------------------------------------
      1          6           0        3.952551   -1.970793   -0.330614
      2          8           0        2.593228   -1.649323   -0.095508
      3          6           0        2.233788   -0.328521   -0.091775
      4          6           0        3.124963    0.718808   -0.325297
      5          6           0        2.649570    2.033170   -0.311875
      6          6           0        1.308143    2.292722   -0.071275
      7          6           0        0.412582    1.239598    0.167146
      8          6           0        0.868176   -0.083314    0.167128
      9          6           0       -0.054744   -1.258182    0.413141
     10          6           0       -1.366665   -0.852653    1.108949
     11          6           0       -1.931985    0.353957    0.417978
     12          7           0       -3.043127    0.445198   -0.211573
     13          8           0       -3.788074   -0.748900   -0.149385
     14          6           0       -4.983597   -0.567262   -0.893245
     15          6           0       -1.048371    1.570382    0.430818
     16          1           0        4.016318   -3.059229   -0.281679
     17          1           0        4.608039   -1.532700    0.433576
     18          1           0        4.280611   -1.631399   -1.321850
     19          1           0        4.173335    0.527500   -0.519483
     20          1           0        3.339616    2.851480   -0.497576
     21          1           0        0.940015    3.315414   -0.069648
     22          1           0        0.464894   -2.014188    1.009892
     23          1           0       -0.289659   -1.743864   -0.544077
     24          1           0       -1.150143   -0.585022    2.152567
     25          1           0       -2.079418   -1.677045    1.108838
     26          1           0       -5.589288    0.248077   -0.479552
     27          1           0       -4.768264   -0.355427   -1.947650
     28          1           0       -5.527218   -1.511835   -0.809260
     29          1           0       -1.418272    2.297601   -0.298969
     30          1           0       -1.126381    2.052560    1.418540
 ---------------------------------------------------------------------

 SCF Done:  E(UB3LYP) =  -671.668789285     A.U. after   33 cycles
 SCF Done:  E(UB3LYP) =  -671.668789285     a.u. after    1 cycles

 The electronic state is 2-A.
 Alpha  occ. eigenvalues --  -19.06778 -19.05584 -14.25948 -10.13584 -10.12705
 Alpha  occ. eigenvalues --  -10.11980 -10.11804 -10.08931 -10.08883 -10.08301
 Alpha  occ. eigenvalues --  -10.08273 -10.08090 -10.07848 -10.07221 -10.07048
 Alpha  occ. eigenvalues --   -0.99167  -0.97166  -0.79815  -0.76358  -0.70484
 Alpha  occ. eigenvalues --   -0.67914  -0.64776  -0.62386  -0.59698  -0.57986
 Alpha  occ. eigenvalues --   -0.54551  -0.50011  -0.48949  -0.44958  -0.43191
 Alpha  occ. eigenvalues --   -0.41088  -0.39158  -0.38472  -0.37655  -0.37485
 Alpha  occ. eigenvalues --   -0.37152  -0.35793  -0.33902  -0.33105  -0.31903
 Alpha  occ. eigenvalues --   -0.31530  -0.30058  -0.29718  -0.28780  -0.27982
 Alpha  occ. eigenvalues --   -0.26786  -0.26064  -0.25297  -0.24712  -0.22691
 Alpha  occ. eigenvalues --   -0.22243  -0.18270  -0.15448  -0.14763  -0.12635
 Alpha  occ. eigenvalues --    0.04315
 Alpha virt. eigenvalues --    0.05714   0.06575   0.07035   0.08118   0.08450
 Alpha virt. eigenvalues --    0.08492   0.09062   0.09443   0.09716   0.09763
 Alpha virt. eigenvalues --    0.10112   0.10686   0.11325   0.11571   0.12098

  Beta  occ. eigenvalues --  -19.06771 -19.05573 -14.25902 -10.13583 -10.12685
  Beta  occ. eigenvalues --  -10.11922 -10.11784 -10.08922 -10.08877 -10.08291
  Beta  occ. eigenvalues --  -10.08271 -10.08080 -10.07839 -10.07199 -10.07041
  Beta  occ. eigenvalues --   -0.99136  -0.97145  -0.79768  -0.76333  -0.70455
  Beta  occ. eigenvalues --   -0.67887  -0.64741  -0.62347  -0.59630  -0.57943
  Beta  occ. eigenvalues --   -0.54522  -0.49977  -0.48892  -0.44918  -0.43151
  Beta  occ. eigenvalues --   -0.41054  -0.39120  -0.38429  -0.37614  -0.37434
  Beta  occ. eigenvalues --   -0.37115  -0.35759  -0.33861  -0.33072  -0.31860
  Beta  occ. eigenvalues --   -0.31496  -0.30025  -0.29682  -0.28745  -0.27949
  Beta  occ. eigenvalues --   -0.26726  -0.26023  -0.25260  -0.24670  -0.22657
  Beta  occ. eigenvalues --   -0.22210  -0.18211  -0.15348  -0.14720  -0.12609
  Beta virt. eigenvalues --    0.06046   0.06701   0.07363   0.07547   0.08188
  Beta virt. eigenvalues --    0.08712   0.08840   0.09371   0.09740   0.09959
  Beta virt. eigenvalues --    0.10301   0.10393   0.11188   0.11548   0.11766

 Mulliken charges and spin densities:
               1          2
     1  C    1.243972  -1.504169
     2  O   -0.205243   0.083159
     3  C   -1.353833   1.187869
     4  C    0.564620  -0.567234
     5  C    0.588977  -1.134201
     6  C   -0.044953  -0.149961
     7  C    0.297149   0.244066
     8  C   -0.622187   0.713243
     9  C    0.586603  -0.603954
    10  C    0.071397  -0.634442
    11  C   -0.223534   0.491475
    12  N   -0.230980   0.066460
    13  O   -0.010462   0.034187
    14  C    0.264462  -0.525276
    15  C    0.198284  -1.354232
    16  H   -0.660896   0.835224
    17  H   -0.417363   0.570132
    18  H   -0.380801   0.530872
    19  H   -0.264622   0.441703
    20  H   -0.495339   0.654772
    21  H   -0.018439   0.162234
    22  H    0.146946   0.060104
    23  H    0.103155   0.102609
    24  H   -0.121570   0.290275
    25  H    0.139679   0.051461
    26  H   -0.099078   0.242912
    27  H   -0.003105   0.143859
    28  H   -0.112784   0.243796
    29  H    0.164713   0.031656
    30  H   -0.104767   0.291402
 Sum of Mulliken charges =  -1.00000   1.00000

 Dipole moment (field-independent basis, Debye):
    X=             -6.0286    Y=              1.7997    Z=              0.3553  Tot=              6.3015
 Quadrupole moment (field-independent basis, Debye-Ang):
   XX=           -191.4810   YY=           -133.1896   ZZ=           -118.8058
   XY=             10.6183   XZ=              3.0250   YZ=             -1.4587

 Summary of Natural Population Analysis:

                                       Natural Population
                Natural  -----------------------------------------------
    Atom  No    Charge         Core      Valence    Rydberg      Total
 -----------------------------------------------------------------------
      C    1   -0.09972      0.99960     2.09094    0.00918     3.09972
      O    2   -0.27557      0.99986     3.26441    0.01129     4.27557
      C    3    0.15900      0.99938     1.82618    0.01544     2.84100
      C    4   -0.14413      0.99952     2.13503    0.00958     3.14413
      C    5   -0.09028      0.99957     2.07969    0.01102     3.09028
      C    6   -0.11426      0.99952     2.10589    0.00885     3.11426
      C    7   -0.01799      0.99952     2.00698    0.01149     3.01799
      C    8   -0.00057      0.99944     1.99490    0.00622     3.00057
      C    9   -0.20109      0.99962     2.18886    0.01261     3.20109
      C   10   -0.22027      0.99958     2.21143    0.00926     3.22027
      C   11    0.13642      0.99960     1.84754    0.01644     2.86358
      N   12   -0.08610      0.99959     2.57335    0.01317     3.58610
      O   13   -0.22737      0.99989     3.21724    0.01024     4.22737
      C   14   -0.09260      0.99963     2.08369    0.00928     3.09260
      C   15   -0.21328      0.99955     2.20388    0.00984     3.21328
      H   16    0.09526      0.00000     0.40302    0.00172     0.40474
      H   17    0.08670      0.00000     0.41062    0.00268     0.41330
      H   18    0.08578      0.00000     0.41198    0.00223     0.41422
      H   19    0.10871      0.00000     0.38936    0.00193     0.39129
      H   20    0.10035      0.00000     0.39855    0.00110     0.39965
      H   21    0.09795      0.00000     0.40079    0.00126     0.40205
      H   22    0.11217      0.00000     0.38635    0.00148     0.38783
      H   23    0.10502      0.00000     0.39341    0.00156     0.39498
      H   24    0.10611      0.00000     0.39220    0.00169     0.39389
      H   25    0.11520      0.00000     0.38299    0.00181     0.38480
      H   26    0.08174      0.00000     0.41579    0.00246     0.41826
      H   27    0.08126      0.00000     0.41665    0.00209     0.41874
      H   28    0.08722      0.00000     0.41130    0.00148     0.41278
      H   29    0.11320      0.00000     0.38537    0.00143     0.38680
      H   30    0.11117      0.00000     0.38726    0.00157     0.38883
 =======================================================================
   * Total *    0.00005     14.99387    39.81566    0.19042    54.99995

 Normal termination of Gaussian 16 at Thu Dec 10 16:54:11 2020.
