 Gaussian 16, Revision A.03,

 -----------------------------------------------------------
 # opt freq B3LYP/6-31G(d) empiricaldispersion=gd3bj scf=xqc
 -----------------------------------------------------------

 ------------------------------
 CID_65992955_JID_5686_neutraal
 ------------------------------
 Symbolic Z-matrix:
 Charge =  0 Multiplicity = 1

 SCF Done:  E(RB3LYP) =  -668.907161315     A.U. after   14 cycles
 SCF Done:  E(RB3LYP) =  -668.913981134     A.U. after   12 cycles
 SCF Done:  E(RB3LYP) =  -668.914584865     A.U. after   11 cycles
 SCF Done:  E(RB3LYP) =  -668.914752769     A.U. after   10 cycles
 SCF Done:  E(RB3LYP) =  -668.914815134     A.U. after   10 cycles
 SCF Done:  E(RB3LYP) =  -668.914846567     A.U. after   10 cycles
 SCF Done:  E(RB3LYP) =  -668.914873350     A.U. after   10 cycles
 SCF Done:  E(RB3LYP) =  -668.914875566     A.U. after    8 cycles
 SCF Done:  E(RB3LYP) =  -668.914875997     A.U. after    7 cycles
 SCF Done:  E(RB3LYP) =  -668.914876174     A.U. after    7 cycles
 SCF Done:  E(RB3LYP) =  -668.914876271     A.U. after    7 cycles
 SCF Done:  E(RB3LYP) =  -668.914876338     A.U. after    7 cycles
 SCF Done:  E(RB3LYP) =  -668.914876378     A.U. after    7 cycles
 Optimization completed.
    -- Stationary point found.
 Normal termination of Gaussian 16 at Thu Dec 10 16:34:49 2020.

 --------------------------------------------------------------------
 #N Geom=AllCheck Guess=TCheck SCRF=Check GenChk RB3LYP/6-31G(d) Freq
 --------------------------------------------------------------------

 Structure from the checkpoint file:  "JID_5686.chk"
 ------------------------------
 CID_65992955_JID_5686_neutraal
 ------------------------------
 Charge =  0 Multiplicity = 1

 SCF Done:  E(RB3LYP) =  -668.914876378     A.U. after    1 cycles

  Exact polarizability: 188.607   0.499 133.592   3.678  10.090  93.922
 Approx polarizability: 246.620  -6.675 209.182  11.216  20.758 140.362

                      1                      2                      3
                      A                      A                      A
 Frequencies --     19.5434                39.8573                63.9244
 Red. masses --      3.4148                 4.7370                 2.9001
 Frc consts  --      0.0008                 0.0044                 0.0070
 IR Inten    --      0.0212                 1.5760                 0.0425

                      4                      5                      6
                      A                      A                      A
 Frequencies --     71.3261                91.3230               114.2725
 Red. masses --      3.9648                 2.7479                 3.1196
 Frc consts  --      0.0119                 0.0135                 0.0240
 IR Inten    --      1.1539                 2.6366                 7.9020

                      7                      8                      9
                      A                      A                      A
 Frequencies --    131.4711               145.7822               221.2904
 Red. masses --      2.4729                 2.7328                 3.5084
 Frc consts  --      0.0252                 0.0342                 0.1012
 IR Inten    --      1.1011                 4.3109                 8.1678

                     10                     11                     12
                      A                      A                      A
 Frequencies --    231.0350               246.1128               254.4475
 Red. masses --      2.0220                 2.4007                 2.5610
 Frc consts  --      0.0636                 0.0857                 0.0977
 IR Inten    --      5.5500                 0.5056                 0.5779

                     13                     14                     15
                      A                      A                      A
 Frequencies --    311.0691               326.2036               359.0707
 Red. masses --      1.4321                 2.2769                 2.5157
 Frc consts  --      0.0816                 0.1427                 0.1911
 IR Inten    --     70.3001                63.0658                 2.9280

                     16                     17                     18
                      A                      A                      A
 Frequencies --    392.8339               428.2782               475.6909
 Red. masses --      2.2484                 2.3539                 4.0538
 Frc consts  --      0.2044                 0.2544                 0.5405
 IR Inten    --      0.6665                 2.9799                 4.3497

                     19                     20                     21
                      A                      A                      A
 Frequencies --    480.9675               522.5860               558.4412
 Red. masses --      3.0543                 3.4257                 4.0416
 Frc consts  --      0.4163                 0.5512                 0.7426
 IR Inten    --      7.5175                 2.3565                 4.5614

                     22                     23                     24
                      A                      A                      A
 Frequencies --    691.8698               749.4488               781.1895
 Red. masses --      4.4374                 6.0123                 1.7467
 Frc consts  --      1.2515                 1.9896                 0.6280
 IR Inten    --      4.1740                 4.3044                10.8136

                     25                     26                     27
                      A                      A                      A
 Frequencies --    802.3544               822.6528               845.1527
 Red. masses --      2.5030                 2.0784                 2.0899
 Frc consts  --      0.9494                 0.8287                 0.8795
 IR Inten    --      5.9574                12.2148                 7.1157

                     28                     29                     30
                      A                      A                      A
 Frequencies --    869.5403               885.4799               895.7023
 Red. masses --      2.4457                 2.5423                 1.5451
 Frc consts  --      1.0895                 1.1744                 0.7304
 IR Inten    --     11.1638                 1.1968                 1.8624

                     31                     32                     33
                      A                      A                      A
 Frequencies --    913.2151               916.9838               944.5412
 Red. masses --      1.4300                 1.4169                 2.8903
 Frc consts  --      0.7026                 0.7020                 1.5193
 IR Inten    --      0.8239                 4.0799                 7.8982

                     34                     35                     36
                      A                      A                      A
 Frequencies --    991.4293              1000.6877              1016.7073
 Red. masses --      1.4435                 7.7693                 2.6439
 Frc consts  --      0.8360                 4.5838                 1.6102
 IR Inten    --      0.5272                28.9040                 2.9453

                     37                     38                     39
                      A                      A                      A
 Frequencies --   1055.1918              1059.6665              1083.4260
 Red. masses --      1.9886                 2.0277                 3.3771
 Frc consts  --      1.3045                 1.3415                 2.3356
 IR Inten    --     13.0402                20.8951               103.5443

                     40                     41                     42
                      A                      A                      A
 Frequencies --   1094.1635              1114.1257              1118.1291
 Red. masses --      1.8248                 2.1916                 1.6530
 Frc consts  --      1.2872                 1.6028                 1.2176
 IR Inten    --     13.1612                 0.8366                 6.5277

                     43                     44                     45
                      A                      A                      A
 Frequencies --   1151.4992              1154.0145              1170.9226
 Red. masses --      1.2348                 1.3822                 4.8884
 Frc consts  --      0.9647                 1.0846                 3.9489
 IR Inten    --     11.2505                19.8089                31.9652

                     46                     47                     48
                      A                      A                      A
 Frequencies --   1183.4491              1227.5419              1240.5100
 Red. masses --      1.1915                 2.1902                 1.6531
 Frc consts  --      0.9832                 1.9445                 1.4988
 IR Inten    --      3.3902                44.4993                 6.9647

                     49                     50                     51
                      A                      A                      A
 Frequencies --   1248.0077              1276.7293              1285.5240
 Red. masses --      1.5183                 1.9259                 1.6366
 Frc consts  --      1.3933                 1.8496                 1.5935
 IR Inten    --     11.4234                 4.8051                 3.5269

                     52                     53                     54
                      A                      A                      A
 Frequencies --   1303.7828              1318.0697              1332.9827
 Red. masses --      1.2643                 2.1806                 1.6679
 Frc consts  --      1.2662                 2.2320                 1.7461
 IR Inten    --      5.3979                 3.1492                22.3705

                     55                     56                     57
                      A                      A                      A
 Frequencies --   1350.2364              1370.8373              1374.5490
 Red. masses --      1.5953                 1.5423                 1.8253
 Frc consts  --      1.7136                 1.7077                 2.0319
 IR Inten    --     50.9702                31.9792                 1.7737

                     58                     59                     60
                      A                      A                      A
 Frequencies --   1385.4694              1396.8586              1408.9882
 Red. masses --      1.4332                 1.5225                 1.2108
 Frc consts  --      1.6209                 1.7503                 1.4163
 IR Inten    --      3.4939                 6.4382                11.8986

                     61                     62                     63
                      A                      A                      A
 Frequencies --   1438.6343              1447.9694              1493.8803
 Red. masses --      1.3681                 1.2572                 2.1392
 Frc consts  --      1.6683                 1.5530                 2.8128
 IR Inten    --     81.8853                 7.0100                51.9575

                     64                     65                     66
                      A                      A                      A
 Frequencies --   1511.2028              1518.3888              1529.0864
 Red. masses --      1.1945                 1.1151                 1.0458
 Frc consts  --      1.6073                 1.5147                 1.4407
 IR Inten    --      5.5019                 5.3659                 3.7461

                     67                     68                     69
                      A                      A                      A
 Frequencies --   1529.6775              1534.1627              1536.6647
 Red. masses --      1.1037                 1.0991                 1.0840
 Frc consts  --      1.5216                 1.5241                 1.5081
 IR Inten    --     17.4705                 3.2024                 0.9136

                     70                     71                     72
                      A                      A                      A
 Frequencies --   1544.5570              1557.3040              1586.2827
 Red. masses --      2.9175                 1.3168                 8.0688
 Frc consts  --      4.1008                 1.8816                11.9625
 IR Inten    --    312.9335                 0.4673               101.5752

                     73                     74                     75
                      A                      A                      A
 Frequencies --   1647.9365              2993.4815              3014.6214
 Red. masses --      6.0593                 1.0713                 1.0570
 Frc consts  --      9.6951                 5.6558                 5.6598
 IR Inten    --    687.3543                46.7598                64.4339

                     76                     77                     78
                      A                      A                      A
 Frequencies --   3034.5802              3052.5675              3053.5621
 Red. masses --      1.0607                 1.0572                 1.0448
 Frc consts  --      5.7548                 5.8040                 5.7397
 IR Inten    --     27.9539                36.1746                 8.9351

                     79                     80                     81
                      A                      A                      A
 Frequencies --   3054.7538              3059.4402              3070.5651
 Red. masses --      1.1073                 1.0568                 1.0992
 Frc consts  --      6.0877                 5.8281                 6.1060
 IR Inten    --     38.4987                41.1142                42.2063

                     82                     83                     84
                      A                      A                      A
 Frequencies --   3097.1919              3101.8829              3108.5381
 Red. masses --      1.0969                 1.1053                 1.1019
 Frc consts  --      6.1993                 6.2656                 6.2737
 IR Inten    --     14.4996                30.9633                14.8991

                     85                     86                     87
                      A                      A                      A
 Frequencies --   3117.1817              3123.1768              3133.2232
 Red. masses --      1.1024                 1.0899                 1.1013
 Frc consts  --      6.3113                 6.2635                 6.3700
 IR Inten    --     43.1952                45.5455                42.6026

                     88                     89                     90
                      A                      A                      A
 Frequencies --   3173.9819              3203.8666              3741.4491
 Red. masses --      1.0903                 1.0911                 1.0661
 Frc consts  --      6.4717                 6.5988                 8.7925
 IR Inten    --     45.1280                 7.0056                 7.1673

 - Thermochemistry -
 -------------------
 Temperature   298.150 Kelvin.  Pressure   1.00000 Atm.
 Atom     1 has atomic number  6 and mass  12.00000

 Molecular mass:   207.13716 amu.
 Principal axes and moments of inertia in atomic units:
                           1         2         3
     Eigenvalues --  1366.481797088.553997897.19242
           X            0.99988   0.01510  -0.00382
           Y           -0.01507   0.99987   0.00562
           Z            0.00391  -0.00557   0.99998
 This molecule is an asymmetric top.
 Rotational symmetry number  1.
 Warning -- assumption of classical behavior for rotation
           may cause significant error
 Rotational temperatures (Kelvin)      0.06338     0.01222     0.01097
 Rotational constants (GHZ):           1.32072     0.25460     0.22853
 Zero-point vibrational energy     725696.4 (Joules/Mol)
                                  173.44561 (Kcal/Mol)
 Warning -- explicit consideration of  21 degrees of freedom as
           vibrations may cause significant error
 Vibrational temperatures:     28.12    57.35    91.97   102.62   131.39
          (Kelvin)            164.41   189.16   209.75   318.39   332.41
                              354.10   366.09   447.56   469.33   516.62
                              565.20   616.20   684.41   692.00   751.88
                              803.47   995.45  1078.29  1123.96  1154.41
                             1183.61  1215.99  1251.07  1274.01  1288.72
                             1313.91  1319.34  1358.98  1426.45  1439.77
                             1462.82  1518.19  1524.62  1558.81  1574.26
                             1602.98  1608.74  1656.75  1660.37  1684.70
                             1702.72  1766.16  1784.82  1795.60  1836.93
                             1849.58  1875.85  1896.41  1917.86  1942.69
                             1972.33  1977.67  1993.38  2009.77  2027.22
                             2069.87  2083.31  2149.36  2174.28  2184.62
                             2200.01  2200.86  2207.32  2210.92  2222.27
                             2240.61  2282.31  2371.01  4306.95  4337.37
                             4366.08  4391.96  4393.39  4395.11  4401.85
                             4417.86  4456.17  4462.92  4472.49  4484.93
                             4493.55  4508.01  4566.65  4609.65  5383.11

 Zero-point correction=                           0.276403 (Hartree/Particle)
 Thermal correction to Energy=                    0.291388
 Thermal correction to Enthalpy=                  0.292332
 Thermal correction to Gibbs Free Energy=         0.232244
 Sum of electronic and zero-point Energies=           -668.638473
 Sum of electronic and thermal Energies=              -668.623488
 Sum of electronic and thermal Enthalpies=            -668.622544
 Sum of electronic and thermal Free Energies=         -668.682632

                     E (Thermal)             CV                S
                      KCal/Mol        Cal/Mol-Kelvin    Cal/Mol-Kelvin
 Total                  182.849             55.074            126.465
 Electronic               0.000              0.000              0.000
 Translational            0.889              2.981             41.889
 Rotational               0.889              2.981             32.703
 Vibrational            181.071             49.113             51.874
 Vibration     1          0.593              1.986              6.680
 Vibration     2          0.594              1.981              5.266
 Vibration     3          0.597              1.972              4.332
 Vibration     4          0.598              1.968              4.116
 Vibration     5          0.602              1.955              3.632
 Vibration     6          0.607              1.938              3.195
 Vibration     7          0.612              1.922              2.924
 Vibration     8          0.617              1.907              2.727
 Vibration     9          0.648              1.809              1.949
 Vibration    10          0.653              1.794              1.871
 Vibration    11          0.661              1.769              1.758
 Vibration    12          0.665              1.755              1.700
 Vibration    13          0.700              1.653              1.357
 Vibration    14          0.710              1.623              1.279
 Vibration    15          0.734              1.557              1.126
 Vibration    16          0.760              1.485              0.989
 Vibration    17          0.790              1.409              0.864
 Vibration    18          0.832              1.304              0.722
 Vibration    19          0.837              1.292              0.707
 Vibration    20          0.878              1.200              0.604
 Vibration    21          0.914              1.121              0.527

                           ! Non-Optimized Parameters !
 Normal termination of Gaussian 16 at Thu Dec 10 16:44:01 2020.

 ----------------------------------------------------------------------
 # B3LYP/6-311++G(d,p) empiricaldispersion=gd3bj scf=xqc pop=npa geom=c
 heck
 ----------------------------------------------------------------------

 --------------------------------------
 CID_65992955_JID_5686_Energie_neutraal
 --------------------------------------
 Structure from the checkpoint file:  "JID_5686.chk"
 Charge =  0 Multiplicity = 1

 SCF Done:  E(RB3LYP) =  -669.104176143     A.U. after   14 cycles
 Normal termination of Gaussian 16 at Thu Dec 10 16:49:31 2020.

 ----------------------------------------------------------------------
 # B3LYP/6-311++G(d,p) empiricaldispersion=gd3bj scf=xqc pop=npa geom=c
 heck
 ----------------------------------------------------------------------

 ------------------------------------
 CID_65992955_JID_5686_Energie_kation
 ------------------------------------
 Structure from the checkpoint file:  "JID_5686.chk"
 Charge =  1 Multiplicity = 2

 SCF Done:  E(UB3LYP) =  -668.808038705     A.U. after   25 cycles
 Normal termination of Gaussian 16 at Thu Dec 10 17:08:40 2020.
 Gaussian 16:  ES64L-G16RevA.03 25-Dec-2016

 ----------------------------------------------------------------------
 # B3LYP/6-311++G(d,p) empiricaldispersion=gd3bj scf=xqc pop=npa geom=c
 heck
 ----------------------------------------------------------------------

 -----------------------------------
 CID_65992955_JID_5686_Energie_anion
 -----------------------------------
 Structure from the checkpoint file:  "JID_5686.chk"
 Charge = -1 Multiplicity = 2

                         Standard orientation:
 ---------------------------------------------------------------------
 Center     Atomic      Atomic             Coordinates (Angstroms)
 Number     Number       Type             X           Y           Z
 ---------------------------------------------------------------------
      1          6           0       -4.494792   -0.927107    1.299916
      2          6           0       -3.831595   -1.743073    0.188478
      3          6           0       -3.323399   -0.885394   -0.990637
      4          6           0       -2.237580    0.075418   -0.579724
      5          6           0       -0.911478   -0.328763   -0.497383
      6          6           0        0.028129    0.624606   -0.059067
      7          7           0       -0.339975    1.881351    0.261339
      8          6           0       -1.640834    2.148599    0.142853
      9          7           0       -2.617696    1.332331   -0.256356
     10          7           0        1.348652    0.325676    0.072682
     11          6           0        2.464688    1.275144    0.127291
     12          6           0        3.398661    0.137600   -0.378199
     13          6           0        2.118837   -0.722149   -0.597205
     14          6           0        4.361156   -0.403400    0.669126
     15          8           0        5.075450   -1.545616    0.217845
     16          1           0       -3.798333   -0.204197    1.735290
     17          1           0       -4.855395   -1.581129    2.101735
     18          1           0       -5.349173   -0.360392    0.912630
     19          1           0       -2.989503   -2.316062    0.599718
     20          1           0       -4.544612   -2.478415   -0.206135
     21          1           0       -2.946077   -1.549560   -1.777955
     22          1           0       -4.153967   -0.305448   -1.406323
     23          1           0       -0.612997   -1.339470   -0.756510
     24          1           0       -1.940023    3.163674    0.400632
     25          1           0        2.344128    2.120566   -0.559158
     26          1           0        2.671804    1.663417    1.130914
     27          1           0        3.942846    0.364355   -1.297703
     28          1           0        2.092535   -1.696988   -0.088831
     29          1           0        1.836981   -0.868464   -1.648827
     30          1           0        5.120429    0.351386    0.899005
     31          1           0        3.811636   -0.612459    1.602141
     32          1           0        4.438494   -2.270262    0.120262
 ---------------------------------------------------------------------

 SCF Done:  E(UB3LYP) =  -669.097840798     A.U. after   33 cycles
 SCF Done:  E(UB3LYP) =  -669.097840799     a.u. after    1 cycles

 The electronic state is 2-A.
 Alpha  occ. eigenvalues --  -19.02848 -14.23592 -14.19741 -14.19435 -10.14580
 Alpha  occ. eigenvalues --  -10.12707 -10.12628 -10.11413 -10.10951 -10.10789
 Alpha  occ. eigenvalues --  -10.09050 -10.07308 -10.06884 -10.06803 -10.06273
 Alpha  occ. eigenvalues --   -0.93041  -0.89414  -0.85730  -0.77925  -0.71315
 Alpha  occ. eigenvalues --   -0.68814  -0.65521  -0.60785  -0.60426  -0.58201
 Alpha  occ. eigenvalues --   -0.54186  -0.51659  -0.48717  -0.45671  -0.43732
 Alpha  occ. eigenvalues --   -0.43045  -0.42149  -0.37997  -0.36635  -0.36128
 Alpha  occ. eigenvalues --   -0.35751  -0.34785  -0.34303  -0.32171  -0.31924
 Alpha  occ. eigenvalues --   -0.30734  -0.30075  -0.29598  -0.28173  -0.27640
 Alpha  occ. eigenvalues --   -0.25408  -0.24586  -0.24378  -0.23805  -0.23372
 Alpha  occ. eigenvalues --   -0.21836  -0.19147  -0.18484  -0.17771  -0.14970
 Alpha  occ. eigenvalues --   -0.12287   0.04078
 Alpha virt. eigenvalues --    0.06181   0.07030   0.07318   0.08001   0.08605
 Alpha virt. eigenvalues --    0.08756   0.08913   0.09194   0.10009   0.10577
 Alpha virt. eigenvalues --    0.11160   0.11395   0.11677   0.12337   0.12466

  Beta  occ. eigenvalues --  -19.02803 -14.23595 -14.19645 -14.19442 -10.14566
  Beta  occ. eigenvalues --  -10.12686 -10.12611 -10.11405 -10.10889 -10.10668
  Beta  occ. eigenvalues --  -10.09040 -10.07278 -10.06884 -10.06787 -10.06267
  Beta  occ. eigenvalues --   -0.92947  -0.89353  -0.85666  -0.77803  -0.71231
  Beta  occ. eigenvalues --   -0.68764  -0.65455  -0.60710  -0.60350  -0.58157
  Beta  occ. eigenvalues --   -0.54097  -0.51575  -0.48660  -0.45576  -0.43660
  Beta  occ. eigenvalues --   -0.42971  -0.42090  -0.37928  -0.36556  -0.36086
  Beta  occ. eigenvalues --   -0.35674  -0.34749  -0.34233  -0.32038  -0.31875
  Beta  occ. eigenvalues --   -0.30680  -0.30034  -0.29499  -0.28122  -0.27592
  Beta  occ. eigenvalues --   -0.25302  -0.24540  -0.24335  -0.23760  -0.23323
  Beta  occ. eigenvalues --   -0.21712  -0.19068  -0.18424  -0.17369  -0.14918
  Beta  occ. eigenvalues --   -0.12171
  Beta virt. eigenvalues --    0.06483   0.06958   0.07590   0.07895   0.08321
  Beta virt. eigenvalues --    0.08685   0.08958   0.09293   0.09365   0.10310
  Beta virt. eigenvalues --    0.10716   0.11565   0.11724   0.11787   0.12459

 Mulliken charges and spin densities:
               1          2
     1  C   -0.393220  -0.237163
     2  C    0.297251  -0.508782
     3  C   -0.571297   0.202337
     4  C   -0.308475   0.363276
     5  C    0.198270   0.209011
     6  C    0.487084  -1.246785
     7  N   -0.190929   0.048108
     8  C    0.029161   0.049308
     9  N   -0.068362  -0.003727
    10  N    0.064173   0.124826
    11  C    0.061090  -0.586664
    12  C   -1.180683   1.509525
    13  C    1.203943  -1.693295
    14  C    0.996619  -1.508379
    15  O   -0.252013   0.008909
    16  H    0.132033   0.030262
    17  H    0.038164   0.077101
    18  H    0.113159   0.005082
    19  H   -0.031240   0.149440
    20  H   -0.224485   0.375836
    21  H   -0.202023   0.351417
    22  H    0.037889   0.148181
    23  H   -0.235944   0.476761
    24  H    0.159049   0.021698
    25  H    0.129715   0.033376
    26  H    0.069109   0.104514
    27  H   -0.270754   0.486493
    28  H   -0.576918   0.756335
    29  H   -0.355168   0.527724
    30  H    0.057828   0.097259
    31  H   -0.108008   0.273112
    32  H   -0.105017   0.354905
 Sum of Mulliken charges =  -1.00000   1.00000

 Dipole moment (field-independent basis, Debye):
    X=             -1.8216    Y=              5.3014    Z=              2.3009  Tot=              6.0595
 Quadrupole moment (field-independent basis, Debye-Ang):
   XX=           -175.9403   YY=           -134.5576   ZZ=           -119.0203
   XY=             12.6343   XZ=             -0.0809   YZ=             -3.5443

 Summary of Natural Population Analysis:

                                       Natural Population
                Natural  -----------------------------------------------
    Atom  No    Charge         Core      Valence    Rydberg      Total
 -----------------------------------------------------------------------
      C    1   -0.28686      0.99966     2.28270    0.00450     3.28686
      C    2   -0.18299      0.99964     2.17579    0.00757     3.18299
      C    3   -0.20712      0.99959     2.19686    0.01066     3.20712
      C    4    0.14466      0.99954     1.84052    0.01528     2.85534
      C    5   -0.16277      0.99945     2.15509    0.00823     3.16277
      C    6    0.22075      0.99952     1.76440    0.01533     2.77925
      N    7   -0.26266      0.99968     2.75457    0.00842     3.76266
      C    8    0.14967      0.99967     1.83189    0.01877     2.85033
      N    9   -0.27956      0.99969     2.76983    0.01005     3.77956
      N   10   -0.24752      0.99964     2.73646    0.01141     3.74752
      C   11   -0.06926      0.99964     2.06090    0.00873     3.06926
      C   12   -0.12946      0.99958     2.11867    0.01121     3.12946
      C   13   -0.07479      0.99964     2.06363    0.01152     3.07479
      C   14   -0.00711      0.99956     1.99387    0.01368     3.00711
      O   15   -0.36835      0.99990     3.36175    0.00670     4.36835
      H   16    0.10245      0.00000     0.39653    0.00102     0.39755
      H   17    0.09383      0.00000     0.40534    0.00083     0.40617
      H   18    0.09533      0.00000     0.40369    0.00098     0.40467
      H   19    0.09533      0.00000     0.40350    0.00117     0.40467
      H   20    0.09473      0.00000     0.40387    0.00140     0.40527
      H   21    0.10560      0.00000     0.39295    0.00145     0.39440
      H   22    0.10353      0.00000     0.39508    0.00138     0.39647
      H   23    0.11062      0.00000     0.38775    0.00163     0.38938
      H   24    0.07774      0.00000     0.42126    0.00100     0.42226
      H   25    0.09728      0.00000     0.40132    0.00140     0.40272
      H   26    0.09331      0.00000     0.40533    0.00136     0.40669
      H   27    0.10282      0.00000     0.39611    0.00107     0.39718
      H   28    0.09533      0.00000     0.40148    0.00319     0.40467
      H   29    0.09991      0.00000     0.39704    0.00305     0.40009
      H   30    0.08480      0.00000     0.41399    0.00120     0.41520
      H   31    0.07809      0.00000     0.42051    0.00140     0.42191
      H   32    0.23265      0.00000     0.26065    0.00670     0.26735
 =======================================================================
   * Total *   -0.00000     14.99438    40.81333    0.19228    56.00000

 Normal termination of Gaussian 16 at Thu Dec 10 17:33:50 2020.
