 Gaussian 16, Revision A.03,

 -----------------------------------------------------------
 # opt freq B3LYP/6-31G(d) empiricaldispersion=gd3bj scf=xqc
 -----------------------------------------------------------

 -------------------------------
 CID_116847370_JID_5064_neutraal
 -------------------------------
 Symbolic Z-matrix:
 Charge =  0 Multiplicity = 1

 SCF Done:  E(RB3LYP) =  -651.639152931     A.U. after   15 cycles
 SCF Done:  E(RB3LYP) =  -651.645677365     A.U. after   13 cycles
 SCF Done:  E(RB3LYP) =  -651.646160703     A.U. after   13 cycles
 SCF Done:  E(RB3LYP) =  -651.645754025     A.U. after   13 cycles
 SCF Done:  E(RB3LYP) =  -651.646832573     A.U. after   12 cycles
 SCF Done:  E(RB3LYP) =  -651.647988505     A.U. after   11 cycles
 SCF Done:  E(RB3LYP) =  -651.648109950     A.U. after   12 cycles
 SCF Done:  E(RB3LYP) =  -651.648497342     A.U. after   12 cycles
 SCF Done:  E(RB3LYP) =  -651.648615748     A.U. after   12 cycles
 SCF Done:  E(RB3LYP) =  -651.648572530     A.U. after   12 cycles
 SCF Done:  E(RB3LYP) =  -651.649381150     A.U. after    8 cycles
 SCF Done:  E(RB3LYP) =  -651.649381589     A.U. after    8 cycles
 SCF Done:  E(RB3LYP) =  -651.649381608     A.U. after    7 cycles
 SCF Done:  E(RB3LYP) =  -651.649381630     A.U. after    7 cycles
 SCF Done:  E(RB3LYP) =  -651.649381640     A.U. after    7 cycles
 Optimization completed.
    -- Stationary point found.
 Normal termination of Gaussian 16 at Thu Dec 10 15:02:34 2020.

 --------------------------------------------------------------------
 #N Geom=AllCheck Guess=TCheck SCRF=Check GenChk RB3LYP/6-31G(d) Freq
 --------------------------------------------------------------------

 Structure from the checkpoint file:  "JID_5064.chk"
 -------------------------------
 CID_116847370_JID_5064_neutraal
 -------------------------------
 Charge =  0 Multiplicity = 1

 SCF Done:  E(RB3LYP) =  -651.649381640     A.U. after    1 cycles

  Exact polarizability: 158.330  11.299 109.545   3.742   6.722 130.638
 Approx polarizability: 241.734  22.218 153.492  11.033  18.262 217.626

                      1                      2                      3
                      A                      A                      A
 Frequencies --     36.0438                59.8461                81.1612
 Red. masses --      4.9751                 3.6292                 4.0774
 Frc consts  --      0.0038                 0.0077                 0.0158
 IR Inten    --      1.2511                 0.8393                 0.1117

                      4                      5                      6
                      A                      A                      A
 Frequencies --     87.1328               131.1481               145.9752
 Red. masses --      4.4224                 2.2939                 1.4857
 Frc consts  --      0.0198                 0.0232                 0.0187
 IR Inten    --      1.8281                 0.9361                 0.4543

                      7                      8                      9
                      A                      A                      A
 Frequencies --    159.6683               192.8308               202.5539
 Red. masses --      2.7457                 1.6692                 2.0705
 Frc consts  --      0.0412                 0.0366                 0.0501
 IR Inten    --      0.6820                 2.8706                 0.1892

                     10                     11                     12
                      A                      A                      A
 Frequencies --    239.3079               253.9447               295.9336
 Red. masses --      2.5677                 2.1981                 2.4367
 Frc consts  --      0.0866                 0.0835                 0.1257
 IR Inten    --      0.6471                 1.6393                 2.8725

                     13                     14                     15
                      A                      A                      A
 Frequencies --    321.3153               357.4251               374.8798
 Red. masses --      3.5661                 3.8281                 3.7279
 Frc consts  --      0.2169                 0.2881                 0.3087
 IR Inten    --      1.2902                 0.9753                10.2409

                     16                     17                     18
                      A                      A                      A
 Frequencies --    406.7663               465.9073               488.1812
 Red. masses --      3.4547                 2.9734                 3.3551
 Frc consts  --      0.3368                 0.3803                 0.4711
 IR Inten    --      5.9659                 4.1247                 1.3296

                     19                     20                     21
                      A                      A                      A
 Frequencies --    524.1308               557.3210               571.9417
 Red. masses --      3.2551                 4.6717                 1.9752
 Frc consts  --      0.5269                 0.8549                 0.3807
 IR Inten    --     23.2179                13.3131                60.0065

                     22                     23                     24
                      A                      A                      A
 Frequencies --    602.2716               627.2870               682.1946
 Red. masses --      3.1628                 2.4922                 5.4134
 Frc consts  --      0.6759                 0.5778                 1.4844
 IR Inten    --     33.0234                 5.0175                 4.4852

                     25                     26                     27
                      A                      A                      A
 Frequencies --    740.8483               754.3501               774.4616
 Red. masses --      2.6757                 3.8155                 1.7311
 Frc consts  --      0.8653                 1.2792                 0.6118
 IR Inten    --     11.9722                21.0031                 6.1342

                     28                     29                     30
                      A                      A                      A
 Frequencies --    789.0113               814.5413               828.5749
 Red. masses --      1.6624                 1.6106                 1.6301
 Frc consts  --      0.6098                 0.6296                 0.6594
 IR Inten    --      7.2095                 5.4330                65.8403

                     31                     32                     33
                      A                      A                      A
 Frequencies --    859.6423               880.4747               936.6017
 Red. masses --      1.9668                 1.3365                 2.9011
 Frc consts  --      0.8563                 0.6105                 1.4994
 IR Inten    --      2.7815                 0.2863                 2.6902

                     34                     35                     36
                      A                      A                      A
 Frequencies --    946.4222               968.8495               977.2179
 Red. masses --      1.9886                 2.4403                 1.3056
 Frc consts  --      1.0494                 1.3496                 0.7346
 IR Inten    --      0.6134                14.3091                 1.4720

                     37                     38                     39
                      A                      A                      A
 Frequencies --    982.3372              1015.2745              1023.3864
 Red. masses --      1.3725                 2.3066                 1.5669
 Frc consts  --      0.7803                 1.4008                 0.9669
 IR Inten    --      3.9418                 5.2162                 1.4295

                     40                     41                     42
                      A                      A                      A
 Frequencies --   1070.2295              1072.1572              1080.2826
 Red. masses --      1.4113                 1.5045                 1.9829
 Frc consts  --      0.9524                 1.0190                 1.3634
 IR Inten    --      8.2626                 3.8735                 4.1622

                     43                     44                     45
                      A                      A                      A
 Frequencies --   1097.7569              1116.3969              1154.2007
 Red. masses --      1.4180                 2.5447                 1.6476
 Frc consts  --      1.0068                 1.8686                 1.2932
 IR Inten    --      1.3520                 7.1964                33.9962

                     46                     47                     48
                      A                      A                      A
 Frequencies --   1164.4036              1182.8615              1196.4429
 Red. masses --      1.4580                 2.9872                 1.0979
 Frc consts  --      1.1647                 2.4625                 0.9259
 IR Inten    --      2.0092                13.8649                 0.1787

                     49                     50                     51
                      A                      A                      A
 Frequencies --   1212.7425              1223.8539              1236.5116
 Red. masses --      1.3169                 1.8116                 2.3656
 Frc consts  --      1.1411                 1.5987                 2.1310
 IR Inten    --      0.2373                 7.8540                 0.5364

                     52                     53                     54
                      A                      A                      A
 Frequencies --   1264.6391              1317.9275              1347.1063
 Red. masses --      2.6433                 1.6056                 6.2849
 Frc consts  --      2.4908                 1.6431                 6.7197
 IR Inten    --      8.2615                 2.1244                 5.0215

                     55                     56                     57
                      A                      A                      A
 Frequencies --   1355.1300              1384.3869              1444.7375
 Red. masses --      3.0783                 3.3848                 1.2390
 Frc consts  --      3.3306                 3.8220                 1.5237
 IR Inten    --      9.6796               175.6237                 2.0219

                     58                     59                     60
                      A                      A                      A
 Frequencies --   1457.2715              1478.5096              1483.9520
 Red. masses --      1.3887                 1.1975                 1.0972
 Frc consts  --      1.7376                 1.5424                 1.4235
 IR Inten    --     12.0229                 1.6930                 3.5770

                     61                     62                     63
                      A                      A                      A
 Frequencies --   1495.1969              1513.8713              1515.2653
 Red. masses --      1.9893                 1.0766                 1.0736
 Frc consts  --      2.6202                 1.4537                 1.4524
 IR Inten    --      0.9972                 7.5214                 2.4279

                     64                     65                     66
                      A                      A                      A
 Frequencies --   1519.6925              1526.2257              1531.8552
 Red. masses --      1.2872                 1.3177                 1.1543
 Frc consts  --      1.7515                 1.8084                 1.5959
 IR Inten    --      5.6573                10.1088                 8.8785

                     67                     68                     69
                      A                      A                      A
 Frequencies --   1541.8787              1562.5130              1633.6595
 Red. masses --      2.0294                 1.2512                 5.7103
 Frc consts  --      2.8427                 1.7998                 8.9791
 IR Inten    --     17.2749                 9.2891                 0.2112

                     70                     71                     72
                      A                      A                      A
 Frequencies --   1667.2926              1777.0013              2988.4948
 Red. masses --      5.7949                 8.0247                 1.0566
 Frc consts  --      9.4911                14.9298                 5.5598
 IR Inten    --      3.0247               246.6315                91.8129

                     73                     74                     75
                      A                      A                      A
 Frequencies --   3051.8765              3106.6417              3108.2232
 Red. masses --      1.0387                 1.0788                 1.0968
 Frc consts  --      5.6997                 6.1346                 6.2432
 IR Inten    --     20.0501                20.1029                15.7719

                     76                     77                     78
                      A                      A                      A
 Frequencies --   3133.1710              3155.3986              3157.7994
 Red. masses --      1.1029                 1.0534                 1.1028
 Frc consts  --      6.3792                 6.1793                 6.4794
 IR Inten    --     16.7982                10.7028                 9.4869

                     79                     80                     81
                      A                      A                      A
 Frequencies --   3162.3751              3174.5861              3185.9428
 Red. masses --      1.0551                 1.0861                 1.0885
 Frc consts  --      6.2168                 6.4491                 6.5098
 IR Inten    --      8.8458                 7.5880                14.2251

                     82                     83                     84
                      A                      A                      A
 Frequencies --   3201.0945              3212.9830              3235.8138
 Red. masses --      1.0935                 1.0952                 1.1186
 Frc consts  --      6.6021                 6.6611                 6.9005
 IR Inten    --     38.7933                16.1833                 5.5130

                     85                     86                     87
                      A                      A                      A
 Frequencies --   3256.3178              3476.6106              3483.3898
 Red. masses --      1.1172                 1.0751                 1.0754
 Frc consts  --      6.9798                 7.6563                 7.6880
 IR Inten    --      3.4936                 2.5167                 6.2424

 - Thermochemistry -
 -------------------
 Temperature   298.150 Kelvin.  Pressure   1.00000 Atm.
 Atom     1 has atomic number  6 and mass  12.00000

 Molecular mass:   204.12626 amu.
 Principal axes and moments of inertia in atomic units:
                           1         2         3
     Eigenvalues --  2150.545363275.611283726.23407
           X            0.99962   0.02391  -0.01382
           Y           -0.02372   0.99963   0.01351
           Z            0.01414  -0.01317   0.99981
 This molecule is an asymmetric top.
 Rotational symmetry number  1.
 Warning -- assumption of classical behavior for rotation
           may cause significant error
 Rotational temperatures (Kelvin)      0.04028     0.02644     0.02324
 Rotational constants (GHZ):           0.83920     0.55096     0.48433
 Zero-point vibrational energy     693079.4 (Joules/Mol)
                                  165.64996 (Kcal/Mol)
 Warning -- explicit consideration of  22 degrees of freedom as
           vibrations may cause significant error
 Vibrational temperatures:     51.86    86.11   116.77   125.36   188.69
          (Kelvin)            210.03   229.73   277.44   291.43   344.31
                              365.37   425.78   462.30   514.25   539.37
                              585.25   670.34   702.38   754.11   801.86
                              822.90   866.53   902.53   981.53  1065.92
                             1085.34  1114.28  1135.21  1171.94  1192.13
                             1236.83  1266.81  1347.56  1361.69  1393.96
                             1406.00  1413.36  1460.75  1472.42  1539.82
                             1542.60  1554.29  1579.43  1606.25  1660.64
                             1675.32  1701.87  1721.41  1744.87  1760.85
                             1779.06  1819.53  1896.20  1938.19  1949.73
                             1991.82  2078.66  2096.69  2127.25  2135.08
                             2151.25  2178.12  2180.13  2186.50  2195.90
                             2204.00  2218.42  2248.11  2350.47  2398.86
                             2556.71  4299.78  4390.97  4469.76  4472.04
                             4507.93  4539.91  4543.37  4549.95  4567.52
                             4583.86  4605.66  4622.77  4655.61  4685.12
                             5002.07  5011.82

 Zero-point correction=                           0.263980 (Hartree/Particle)
 Thermal correction to Energy=                    0.278644
 Thermal correction to Enthalpy=                  0.279588
 Thermal correction to Gibbs Free Energy=         0.222374
 Sum of electronic and zero-point Energies=           -651.385402
 Sum of electronic and thermal Energies=              -651.370737
 Sum of electronic and thermal Enthalpies=            -651.369793
 Sum of electronic and thermal Free Energies=         -651.427008

                     E (Thermal)             CV                S
                      KCal/Mol        Cal/Mol-Kelvin    Cal/Mol-Kelvin
 Total                  174.852             56.077            120.418
 Electronic               0.000              0.000              0.000
 Translational            0.889              2.981             41.845
 Rotational               0.889              2.981             31.640
 Vibrational            173.074             50.115             46.933
 Vibration     1          0.594              1.982              5.465
 Vibration     2          0.597              1.973              4.462
 Vibration     3          0.600              1.962              3.863
 Vibration     4          0.601              1.958              3.723
 Vibration     5          0.612              1.922              2.929
 Vibration     6          0.617              1.907              2.724
 Vibration     7          0.622              1.892              2.554
 Vibration     8          0.635              1.850              2.200
 Vibration     9          0.639              1.836              2.110
 Vibration    10          0.657              1.780              1.808
 Vibration    11          0.665              1.756              1.703
 Vibration    12          0.690              1.681              1.440
 Vibration    13          0.707              1.633              1.303
 Vibration    14          0.733              1.560              1.133
 Vibration    15          0.746              1.524              1.060
 Vibration    16          0.772              1.456              0.938
 Vibration    17          0.823              1.326              0.749
 Vibration    18          0.844              1.276              0.688
 Vibration    19          0.879              1.197              0.600
 Vibration    20          0.913              1.124              0.529
 Vibration    21          0.928              1.092              0.501
 Vibration    22          0.961              1.027              0.446

                           ! Non-Optimized Parameters !
 Normal termination of Gaussian 16 at Thu Dec 10 15:14:01 2020.

 ----------------------------------------------------------------------
 # B3LYP/6-311++G(d,p) empiricaldispersion=gd3bj scf=xqc pop=npa geom=c
 heck
 ----------------------------------------------------------------------

 ---------------------------------------
 CID_116847370_JID_5064_Energie_neutraal
 ---------------------------------------
 Structure from the checkpoint file:  "JID_5064.chk"
 Charge =  0 Multiplicity = 1

 SCF Done:  E(RB3LYP) =  -651.832942946     A.U. after   15 cycles
 Normal termination of Gaussian 16 at Thu Dec 10 15:19:41 2020.

 ----------------------------------------------------------------------
 # B3LYP/6-311++G(d,p) empiricaldispersion=gd3bj scf=xqc pop=npa geom=c
 heck
 ----------------------------------------------------------------------

 -------------------------------------
 CID_116847370_JID_5064_Energie_kation
 -------------------------------------
 Structure from the checkpoint file:  "JID_5064.chk"
 Charge =  1 Multiplicity = 2

 SCF Done:  E(UB3LYP) =  -651.536405611     A.U. after   25 cycles
 Normal termination of Gaussian 16 at Thu Dec 10 15:30:51 2020.
 Gaussian 16:  ES64L-G16RevA.03 25-Dec-2016

 ----------------------------------------------------------------------
 # B3LYP/6-311++G(d,p) empiricaldispersion=gd3bj scf=xqc pop=npa geom=c
 heck
 ----------------------------------------------------------------------

 ------------------------------------
 CID_116847370_JID_5064_Energie_anion
 ------------------------------------
 Structure from the checkpoint file:  "JID_5064.chk"
 Charge = -1 Multiplicity = 2

                         Standard orientation:
 ---------------------------------------------------------------------
 Center     Atomic      Atomic             Coordinates (Angstroms)
 Number     Number       Type             X           Y           Z
 ---------------------------------------------------------------------
      1          6           0        0.216730   -1.081135   -2.167743
      2          6           0        1.059484   -0.743033   -0.962385
      3          6           0        2.446795   -0.605366   -1.096706
      4          6           0        3.255697   -0.282197   -0.008673
      5          6           0        2.675627   -0.089661    1.244844
      6          6           0        1.296905   -0.220674    1.392073
      7          6           0        0.477203   -0.547050    0.307817
      8          6           0       -1.007878   -0.702203    0.468620
      9          6           0       -1.564989   -2.107491    0.592766
     10          6           0       -1.602519   -1.193301    1.779151
     11          6           0       -1.910405    0.239487   -0.303550
     12          8           0       -2.928959   -0.125185   -0.877920
     13          7           0       -1.530017    1.559661   -0.366036
     14          7           0       -0.618515    2.135535    0.520882
     15          6           0        0.475405    2.822434   -0.158462
     16          1           0       -0.384653   -0.222876   -2.491479
     17          1           0        0.846656   -1.381858   -3.010264
     18          1           0       -0.488556   -1.890951   -1.955895
     19          1           0        2.896084   -0.760470   -2.074814
     20          1           0        4.329880   -0.184198   -0.139463
     21          1           0        3.291343    0.167170    2.102492
     22          1           0        0.838853   -0.038323    2.358574
     23          1           0       -2.490742   -2.305122    0.063847
     24          1           0       -0.836609   -2.912472    0.597854
     25          1           0       -0.920199   -1.379635    2.602449
     26          1           0       -2.562853   -0.779616    2.072292
     27          1           0       -2.161951    2.152598   -0.902178
     28          1           0       -1.114481    2.762111    1.151920
     29          1           0        0.140668    3.597826   -0.868119
     30          1           0        1.107934    3.289846    0.602416
     31          1           0        1.071675    2.082214   -0.696695
 ---------------------------------------------------------------------

 SCF Done:  E(UB3LYP) =  -651.820742964     A.U. after   33 cycles
 SCF Done:  E(UB3LYP) =  -651.820742964     a.u. after    1 cycles

 The electronic state is 2-A.
 Alpha  occ. eigenvalues --  -18.99220 -14.25594 -14.23402 -10.17609 -10.10305
 Alpha  occ. eigenvalues --  -10.08895 -10.08703 -10.08630 -10.08228 -10.08063
 Alpha  occ. eigenvalues --  -10.07582 -10.07506 -10.07383 -10.07310 -10.07119
 Alpha  occ. eigenvalues --   -0.94833  -0.88378  -0.78850  -0.75414  -0.71741
 Alpha  occ. eigenvalues --   -0.67772  -0.65275  -0.59311  -0.57261  -0.55824
 Alpha  occ. eigenvalues --   -0.52219  -0.50379  -0.49098  -0.45420  -0.44454
 Alpha  occ. eigenvalues --   -0.42738  -0.39960  -0.37723  -0.36991  -0.36464
 Alpha  occ. eigenvalues --   -0.35258  -0.33898  -0.32764  -0.31641  -0.31455
 Alpha  occ. eigenvalues --   -0.30283  -0.30039  -0.28956  -0.28348  -0.27812
 Alpha  occ. eigenvalues --   -0.25947  -0.25005  -0.24912  -0.21845  -0.20646
 Alpha  occ. eigenvalues --   -0.17197  -0.16350  -0.16079  -0.14783  -0.13393
 Alpha  occ. eigenvalues --    0.04388
 Alpha virt. eigenvalues --    0.06383   0.07103   0.07613   0.07903   0.08536
 Alpha virt. eigenvalues --    0.08799   0.09149   0.09583   0.09858   0.10285
 Alpha virt. eigenvalues --    0.10492   0.11934   0.12132   0.12637   0.12913

  Beta  occ. eigenvalues --  -18.99202 -14.25575 -14.23359 -10.17600 -10.10303
  Beta  occ. eigenvalues --  -10.08881 -10.08702 -10.08626 -10.08226 -10.08020
  Beta  occ. eigenvalues --  -10.07568 -10.07497 -10.07371 -10.07301 -10.07113
  Beta  occ. eigenvalues --   -0.94800  -0.88329  -0.78838  -0.75398  -0.71679
  Beta  occ. eigenvalues --   -0.67753  -0.65253  -0.59291  -0.57196  -0.55743
  Beta  occ. eigenvalues --   -0.52190  -0.50346  -0.49072  -0.45382  -0.44360
  Beta  occ. eigenvalues --   -0.42707  -0.39929  -0.37681  -0.36907  -0.36436
  Beta  occ. eigenvalues --   -0.35231  -0.33871  -0.32745  -0.31607  -0.31424
  Beta  occ. eigenvalues --   -0.30256  -0.29997  -0.28924  -0.28296  -0.27794
  Beta  occ. eigenvalues --   -0.25927  -0.24981  -0.24889  -0.21831  -0.20626
  Beta  occ. eigenvalues --   -0.17172  -0.16317  -0.16030  -0.14764  -0.13354
  Beta virt. eigenvalues --    0.06645   0.07545   0.07682   0.07851   0.08131
  Beta virt. eigenvalues --    0.08612   0.09275   0.09534   0.09894   0.10494
  Beta virt. eigenvalues --    0.10669   0.10710   0.12130   0.12430   0.12897

 Mulliken charges and spin densities:
               1          2
     1  C   -0.164125  -0.548481
     2  C   -0.230258   0.410690
     3  C   -0.674483   0.380947
     4  C    1.149884  -1.392549
     5  C    0.427037  -1.065240
     6  C   -0.866144   0.648593
     7  C    0.389751   0.109783
     8  C    0.425685   0.172061
     9  C   -0.181553  -0.271930
    10  C    0.422761  -0.720569
    11  C   -0.112683  -0.095964
    12  O   -0.288932   0.011838
    13  N   -0.436697   0.030123
    14  N   -0.291158   0.212160
    15  C    1.044968  -1.418013
    16  H    0.181111   0.037098
    17  H   -0.094155   0.240063
    18  H    0.173252   0.000417
    19  H   -0.225153   0.383851
    20  H   -0.430548   0.592951
    21  H   -0.547333   0.714780
    22  H   -0.061379   0.240433
    23  H    0.208432  -0.012338
    24  H    0.136920   0.009977
    25  H    0.038332   0.112243
    26  H    0.049499   0.128712
    27  H   -0.047814   0.351778
    28  H   -0.435864   0.729369
    29  H   -0.330386   0.463894
    30  H   -0.511152   0.650827
    31  H    0.282184  -0.107504
 Sum of Mulliken charges =  -1.00000   1.00000

 Dipole moment (field-independent basis, Debye):
    X=             -1.1053    Y=             -6.7626    Z=             -1.4905  Tot=              7.0126
 Quadrupole moment (field-independent basis, Debye-Ang):
   XX=           -153.0132   YY=           -142.4919   ZZ=           -126.4053
   XY=              4.1672   XZ=             -5.2251   YZ=             -6.8031

 Summary of Natural Population Analysis:

                                       Natural Population
                Natural  -----------------------------------------------
    Atom  No    Charge         Core      Valence    Rydberg      Total
 -----------------------------------------------------------------------
      C    1   -0.29822      0.99963     2.29293    0.00565     3.29822
      C    2   -0.01229      0.99946     2.00360    0.00922     3.01229
      C    3   -0.10361      0.99951     2.09412    0.00997     3.10361
      C    4   -0.10032      0.99956     2.09045    0.01031     3.10032
      C    5   -0.10315      0.99955     2.09331    0.01030     3.10315
      C    6   -0.08505      0.99950     2.07552    0.01002     3.08505
      C    7   -0.01403      0.99944     2.00122    0.01337     3.01403
      C    8   -0.08748      0.99948     2.07403    0.01398     3.08748
      C    9   -0.18851      0.99960     2.18088    0.00803     3.18851
      C   10   -0.18070      0.99960     2.17198    0.00912     3.18070
      C   11    0.35147      0.99960     1.62412    0.02481     2.64853
      O   12   -0.32517      0.99988     3.31990    0.00539     4.32517
      N   13   -0.22968      0.99965     2.71647    0.01356     3.72968
      N   14   -0.23998      0.99975     2.72371    0.01653     3.73998
      C   15   -0.17809      0.99965     2.16913    0.00931     3.17809
      H   16    0.10992      0.00000     0.38913    0.00095     0.39008
      H   17    0.10035      0.00000     0.39894    0.00071     0.39965
      H   18    0.10737      0.00000     0.39180    0.00083     0.39263
      H   19    0.09854      0.00000     0.40047    0.00099     0.40146
      H   20    0.10116      0.00000     0.39768    0.00117     0.39884
      H   21    0.10223      0.00000     0.39654    0.00123     0.39777
      H   22    0.10327      0.00000     0.39475    0.00198     0.39673
      H   23    0.11461      0.00000     0.38440    0.00099     0.38539
      H   24    0.10287      0.00000     0.39634    0.00079     0.39713
      H   25    0.10486      0.00000     0.39417    0.00097     0.39514
      H   26    0.10707      0.00000     0.39204    0.00089     0.39293
      H   27    0.18409      0.00000     0.31265    0.00327     0.31591
      H   28    0.17839      0.00000     0.30926    0.01235     0.32161
      H   29    0.08288      0.00000     0.41501    0.00210     0.41712
      H   30    0.09988      0.00000     0.39808    0.00204     0.40012
      H   31    0.09733      0.00000     0.40037    0.00231     0.40267
 =======================================================================
   * Total *   -0.00000     14.99386    39.80298    0.20316    55.00000

 Normal termination of Gaussian 16 at Thu Dec 10 15:44:55 2020.
