 Gaussian 16, Revision A.03,

 -----------------------------------------------------------
 # opt freq B3LYP/6-31G(d) empiricaldispersion=gd3bj scf=xqc
 -----------------------------------------------------------

 ------------------------------
 CID_89159207_JID_4307_neutraal
 ------------------------------
 Symbolic Z-matrix:
 Charge =  0 Multiplicity = 1

 SCF Done:  E(RB3LYP) =  -596.302053156     A.U. after   14 cycles
 SCF Done:  E(RB3LYP) =  -596.305710124     A.U. after   12 cycles
 SCF Done:  E(RB3LYP) =  -596.306410360     A.U. after   12 cycles
 SCF Done:  E(RB3LYP) =  -596.306894723     A.U. after   12 cycles
 SCF Done:  E(RB3LYP) =  -596.307602174     A.U. after   12 cycles
 SCF Done:  E(RB3LYP) =  -596.308464573     A.U. after   12 cycles
 SCF Done:  E(RB3LYP) =  -596.308594776     A.U. after   12 cycles
 SCF Done:  E(RB3LYP) =  -596.308659761     A.U. after   11 cycles
 SCF Done:  E(RB3LYP) =  -596.308672300     A.U. after   10 cycles
 SCF Done:  E(RB3LYP) =  -596.308674463     A.U. after    9 cycles
 SCF Done:  E(RB3LYP) =  -596.308674917     A.U. after    9 cycles
 SCF Done:  E(RB3LYP) =  -596.308675330     A.U. after    8 cycles
 SCF Done:  E(RB3LYP) =  -596.308675609     A.U. after    8 cycles
 SCF Done:  E(RB3LYP) =  -596.308675665     A.U. after    7 cycles
 Optimization completed.
    -- Stationary point found.
 Normal termination of Gaussian 16 at Thu Dec 10 09:24:12 2020.

 --------------------------------------------------------------------
 #N Geom=AllCheck Guess=TCheck SCRF=Check GenChk RB3LYP/6-31G(d) Freq
 --------------------------------------------------------------------

 Structure from the checkpoint file:  "JID_4307.chk"
 ------------------------------
 CID_89159207_JID_4307_neutraal
 ------------------------------
 Charge =  0 Multiplicity = 1

 SCF Done:  E(RB3LYP) =  -596.308675665     A.U. after    1 cycles

  Exact polarizability: 185.648 -17.469 147.578 -16.743  -9.242  77.917
 Approx polarizability: 268.399 -28.411 234.768 -31.834 -20.226 121.147

                      1                      2                      3
                      A                      A                      A
 Frequencies --     24.1464                45.2223                87.3295
 Red. masses --      3.8357                 3.2634                 3.3397
 Frc consts  --      0.0013                 0.0039                 0.0150
 IR Inten    --      0.0214                 0.9108                 0.9914

                      4                      5                      6
                      A                      A                      A
 Frequencies --    104.1686               165.2144               172.6108
 Red. masses --      2.2142                 3.2538                 3.6782
 Frc consts  --      0.0142                 0.0523                 0.0646
 IR Inten    --      3.5915                 1.4962                 3.6560

                      7                      8                      9
                      A                      A                      A
 Frequencies --    216.1806               236.9098               272.0278
 Red. masses --      3.7075                 1.4085                 2.3691
 Frc consts  --      0.1021                 0.0466                 0.1033
 IR Inten    --      1.2137                 2.6147                 8.7488

                     10                     11                     12
                      A                      A                      A
 Frequencies --    309.2605               329.1946               397.1444
 Red. masses --      2.4905                 2.6673                 3.5675
 Frc consts  --      0.1403                 0.1703                 0.3315
 IR Inten    --      1.7379                 6.3415                 0.3026

                     13                     14                     15
                      A                      A                      A
 Frequencies --    415.2375               429.2354               478.4661
 Red. masses --      3.0555                 4.0101                 3.3993
 Frc consts  --      0.3104                 0.4353                 0.4585
 IR Inten    --      8.4361                11.7224                 1.4265

                     16                     17                     18
                      A                      A                      A
 Frequencies --    529.7448               551.3087               583.9762
 Red. masses --      5.3828                 2.4532                 3.6040
 Frc consts  --      0.8900                 0.4393                 0.7241
 IR Inten    --      1.9606                 4.5230                 3.7123

                     19                     20                     21
                      A                      A                      A
 Frequencies --    627.8574               718.2819               730.1979
 Red. masses --      5.4081                 2.5030                 2.1577
 Frc consts  --      1.2561                 0.7609                 0.6778
 IR Inten    --      1.3392                 4.7094                16.4027

                     22                     23                     24
                      A                      A                      A
 Frequencies --    744.6021               781.2327               785.3842
 Red. masses --      1.5864                 1.7520                 4.1111
 Frc consts  --      0.5182                 0.6300                 1.4941
 IR Inten    --      7.9402                51.2451                 0.7241

                     25                     26                     27
                      A                      A                      A
 Frequencies --    850.2233               869.9289               878.3667
 Red. masses --      3.1493                 2.9397                 1.4053
 Frc consts  --      1.3413                 1.3107                 0.6388
 IR Inten    --     19.2880                 1.5231                 1.4515

                     28                     29                     30
                      A                      A                      A
 Frequencies --    915.0160               930.3469               946.3118
 Red. masses --      1.3646                 1.4035                 2.9621
 Frc consts  --      0.6731                 0.7157                 1.5629
 IR Inten    --      2.2122                 7.2754                14.9222

                     31                     32                     33
                      A                      A                      A
 Frequencies --    972.2243               987.4676              1032.4936
 Red. masses --      1.2476                 2.1152                 1.9271
 Frc consts  --      0.6948                 1.2152                 1.2104
 IR Inten    --      0.1287                 6.1891                 0.4059

                     34                     35                     36
                      A                      A                      A
 Frequencies --   1043.4328              1069.6749              1107.3569
 Red. masses --      2.9199                 2.2305                 2.0753
 Frc consts  --      1.8731                 1.5037                 1.4994
 IR Inten    --     22.2033                 2.8011                53.2308

                     37                     38                     39
                      A                      A                      A
 Frequencies --   1140.1234              1168.0081              1172.0425
 Red. masses --      1.9231                 1.6077                 3.5989
 Frc consts  --      1.4729                 1.2922                 2.9128
 IR Inten    --     19.9986                11.1751               127.0484

                     40                     41                     42
                      A                      A                      A
 Frequencies --   1192.8622              1195.5725              1210.0168
 Red. masses --      1.0994                 1.3394                 1.9461
 Frc consts  --      0.9217                 1.1280                 1.6788
 IR Inten    --      0.5231                 8.3611                77.1433

                     43                     44                     45
                      A                      A                      A
 Frequencies --   1225.9636              1230.1216              1256.5841
 Red. masses --      1.4640                 2.1437                 2.2886
 Frc consts  --      1.2965                 1.9112                 2.1291
 IR Inten    --     54.0265                 9.7379                18.4174

                     46                     47                     48
                      A                      A                      A
 Frequencies --   1268.1599              1295.8271              1306.6456
 Red. masses --      1.4168                 1.3804                 1.4579
 Frc consts  --      1.3425                 1.3657                 1.4665
 IR Inten    --     11.2360                30.9772                 6.3877

                     49                     50                     51
                      A                      A                      A
 Frequencies --   1316.4305              1353.8431              1380.6583
 Red. masses --      1.2620                 3.7935                 1.8832
 Frc consts  --      1.2885                 4.0967                 2.1151
 IR Inten    --     15.4771                11.8084                11.0341

                     52                     53                     54
                      A                      A                      A
 Frequencies --   1407.8918              1429.5573              1445.9347
 Red. masses --      1.3448                 1.3299                 1.4538
 Frc consts  --      1.5706                 1.6014                 1.7908
 IR Inten    --     71.8008                36.9785                14.6990

                     55                     56                     57
                      A                      A                      A
 Frequencies --   1485.8920              1499.3422              1502.1919
 Red. masses --      1.9620                 1.2189                 1.1654
 Frc consts  --      2.5522                 1.6144                 1.5495
 IR Inten    --     18.7667                29.9756                 1.7258

                     58                     59                     60
                      A                      A                      A
 Frequencies --   1512.6642              1515.1708              1528.4754
 Red. masses --      1.9474                 1.0507                 1.0858
 Frc consts  --      2.6253                 1.4212                 1.4945
 IR Inten    --     27.4232                 4.5697                 9.3989

                     61                     62                     63
                      A                      A                      A
 Frequencies --   1531.1948              1544.5646              1550.3410
 Red. masses --      1.4742                 1.8643                 1.0958
 Frc consts  --      2.0365                 2.6205                 1.5519
 IR Inten    --     15.5461                23.1839                 0.8977

                     64                     65                     66
                      A                      A                      A
 Frequencies --   1626.5788              1664.6202              1691.0654
 Red. masses --      5.2385                 5.9941                 5.5715
 Frc consts  --      8.1660                 9.7859                 9.3874
 IR Inten    --     25.8489                31.3876               165.4204

                     67                     68                     69
                      A                      A                      A
 Frequencies --   2894.5755              2970.1082              2993.8427
 Red. masses --      1.0739                 1.0606                 1.0617
 Frc consts  --      5.3013                 5.5123                 5.6068
 IR Inten    --     98.3159                53.5117                40.3266

                     70                     71                     72
                      A                      A                      A
 Frequencies --   2996.2114              3023.7088              3041.0643
 Red. masses --      1.0484                 1.0975                 1.1049
 Frc consts  --      5.5455                 5.9119                 6.0203
 IR Inten    --    102.5961               100.0327                53.3388

                     73                     74                     75
                      A                      A                      A
 Frequencies --   3097.4689              3142.1053              3147.0917
 Red. masses --      1.0930                 1.0971                 1.0872
 Frc consts  --      6.1788                 6.3818                 6.3441
 IR Inten    --     22.2072                25.7400                 2.5181

                     76                     77                     78
                      A                      A                      A
 Frequencies --   3170.7389              3175.9875              3188.7852
 Red. masses --      1.0863                 1.0879                 1.0881
 Frc consts  --      6.4349                 6.4652                 6.5189
 IR Inten    --     12.7032                 2.7275                10.8356

                     79                     80                     81
                      A                      A                      A
 Frequencies --   3190.5791              3206.0821              3219.9974
 Red. masses --      1.0918                 1.0970                 1.0947
 Frc consts  --      6.5481                 6.6435                 6.6876
 IR Inten    --     31.8871                36.9973                19.9090

 - Thermochemistry -
 -------------------
 Temperature   298.150 Kelvin.  Pressure   1.00000 Atm.
 Atom     1 has atomic number  6 and mass  12.00000

 Molecular mass:   189.11536 amu.
 Principal axes and moments of inertia in atomic units:
                           1         2         3
     Eigenvalues --  1406.171604399.852085491.61657
           X            0.99998   0.00520   0.00302
           Y           -0.00520   0.99999   0.00137
           Z           -0.00301  -0.00139   0.99999
 This molecule is an asymmetric top.
 Rotational symmetry number  1.
 Warning -- assumption of classical behavior for rotation
           may cause significant error
 Rotational temperatures (Kelvin)      0.06160     0.01969     0.01577
 Rotational constants (GHZ):           1.28344     0.41018     0.32864
 Zero-point vibrational energy     654623.3 (Joules/Mol)
                                  156.45872 (Kcal/Mol)
 Warning -- explicit consideration of  18 degrees of freedom as
           vibrations may cause significant error
 Vibrational temperatures:     34.74    65.06   125.65   149.88   237.71
          (Kelvin)            248.35   311.04   340.86   391.39   444.96
                              473.64   571.40   597.43   617.57   688.41
                              762.18   793.21   840.21   903.35  1033.45
                             1050.59  1071.32  1124.02  1129.99  1223.28
                             1251.63  1263.77  1316.50  1338.56  1361.53
                             1398.81  1420.75  1485.53  1501.27  1539.02
                             1593.24  1640.38  1680.50  1686.31  1716.26
                             1720.16  1740.94  1763.89  1769.87  1807.94
                             1824.60  1864.41  1879.97  1894.05  1947.88
                             1986.46  2025.64  2056.81  2080.38  2137.87
                             2157.22  2161.32  2176.39  2179.99  2199.14
                             2203.05  2222.28  2230.59  2340.28  2395.02
                             2433.07  4164.65  4273.32  4307.47  4310.88
                             4350.44  4375.41  4456.57  4520.79  4527.96
                             4561.99  4569.54  4587.95  4590.53  4612.84
                             4632.86

 Zero-point correction=                           0.249333 (Hartree/Particle)
 Thermal correction to Energy=                    0.262012
 Thermal correction to Enthalpy=                  0.262957
 Thermal correction to Gibbs Free Energy=         0.208993
 Sum of electronic and zero-point Energies=           -596.059343
 Sum of electronic and thermal Energies=              -596.046663
 Sum of electronic and thermal Enthalpies=            -596.045719
 Sum of electronic and thermal Free Energies=         -596.099683

                     E (Thermal)             CV                S
                      KCal/Mol        Cal/Mol-Kelvin    Cal/Mol-Kelvin
 Total                  164.415             48.664            113.576
 Electronic               0.000              0.000              0.000
 Translational            0.889              2.981             41.617
 Rotational               0.889              2.981             31.897
 Vibrational            162.638             42.703             40.062
 Vibration     1          0.593              1.985              6.260
 Vibration     2          0.595              1.979              5.016
 Vibration     3          0.601              1.958              3.719
 Vibration     4          0.605              1.946              3.375
 Vibration     5          0.624              1.885              2.489
 Vibration     6          0.626              1.876              2.407
 Vibration     7          0.645              1.816              1.991
 Vibration     8          0.656              1.784              1.826
 Vibration     9          0.675              1.725              1.583
 Vibration    10          0.699              1.656              1.366
 Vibration    11          0.712              1.617              1.264
 Vibration    12          0.764              1.476              0.973
 Vibration    13          0.779              1.437              0.908
 Vibration    14          0.791              1.407              0.861
 Vibration    15          0.835              1.298              0.714
 Vibration    16          0.885              1.184              0.588
 Vibration    17          0.907              1.137              0.541
 Vibration    18          0.941              1.066              0.478

 Optimization completed.
    -- Stationary point found.
 Normal termination of Gaussian 16 at Thu Dec 10 09:32:29 2020.

 ----------------------------------------------------------------------
 # B3LYP/6-311++G(d,p) empiricaldispersion=gd3bj scf=xqc pop=npa geom=c
 heck
 ----------------------------------------------------------------------

 --------------------------------------
 CID_89159207_JID_4307_Energie_neutraal
 --------------------------------------
 Structure from the checkpoint file:  "JID_4307.chk"
 Charge =  0 Multiplicity = 1

 SCF Done:  E(RB3LYP) =  -596.470025574     A.U. after   15 cycles
 Normal termination of Gaussian 16 at Thu Dec 10 09:36:26 2020.

 ----------------------------------------------------------------------
 # B3LYP/6-311++G(d,p) empiricaldispersion=gd3bj scf=xqc pop=npa geom=c
 heck
 ----------------------------------------------------------------------

 ------------------------------------
 CID_89159207_JID_4307_Energie_kation
 ------------------------------------
 Structure from the checkpoint file:  "JID_4307.chk"
 Charge =  1 Multiplicity = 2

 SCF Done:  E(UB3LYP) =  -596.224880311     A.U. after   20 cycles
 Normal termination of Gaussian 16 at Thu Dec 10 09:43:53 2020.
 Gaussian 16:  ES64L-G16RevA.03 25-Dec-2016

 ----------------------------------------------------------------------
 # B3LYP/6-311++G(d,p) empiricaldispersion=gd3bj scf=xqc pop=npa geom=c
 heck
 ----------------------------------------------------------------------

 -----------------------------------
 CID_89159207_JID_4307_Energie_anion
 -----------------------------------
 Structure from the checkpoint file:  "JID_4307.chk"
 Charge = -1 Multiplicity = 2

                         Standard orientation:
 ---------------------------------------------------------------------
 Center     Atomic      Atomic             Coordinates (Angstroms)
 Number     Number       Type             X           Y           Z
 ---------------------------------------------------------------------
      1          6           0       -3.819211   -1.872224   -0.620223
      2          8           0       -3.073596   -0.940912    0.134600
      3          6           0       -3.151604    0.371466   -0.389263
      4          6           0       -2.240810    1.294914    0.411371
      5          7           0       -0.826740    1.067199    0.176062
      6          6           0       -0.211906   -0.037306    0.920268
      7          6           0        1.165123   -0.357617    0.385434
      8          6           0        1.683818   -1.647273    0.439645
      9          6           0        3.000804   -1.903469    0.046657
     10          6           0        3.798608   -0.853520   -0.410442
     11          6           0        3.280286    0.437868   -0.487722
     12          6           0        1.959865    0.705823   -0.096487
     13          6           0        1.342405    2.014840   -0.228592
     14          6           0       -0.003347    2.129451   -0.135813
     15          1           0       -4.888552   -1.607946   -0.645646
     16          1           0       -3.704301   -2.845435   -0.136978
     17          1           0       -3.453029   -1.938966   -1.656581
     18          1           0       -2.845885    0.385267   -1.447524
     19          1           0       -4.190950    0.740350   -0.329440
     20          1           0       -2.475976    2.325660    0.125948
     21          1           0       -2.480100    1.187389    1.482172
     22          1           0       -0.870913   -0.903212    0.852432
     23          1           0       -0.143495    0.243983    1.991933
     24          1           0        1.058253   -2.458833    0.805335
     25          1           0        3.398831   -2.912651    0.100895
     26          1           0        4.824498   -1.042075   -0.715607
     27          1           0        3.896109    1.251240   -0.864183
     28          1           0        1.938993    2.869957   -0.525514
     29          1           0       -0.511710    3.064456   -0.355478
 ---------------------------------------------------------------------

 SCF Done:  E(UB3LYP) =  -596.456525569     A.U. after   33 cycles
 SCF Done:  E(UB3LYP) =  -596.456525569     a.u. after    1 cycles

 The electronic state is 2-A.
 Alpha  occ. eigenvalues --  -19.02692 -14.22775 -10.11345 -10.11007 -10.10131
 Alpha  occ. eigenvalues --  -10.09618 -10.09350 -10.07127 -10.07086 -10.07048
 Alpha  occ. eigenvalues --  -10.06827 -10.06596 -10.06459 -10.04583  -0.94079
 Alpha  occ. eigenvalues --   -0.84912  -0.75426  -0.68863  -0.66668  -0.64887
 Alpha  occ. eigenvalues --   -0.62341  -0.58667  -0.54961  -0.52009  -0.50172
 Alpha  occ. eigenvalues --   -0.49317  -0.43079  -0.41832  -0.40700  -0.38973
 Alpha  occ. eigenvalues --   -0.37980  -0.36533  -0.35385  -0.34484  -0.33502
 Alpha  occ. eigenvalues --   -0.33347  -0.31091  -0.30669  -0.29004  -0.28478
 Alpha  occ. eigenvalues --   -0.27637  -0.27026  -0.26021  -0.24193  -0.23331
 Alpha  occ. eigenvalues --   -0.22372  -0.21298  -0.16486  -0.15984  -0.14748
 Alpha  occ. eigenvalues --   -0.07921   0.04610
 Alpha virt. eigenvalues --    0.06661   0.06961   0.07343   0.08399   0.08532
 Alpha virt. eigenvalues --    0.08688   0.09387   0.10211   0.10278   0.10691
 Alpha virt. eigenvalues --    0.11698   0.12198   0.12783   0.13214   0.14123

  Beta  occ. eigenvalues --  -19.02680 -14.22782 -10.11314 -10.10964 -10.10105
  Beta  occ. eigenvalues --  -10.09604 -10.09240 -10.07088 -10.07076 -10.07013
  Beta  occ. eigenvalues --  -10.06830 -10.06576 -10.06381 -10.04576  -0.94061
  Beta  occ. eigenvalues --   -0.84861  -0.75343  -0.68769  -0.66583  -0.64797
  Beta  occ. eigenvalues --   -0.62243  -0.58597  -0.54896  -0.51863  -0.50082
  Beta  occ. eigenvalues --   -0.49268  -0.42987  -0.41778  -0.40651  -0.38903
  Beta  occ. eigenvalues --   -0.37920  -0.36485  -0.35323  -0.34429  -0.33446
  Beta  occ. eigenvalues --   -0.33301  -0.31051  -0.30616  -0.28959  -0.28432
  Beta  occ. eigenvalues --   -0.27558  -0.26975  -0.25828  -0.24118  -0.23283
  Beta  occ. eigenvalues --   -0.22290  -0.21040  -0.16430  -0.15691  -0.14583
  Beta  occ. eigenvalues --   -0.07728
  Beta virt. eigenvalues --    0.06772   0.07381   0.07610   0.07942   0.08610
  Beta virt. eigenvalues --    0.08848   0.09145   0.09670   0.10592   0.10767
  Beta virt. eigenvalues --    0.11096   0.12044   0.12477   0.13107   0.13445

 Mulliken charges and spin densities:
               1          2
     1  C    0.735018  -1.005502
     2  O   -0.238564   0.086366
     3  C    0.485071  -0.643735
     4  C    0.157124  -0.541781
     5  N    0.329454   0.112229
     6  C   -1.138059  -0.028193
     7  C    0.713086   0.020357
     8  C   -0.790095   0.062566
     9  C   -0.064417  -0.169242
    10  C   -0.176954  -0.086113
    11  C   -0.304651  -0.035758
    12  C    0.474014  -0.001400
    13  C    0.976723  -0.709716
    14  C   -0.433048   0.107772
    15  H   -0.426590   0.561649
    16  H   -0.379435   0.511212
    17  H   -0.161678   0.291891
    18  H    0.073513   0.070034
    19  H   -0.394393   0.548416
    20  H   -0.687152   0.838492
    21  H   -0.091761   0.250682
    22  H    0.479119  -0.241214
    23  H   -0.028005   0.147121
    24  H   -0.035887   0.161511
    25  H    0.080121   0.043870
    26  H    0.083904   0.040911
    27  H    0.082031   0.024353
    28  H   -0.011473   0.159746
    29  H   -0.307012   0.423476
 Sum of Mulliken charges =  -1.00000   1.00000

 Dipole moment (field-independent basis, Debye):
    X=              7.7451    Y=             -1.5270    Z=              0.1865  Tot=              7.8964
 Quadrupole moment (field-independent basis, Debye-Ang):
   XX=           -165.7678   YY=           -129.1246   ZZ=           -108.9095
   XY=              1.2092   XZ=             -2.9531   YZ=             -3.2250

 Summary of Natural Population Analysis:

                                       Natural Population
                Natural  -----------------------------------------------
    Atom  No    Charge         Core      Valence    Rydberg      Total
 -----------------------------------------------------------------------
      C    1   -0.09589      0.99962     2.08710    0.00917     3.09589
      O    2   -0.30213      0.99988     3.29197    0.01028     4.30213
      C    3   -0.00987      0.99958     1.99783    0.01246     3.00987
      C    4   -0.08862      0.99960     2.07555    0.01346     3.08862
      N    5   -0.24750      0.99966     2.73623    0.01160     3.74750
      C    6   -0.08585      0.99958     2.07662    0.00965     3.08585
      C    7   -0.01272      0.99948     2.00451    0.00874     3.01272
      C    8   -0.10146      0.99952     2.09263    0.00930     3.10146
      C    9   -0.10314      0.99957     2.09276    0.01081     3.10314
      C   10   -0.10863      0.99957     2.09907    0.00999     3.10863
      C   11   -0.09822      0.99953     2.09032    0.00837     3.09822
      C   12   -0.01638      0.99947     2.00821    0.00869     3.01638
      C   13   -0.16660      0.99954     2.15638    0.01069     3.16660
      C   14    0.05506      0.99953     1.93328    0.01213     2.94494
      H   15    0.08102      0.00000     0.41667    0.00231     0.41898
      H   16    0.08992      0.00000     0.40880    0.00128     0.41008
      H   17    0.07815      0.00000     0.42034    0.00151     0.42185
      H   18    0.08057      0.00000     0.41766    0.00178     0.41943
      H   19    0.08375      0.00000     0.41307    0.00318     0.41625
      H   20    0.10384      0.00000     0.39322    0.00294     0.39616
      H   21    0.09133      0.00000     0.40650    0.00217     0.40867
      H   22    0.11312      0.00000     0.38443    0.00245     0.38688
      H   23    0.08263      0.00000     0.41577    0.00160     0.41737
      H   24    0.09842      0.00000     0.40045    0.00113     0.40158
      H   25    0.09507      0.00000     0.40413    0.00080     0.40493
      H   26    0.09484      0.00000     0.40435    0.00081     0.40516
      H   27    0.09411      0.00000     0.40456    0.00133     0.40589
      H   28    0.09991      0.00000     0.39881    0.00128     0.40009
      H   29    0.09527      0.00000     0.40334    0.00139     0.40473
 =======================================================================
   * Total *    0.00000     13.99413    36.83456    0.17131    51.00000

 Normal termination of Gaussian 16 at Thu Dec 10 09:56:17 2020.
