 Gaussian 16, Revision A.03,

 -----------------------------------------------------------
 # opt freq B3LYP/6-31G(d) empiricaldispersion=gd3bj scf=xqc
 -----------------------------------------------------------

 ------------------------------
 CID_65720688_JID_2486_neutraal
 ------------------------------
 Symbolic Z-matrix:
 Charge =  0 Multiplicity = 1

 SCF Done:  E(RB3LYP) =  -896.206412472     A.U. after   15 cycles
 SCF Done:  E(RB3LYP) =  -896.210076811     A.U. after   12 cycles
 SCF Done:  E(RB3LYP) =  -896.210692492     A.U. after   12 cycles
 SCF Done:  E(RB3LYP) =  -896.210930992     A.U. after   12 cycles
 SCF Done:  E(RB3LYP) =  -896.211181724     A.U. after   11 cycles
 SCF Done:  E(RB3LYP) =  -896.211420700     A.U. after   11 cycles
 SCF Done:  E(RB3LYP) =  -896.211834346     A.U. after   13 cycles
 SCF Done:  E(RB3LYP) =  -896.212205455     A.U. after   12 cycles
 SCF Done:  E(RB3LYP) =  -896.212467332     A.U. after   13 cycles
 SCF Done:  E(RB3LYP) =  -896.212417457     A.U. after   12 cycles
 SCF Done:  E(RB3LYP) =  -896.212752291     A.U. after    9 cycles
 SCF Done:  E(RB3LYP) =  -896.212755579     A.U. after    9 cycles
 SCF Done:  E(RB3LYP) =  -896.212756547     A.U. after    8 cycles
 SCF Done:  E(RB3LYP) =  -896.212756796     A.U. after    7 cycles
 SCF Done:  E(RB3LYP) =  -896.212756829     A.U. after    6 cycles
 Optimization completed.
    -- Stationary point found.
 Normal termination of Gaussian 16 at Wed Dec  9 17:30:10 2020.

 --------------------------------------------------------------------
 #N Geom=AllCheck Guess=TCheck SCRF=Check GenChk RB3LYP/6-31G(d) Freq
 --------------------------------------------------------------------

 Structure from the checkpoint file:  "JID_2486.chk"
 ------------------------------
 CID_65720688_JID_2486_neutraal
 ------------------------------
 Charge =  0 Multiplicity = 1

 SCF Done:  E(RB3LYP) =  -896.212756829     A.U. after    1 cycles

  Exact polarizability: 138.280   2.224 121.600 -12.769   2.222  84.018
 Approx polarizability: 190.892  12.251 199.228 -23.708   2.752 129.207

                      1                      2                      3
                      A                      A                      A
 Frequencies --     23.7078                35.1916                55.5205
 Red. masses --      4.8290                 5.0480                 3.7773
 Frc consts  --      0.0016                 0.0037                 0.0069
 IR Inten    --      0.3857                 0.4827                 1.1926

                      4                      5                      6
                      A                      A                      A
 Frequencies --     83.3936               104.2411               119.8222
 Red. masses --      1.3183                 1.9174                 3.5942
 Frc consts  --      0.0054                 0.0123                 0.0304
 IR Inten    --      0.3160                 2.2739                 3.8272

                      7                      8                      9
                      A                      A                      A
 Frequencies --    184.5233               191.7810               236.5815
 Red. masses --      3.8921                 3.6915                 1.6537
 Frc consts  --      0.0781                 0.0800                 0.0545
 IR Inten    --      4.0795                 2.7146                52.8869

                     10                     11                     12
                      A                      A                      A
 Frequencies --    273.5744               297.2602               310.5062
 Red. masses --      2.6857                 1.6620                 2.4947
 Frc consts  --      0.1184                 0.0865                 0.1417
 IR Inten    --      2.5970                34.3186                33.2835

                     13                     14                     15
                      A                      A                      A
 Frequencies --    348.4168               419.4488               448.4657
 Red. masses --      2.2536                 3.7709                 2.1450
 Frc consts  --      0.1612                 0.3909                 0.2542
 IR Inten    --      1.5433                 3.6336                 6.6779

                     16                     17                     18
                      A                      A                      A
 Frequencies --    512.6433               541.4577               575.4700
 Red. masses --      5.2187                 3.1299                 4.3849
 Frc consts  --      0.8081                 0.5406                 0.8556
 IR Inten    --      3.1498                 0.4177                 4.4710

                     19                     20                     21
                      A                      A                      A
 Frequencies --    652.8652               674.3814               714.6702
 Red. masses --      5.1697                 6.3069                 4.7552
 Frc consts  --      1.2983                 1.6900                 1.4310
 IR Inten    --      1.7675                 1.7552                12.8847

                     22                     23                     24
                      A                      A                      A
 Frequencies --    736.9656               785.6884               803.6651
 Red. masses --      1.2457                 1.6994                 1.2356
 Frc consts  --      0.3986                 0.6181                 0.4702
 IR Inten    --     61.5506                19.3974                17.5296

                     25                     26                     27
                      A                      A                      A
 Frequencies --    845.4796               851.6955               928.0398
 Red. masses --      4.2529                 2.8112                 2.7462
 Frc consts  --      1.7912                 1.2014                 1.3935
 IR Inten    --     18.1389                14.2169                 7.0617

                     28                     29                     30
                      A                      A                      A
 Frequencies --    960.6030               978.3406              1000.6564
 Red. masses --      2.1316                 1.7892                 1.5376
 Frc consts  --      1.1589                 1.0090                 0.9071
 IR Inten    --     28.6953                13.9067                14.5559

                     31                     32                     33
                      A                      A                      A
 Frequencies --   1066.9645              1075.0375              1082.4951
 Red. masses --      2.2387                 1.5522                 2.3458
 Frc consts  --      1.5015                 1.0569                 1.6195
 IR Inten    --     11.2277                 3.0033                 8.6876

                     34                     35                     36
                      A                      A                      A
 Frequencies --   1094.8306              1118.1826              1156.8298
 Red. masses --      2.3405                 2.3422                 2.7952
 Frc consts  --      1.6529                 1.7255                 2.2039
 IR Inten    --     81.8594                20.4599                52.9186

                     37                     38                     39
                      A                      A                      A
 Frequencies --   1198.3616              1203.0517              1234.3746
 Red. masses --      2.8196                 1.2758                 1.2247
 Frc consts  --      2.3857                 1.0880                 1.0995
 IR Inten    --      0.6484                34.0645                 7.9687

                     40                     41                     42
                      A                      A                      A
 Frequencies --   1285.1772              1290.3205              1334.9225
 Red. masses --      1.5795                 1.2926                 1.2379
 Frc consts  --      1.5371                 1.2680                 1.2997
 IR Inten    --      6.2377                 3.3612                11.1706

                     43                     44                     45
                      A                      A                      A
 Frequencies --   1358.3681              1387.7248              1398.0945
 Red. masses --      3.1531                 1.3617                 1.4022
 Frc consts  --      3.4278                 1.5450                 1.6148
 IR Inten    --      7.5679                15.8101                 1.1044

                     46                     47                     48
                      A                      A                      A
 Frequencies --   1409.9558              1412.7462              1440.1948
 Red. masses --      1.3091                 1.2660                 1.2998
 Frc consts  --      1.5333                 1.4887                 1.5884
 IR Inten    --     34.5764                16.3678                26.8139

                     49                     50                     51
                      A                      A                      A
 Frequencies --   1442.5584              1499.3918              1503.6837
 Red. masses --      1.3074                 2.8861                 1.2802
 Frc consts  --      1.6030                 3.8229                 1.7054
 IR Inten    --      5.9785                19.6216                20.9989

                     52                     53                     54
                      A                      A                      A
 Frequencies --   1507.2416              1513.0211              1515.9389
 Red. masses --      1.1176                 1.1176                 1.1549
 Frc consts  --      1.4959                 1.5074                 1.5637
 IR Inten    --      6.5020                11.6444                18.0007

                     55                     56                     57
                      A                      A                      A
 Frequencies --   1521.0362              1536.1862              1537.7985
 Red. masses --      1.1695                 1.0820                 1.0874
 Frc consts  --      1.5942                 1.5044                 1.5152
 IR Inten    --     15.7621                 8.9096                 2.7522

                     58                     59                     60
                      A                      A                      A
 Frequencies --   1614.0372              2978.9691              2984.5379
 Red. masses --      5.8725                 1.0682                 1.0729
 Frc consts  --      9.0137                 5.5849                 5.6309
 IR Inten    --     20.3405                40.6812                67.4807

                     61                     62                     63
                      A                      A                      A
 Frequencies --   3030.6471              3042.7349              3045.5835
 Red. masses --      1.0902                 1.0612                 1.0639
 Frc consts  --      5.8997                 5.7886                 5.8143
 IR Inten    --     25.7937                37.2997                12.6426

                     64                     65                     66
                      A                      A                      A
 Frequencies --   3054.1650              3081.6679              3090.9347
 Red. masses --      1.0390                 1.0999                 1.1036
 Frc consts  --      5.7101                 6.1541                 6.2121
 IR Inten    --     25.8794                32.0172                61.2368

                     67                     68                     69
                      A                      A                      A
 Frequencies --   3108.8783              3111.3373              3142.0432
 Red. masses --      1.0916                 1.0981                 1.1018
 Frc consts  --      6.2159                 6.2629                 6.4089
 IR Inten    --     40.7095                14.8086                19.3647

                     70                     71                     72
                      A                      A                      A
 Frequencies --   3237.5866              3495.8545              3754.2127
 Red. masses --      1.0935                 1.0740                 1.0661
 Frc consts  --      6.7534                 7.7334                 8.8531
 IR Inten    --      3.3445                 0.4032                 6.6326

 - Thermochemistry -
 -------------------
 Temperature   298.150 Kelvin.  Pressure   1.00000 Atm.
 Atom     1 has atomic number  6 and mass  12.00000

 Molecular mass:   186.08268 amu.
 Principal axes and moments of inertia in atomic units:
                           1         2         3
     Eigenvalues --  1189.559164932.334845476.11363
           X            0.99995   0.00797  -0.00525
           Y           -0.00790   0.99990   0.01213
           Z            0.00534  -0.01209   0.99991
 This molecule is an asymmetric top.
 Rotational symmetry number  1.
 Warning -- assumption of classical behavior for rotation
           may cause significant error
 Rotational temperatures (Kelvin)      0.07281     0.01756     0.01582
 Rotational constants (GHZ):           1.51715     0.36590     0.32957
 Zero-point vibrational energy     577752.9 (Joules/Mol)
                                  138.08625 (Kcal/Mol)
 Warning -- explicit consideration of  18 degrees of freedom as
           vibrations may cause significant error
 Vibrational temperatures:     34.11    50.63    79.88   119.98   149.98
          (Kelvin)            172.40   265.49   275.93   340.39   393.61
                              427.69   446.75   501.29   603.49   645.24
                              737.58   779.04   827.97   939.33   970.28
                             1028.25  1060.33  1130.43  1156.29  1216.46
                             1225.40  1335.24  1382.09  1407.61  1439.72
                             1535.12  1546.74  1557.47  1575.22  1608.82
                             1664.42  1724.18  1730.92  1775.99  1849.08
                             1856.48  1920.66  1954.39  1996.63  2011.55
                             2028.61  2032.63  2072.12  2075.52  2157.29
                             2163.47  2168.58  2176.90  2181.10  2188.43
                             2210.23  2212.55  2322.24  4286.07  4294.08
                             4360.43  4377.82  4381.92  4394.26  4433.83
                             4447.17  4472.98  4476.52  4520.70  4658.17
                             5029.75  5401.47

 Zero-point correction=                           0.220054 (Hartree/Particle)
 Thermal correction to Energy=                    0.233356
 Thermal correction to Enthalpy=                  0.234300
 Thermal correction to Gibbs Free Energy=         0.177947
 Sum of electronic and zero-point Energies=           -895.992702
 Sum of electronic and thermal Energies=              -895.979401
 Sum of electronic and thermal Enthalpies=            -895.978457
 Sum of electronic and thermal Free Energies=         -896.034810

                     E (Thermal)             CV                S
                      KCal/Mol        Cal/Mol-Kelvin    Cal/Mol-Kelvin
 Total                  146.433             47.691            118.605
 Electronic               0.000              0.000              0.000
 Translational            0.889              2.981             41.569
 Rotational               0.889              2.981             31.841
 Vibrational            144.656             41.729             45.194
 Vibration     1          0.593              1.985              6.297
 Vibration     2          0.594              1.982              5.513
 Vibration     3          0.596              1.975              4.610
 Vibration     4          0.600              1.961              3.809
 Vibration     5          0.605              1.946              3.373
 Vibration     6          0.609              1.933              3.103
 Vibration     7          0.631              1.861              2.282
 Vibration     8          0.634              1.851              2.211
 Vibration     9          0.655              1.785              1.828
 Vibration    10          0.676              1.722              1.574
 Vibration    11          0.691              1.679              1.432
 Vibration    12          0.699              1.654              1.360
 Vibration    13          0.726              1.578              1.173
 Vibration    14          0.782              1.428              0.894
 Vibration    15          0.807              1.364              0.800
 Vibration    16          0.868              1.222              0.627
 Vibration    17          0.897              1.158              0.562
 Vibration    18          0.932              1.084              0.494

 Optimization completed.
    -- Stationary point found.
 Normal termination of Gaussian 16 at Wed Dec  9 17:36:13 2020.

 ----------------------------------------------------------------------
 # B3LYP/6-311++G(d,p) empiricaldispersion=gd3bj scf=xqc pop=npa geom=c
 heck
 ----------------------------------------------------------------------

 --------------------------------------
 CID_65720688_JID_2486_Energie_neutraal
 --------------------------------------
 Structure from the checkpoint file:  "JID_2486.chk"
 Charge =  0 Multiplicity = 1

 SCF Done:  E(RB3LYP) =  -896.391878330     A.U. after   15 cycles
 Normal termination of Gaussian 16 at Wed Dec  9 17:39:22 2020.

 ----------------------------------------------------------------------
 # B3LYP/6-311++G(d,p) empiricaldispersion=gd3bj scf=xqc pop=npa geom=c
 heck
 ----------------------------------------------------------------------

 ------------------------------------
 CID_65720688_JID_2486_Energie_kation
 ------------------------------------
 Structure from the checkpoint file:  "JID_2486.chk"
 Charge =  1 Multiplicity = 2

 SCF Done:  E(UB3LYP) =  -896.084168594     A.U. after   28 cycles
 Normal termination of Gaussian 16 at Wed Dec  9 17:49:51 2020.
 Gaussian 16:  ES64L-G16RevA.03 25-Dec-2016

 ----------------------------------------------------------------------
 # B3LYP/6-311++G(d,p) empiricaldispersion=gd3bj scf=xqc pop=npa geom=c
 heck
 ----------------------------------------------------------------------

 -----------------------------------
 CID_65720688_JID_2486_Energie_anion
 -----------------------------------
 Structure from the checkpoint file:  "JID_2486.chk"
 Charge = -1 Multiplicity = 2

                         Standard orientation:
 ---------------------------------------------------------------------
 Center     Atomic      Atomic             Coordinates (Angstroms)
 Number     Number       Type             X           Y           Z
 ---------------------------------------------------------------------
      1          6           0        2.048286    2.489951    0.113697
      2          6           0        2.208974    1.005432   -0.033728
      3          6           0        1.284670    0.042404    0.284238
      4         16           0        1.938655   -1.544159   -0.055139
      5          6           0        3.408487   -0.770014   -0.586125
      6          7           0        3.412769    0.528294   -0.527945
      7          6           0       -0.088688    0.174432    0.866849
      8          7           0       -0.985591   -0.828339    0.297006
      9          6           0       -2.317037   -0.881818    0.899380
     10          6           0       -3.180650    0.389350    0.797578
     11          6           0       -3.471355    0.821190   -0.640385
     12          8           0       -4.245696   -0.129946   -1.363665
     13          1           0        2.664246    2.868400    0.938546
     14          1           0        2.382205    2.995745   -0.798034
     15          1           0        1.010855    2.772509    0.311537
     16          1           0        4.241509   -1.357486   -0.955580
     17          1           0       -0.061591   -0.002074    1.951990
     18          1           0       -0.428388    1.215400    0.734313
     19          1           0       -1.043070   -0.691476   -0.710381
     20          1           0       -2.851076   -1.723117    0.438919
     21          1           0       -2.188893   -1.148030    1.955761
     22          1           0       -4.134426    0.206512    1.307865
     23          1           0       -2.691536    1.219654    1.324341
     24          1           0       -4.064519    1.740373   -0.640797
     25          1           0       -2.529711    1.048122   -1.168668
     26          1           0       -3.704878   -0.923674   -1.490721
 ---------------------------------------------------------------------

 SCF Done:  E(UB3LYP) =  -896.381869052     A.U. after   33 cycles
 SCF Done:  E(UB3LYP) =  -896.381869053     a.u. after    1 cycles

 The electronic state is 2-A.
 Alpha  occ. eigenvalues --  -88.76750 -19.01948 -14.20230 -14.19829 -10.11677
 Alpha  occ. eigenvalues --  -10.10987 -10.10081 -10.09736 -10.09230 -10.09069
 Alpha  occ. eigenvalues --  -10.06631 -10.06130  -7.85379  -5.81641  -5.81293
 Alpha  occ. eigenvalues --   -5.81011  -0.91998  -0.85285  -0.80903  -0.69721
 Alpha  occ. eigenvalues --   -0.67143  -0.65815  -0.60300  -0.57056  -0.54832
 Alpha  occ. eigenvalues --   -0.48709  -0.47335  -0.43484  -0.40944  -0.39662
 Alpha  occ. eigenvalues --   -0.37758  -0.35122  -0.34557  -0.33757  -0.32901
 Alpha  occ. eigenvalues --   -0.32027  -0.30221  -0.28597  -0.28052  -0.27941
 Alpha  occ. eigenvalues --   -0.27519  -0.25958  -0.25150  -0.24526  -0.22649
 Alpha  occ. eigenvalues --   -0.17524  -0.17148  -0.16907  -0.13342  -0.12573
 Alpha  occ. eigenvalues --    0.04534
 Alpha virt. eigenvalues --    0.06950   0.07042   0.07710   0.08073   0.08625
 Alpha virt. eigenvalues --    0.09924   0.10490   0.10832   0.11267   0.12037
 Alpha virt. eigenvalues --    0.12437   0.12649   0.13155   0.13771   0.14154

  Beta  occ. eigenvalues --  -88.76733 -19.01911 -14.20210 -14.19800 -10.11545
  Beta  occ. eigenvalues --  -10.10954 -10.10053 -10.09722 -10.09170 -10.09040
  Beta  occ. eigenvalues --  -10.06608 -10.06111  -7.85362  -5.81633  -5.81285
  Beta  occ. eigenvalues --   -5.80956  -0.91917  -0.85176  -0.80845  -0.69624
  Beta  occ. eigenvalues --   -0.67039  -0.65744  -0.60217  -0.56943  -0.54708
  Beta  occ. eigenvalues --   -0.48604  -0.47201  -0.43394  -0.40855  -0.39583
  Beta  occ. eigenvalues --   -0.37667  -0.35037  -0.34487  -0.33658  -0.32795
  Beta  occ. eigenvalues --   -0.31964  -0.30152  -0.28533  -0.27963  -0.27863
  Beta  occ. eigenvalues --   -0.27304  -0.25896  -0.25082  -0.24460  -0.22606
  Beta  occ. eigenvalues --   -0.17450  -0.16934  -0.16822  -0.13018  -0.12415
  Beta virt. eigenvalues --    0.07039   0.07811   0.07888   0.07950   0.08574
  Beta virt. eigenvalues --    0.09077   0.10311   0.10864   0.11208   0.11573
  Beta virt. eigenvalues --    0.12203   0.12541   0.12850   0.13382   0.13956

 Mulliken charges and spin densities:
               1          2
     1  C    0.002806  -0.841368
     2  C   -3.057166   2.025301
     3  C    2.889470  -0.718540
     4  S    0.097780  -0.464608
     5  C   -0.114467   0.387847
     6  N    0.010307   0.010751
     7  C   -0.320390  -1.098816
     8  N   -0.002053  -0.020958
     9  C    0.583382  -0.910216
    10  C   -0.886814   0.744938
    11  C    1.365408  -1.818416
    12  O   -0.257268   0.010753
    13  H    0.080662   0.071954
    14  H    0.016017   0.133039
    15  H   -0.997271   1.117913
    16  H    0.174734   0.045395
    17  H   -0.674901   0.853775
    18  H    1.976418  -1.826325
    19  H   -0.092816   0.302475
    20  H   -0.182622   0.340366
    21  H   -0.210961   0.359533
    22  H   -0.161931   0.333061
    23  H   -0.671214   0.812786
    24  H   -0.234352   0.402038
    25  H   -0.304062   0.473003
    26  H   -0.028696   0.274319
 Sum of Mulliken charges =  -1.00000   1.00000

 Dipole moment (field-independent basis, Debye):
    X=              4.1993    Y=             -2.6078    Z=             -0.1954  Tot=              4.9470
 Quadrupole moment (field-independent basis, Debye-Ang):
   XX=           -149.9992   YY=           -115.2206   ZZ=           -114.0426
   XY=             -2.3504   XZ=             -2.7260   YZ=              2.5426

 Summary of Natural Population Analysis:

                                       Natural Population
                Natural  -----------------------------------------------
    Atom  No    Charge         Core      Valence    Rydberg      Total
 -----------------------------------------------------------------------
      C    1   -0.29397      0.99963     2.28799    0.00635     3.29397
      C    2    0.05830      0.99942     1.92749    0.01479     2.94170
      C    3   -0.10258      0.99943     2.08936    0.01379     3.10258
      S    4    0.19694      4.99943     2.78382    0.01981     7.80306
      C    5   -0.03842      0.99966     2.02191    0.01685     3.03842
      N    6   -0.24583      0.99967     2.73478    0.01137     3.74583
      C    7   -0.10223      0.99956     2.09009    0.01258     3.10223
      N    8   -0.33961      0.99975     2.82715    0.01271     3.83961
      C    9   -0.08731      0.99962     2.07649    0.01120     3.08731
      C   10   -0.21370      0.99963     2.20694    0.00713     3.21370
      C   11   -0.01063      0.99960     1.99861    0.01242     3.01063
      O   12   -0.37061      0.99990     3.36363    0.00708     4.37061
      H   13    0.10293      0.00000     0.39601    0.00106     0.39707
      H   14    0.10606      0.00000     0.39265    0.00129     0.39394
      H   15    0.10447      0.00000     0.39405    0.00149     0.39553
      H   16    0.09228      0.00000     0.40666    0.00107     0.40772
      H   17    0.10179      0.00000     0.39601    0.00220     0.39821
      H   18    0.09173      0.00000     0.40583    0.00245     0.40827
      H   19    0.17367      0.00000     0.32279    0.00353     0.32633
      H   20    0.09068      0.00000     0.40775    0.00156     0.40932
      H   21    0.09617      0.00000     0.40221    0.00163     0.40383
      H   22    0.09965      0.00000     0.39887    0.00149     0.40035
      H   23    0.10025      0.00000     0.39770    0.00205     0.39975
      H   24    0.08689      0.00000     0.41142    0.00169     0.41311
      H   25    0.07582      0.00000     0.42197    0.00220     0.42418
      H   26    0.22725      0.00000     0.26889    0.00386     0.27275
 =======================================================================
   * Total *    0.00000     15.99530    33.83105    0.17365    50.00000

 Normal termination of Gaussian 16 at Wed Dec  9 18:00:09 2020.
