 Gaussian 16, Revision A.03,

 -----------------------------------------------------------
 # opt freq B3LYP/6-31G(d) empiricaldispersion=gd3bj scf=xqc
 -----------------------------------------------------------

 -------------------------------
 CID_142621325_JID_7480_neutraal
 -------------------------------
 Symbolic Z-matrix:
 Charge =  0 Multiplicity = 1

 SCF Done:  E(RB3LYP) =  -773.532849431     A.U. after   15 cycles
 SCF Done:  E(RB3LYP) =  -773.539465578     A.U. after   14 cycles
 SCF Done:  E(RB3LYP) =  -773.542394257     A.U. after   15 cycles
 SCF Done:  E(RB3LYP) =  -773.546596880     A.U. after   16 cycles
 SCF Done:  E(RB3LYP) =  -773.549883225     A.U. after   16 cycles
 SCF Done:  E(RB3LYP) =  -773.551000860     A.U. after   14 cycles
 SCF Done:  E(RB3LYP) =  -773.551726307     A.U. after   13 cycles
 SCF Done:  E(RB3LYP) =  -773.551849446     A.U. after   13 cycles
 SCF Done:  E(RB3LYP) =  -773.551894426     A.U. after   11 cycles
 SCF Done:  E(RB3LYP) =  -773.551909999     A.U. after   10 cycles
 SCF Done:  E(RB3LYP) =  -773.551923261     A.U. after   11 cycles
 SCF Done:  E(RB3LYP) =  -773.551927420     A.U. after   11 cycles
 SCF Done:  E(RB3LYP) =  -773.551928660     A.U. after   10 cycles
 SCF Done:  E(RB3LYP) =  -773.551928792     A.U. after    8 cycles
 SCF Done:  E(RB3LYP) =  -773.551928817     A.U. after    7 cycles
 Optimization completed.
    -- Stationary point found.
 Normal termination of Gaussian 16 at Fri Dec 11 12:08:34 2020.

 --------------------------------------------------------------------
 #N Geom=AllCheck Guess=TCheck SCRF=Check GenChk RB3LYP/6-31G(d) Freq
 --------------------------------------------------------------------

 Structure from the checkpoint file:  "JID_7480.chk"
 -------------------------------
 CID_142621325_JID_7480_neutraal
 -------------------------------
 Charge =  0 Multiplicity = 1

 SCF Done:  E(RB3LYP) =  -773.551928817     A.U. after    1 cycles

  Exact polarizability: 196.116  -4.271 125.635  -9.584 -13.361 122.588
 Approx polarizability: 288.685 -10.188 220.560 -36.358 -39.518 235.191

                      1                      2                      3
                      A                      A                      A
 Frequencies --     16.2654                25.3194                49.1922
 Red. masses --      4.3377                 6.5086                 7.2081
 Frc consts  --      0.0007                 0.0025                 0.0103
 IR Inten    --      0.0406                 0.0228                 0.0734

                      4                      5                      6
                      A                      A                      A
 Frequencies --     63.9709               115.7672               117.7223
 Red. masses --      6.0984                 9.2273                 8.3501
 Frc consts  --      0.0147                 0.0729                 0.0682
 IR Inten    --      0.0284                 0.1800                 0.5166

                      7                      8                      9
                      A                      A                      A
 Frequencies --    168.6947               195.0900               289.7235
 Red. masses --      5.7142                 6.0937                 5.9625
 Frc consts  --      0.0958                 0.1366                 0.2949
 IR Inten    --      0.8403                 4.2164                 5.4151

                     10                     11                     12
                      A                      A                      A
 Frequencies --    353.8956               382.4951               388.0636
 Red. masses --      3.1965                 4.4708                 7.1397
 Frc consts  --      0.2359                 0.3854                 0.6335
 IR Inten    --      5.8968                 0.7722                 3.1311

                     13                     14                     15
                      A                      A                      A
 Frequencies --    414.4164               430.5012               435.6954
 Red. masses --      2.9624                 4.4146                 6.3819
 Frc consts  --      0.2998                 0.4820                 0.7138
 IR Inten    --      0.1264                 0.1230                 0.8453

                     16                     17                     18
                      A                      A                      A
 Frequencies --    488.2105               526.8105               534.5586
 Red. masses --      4.4053                 4.5284                 4.6072
 Frc consts  --      0.6186                 0.7405                 0.7757
 IR Inten    --      1.7132                 5.7029                 2.7691

                     19                     20                     21
                      A                      A                      A
 Frequencies --    547.1893               632.7435               636.8191
 Red. masses --      5.6094                 5.1750                 6.2082
 Frc consts  --      0.9896                 1.2207                 1.4834
 IR Inten    --     12.7126                11.2302                 0.4862

                     22                     23                     24
                      A                      A                      A
 Frequencies --    656.5561               685.5131               711.2722
 Red. masses --      8.2467                 7.7324                 1.8494
 Frc consts  --      2.0945                 2.1409                 0.5512
 IR Inten    --      9.9197                33.8513                30.4900

                     25                     26                     27
                      A                      A                      A
 Frequencies --    761.2765               791.5264               805.1327
 Red. masses --      2.1156                 5.9866                11.1853
 Frc consts  --      0.7224                 2.2098                 4.2720
 IR Inten    --     38.7067                11.6134                15.6125

                     28                     29                     30
                      A                      A                      A
 Frequencies --    836.4361               858.2738               878.5268
 Red. masses --      3.8439                 1.2519                 7.1338
 Frc consts  --      1.5845                 0.5433                 3.2440
 IR Inten    --      5.6741                 0.2936                 1.1758

                     31                     32                     33
                      A                      A                      A
 Frequencies --    926.2009               948.0623               966.2199
 Red. masses --      1.4119                 1.5647                 1.3559
 Frc consts  --      0.7136                 0.8286                 0.7458
 IR Inten    --      6.6772                13.6147                 0.0696

                     34                     35                     36
                      A                      A                      A
 Frequencies --    975.7125               995.5345              1014.4289
 Red. masses --      1.3577                 1.2574                 2.0761
 Frc consts  --      0.7615                 0.7343                 1.2588
 IR Inten    --      0.1708                 0.8597                 5.6028

                     37                     38                     39
                      A                      A                      A
 Frequencies --   1024.4169              1037.8662              1057.6243
 Red. masses --      5.1862                 5.7500                 3.6884
 Frc consts  --      3.2067                 3.6492                 2.4308
 IR Inten    --      4.6448               116.5634                51.1950

                     40                     41                     42
                      A                      A                      A
 Frequencies --   1061.9751              1121.2367              1191.2136
 Red. masses --      2.5297                 1.5235                 4.0662
 Frc consts  --      1.6809                 1.1284                 3.3996
 IR Inten    --     22.3361                 2.9062                 6.0986

                     43                     44                     45
                      A                      A                      A
 Frequencies --   1194.5190              1214.4223              1240.0543
 Red. masses --      1.1014                 1.1315                 2.9185
 Frc consts  --      0.9259                 0.9832                 2.6441
 IR Inten    --      0.1376                 2.3966                 8.7728

                     46                     47                     48
                      A                      A                      A
 Frequencies --   1266.9447              1288.4211              1320.5680
 Red. masses --      4.0575                 1.6258                 1.5458
 Frc consts  --      3.8372                 1.5901                 1.5883
 IR Inten    --      7.8895                 8.4654                 9.3281

                     49                     50                     51
                      A                      A                      A
 Frequencies --   1355.4732              1368.3521              1374.6858
 Red. masses --      1.9393                 2.8160                 1.9844
 Frc consts  --      2.0993                 3.1065                 2.2095
 IR Inten    --    261.4396                11.6558               140.5842

                     52                     53                     54
                      A                      A                      A
 Frequencies --   1388.6385              1436.0630              1444.4644
 Red. masses --      2.3626                 2.3555                 3.1709
 Frc consts  --      2.6842                 2.8620                 3.8980
 IR Inten    --     50.5010                27.7809                 2.7256

                     55                     56                     57
                      A                      A                      A
 Frequencies --   1491.4602              1507.2427              1526.5680
 Red. masses --      2.2484                 2.1798                 1.3781
 Frc consts  --      2.9467                 2.9176                 1.8922
 IR Inten    --    482.1931                55.6023               271.3041

                     58                     59                     60
                      A                      A                      A
 Frequencies --   1550.0653              1592.1321              1650.5816
 Red. masses --      2.2167                 7.0867                 5.6233
 Frc consts  --      3.1380                10.5841                 9.0264
 IR Inten    --      7.8792                56.9816                 1.5068

                     61                     62                     63
                      A                      A                      A
 Frequencies --   1658.0495              1669.9748              2268.2769
 Red. masses --      6.0303                 5.5862                13.9777
 Frc consts  --      9.7676                 9.1789                42.3719
 IR Inten    --     69.9230                 0.1519               821.9669

                     64                     65                     66
                      A                      A                      A
 Frequencies --   3093.9702              3145.9065              3168.4127
 Red. masses --      1.0576                 1.1095                 1.0910
 Frc consts  --      5.9650                 6.4692                 6.4528
 IR Inten    --     40.1861                10.4641                14.1266

                     67                     68                     69
                      A                      A                      A
 Frequencies --   3182.3411              3189.0933              3191.5664
 Red. masses --      1.0848                 1.0875                 1.0922
 Frc consts  --      6.4729                 6.5168                 6.5547
 IR Inten    --      1.1862                 0.7783                12.1421

                     70                     71                     72
                      A                      A                      A
 Frequencies --   3197.5845              3205.1593              3212.8217
 Red. masses --      1.0912                 1.0943                 1.0980
 Frc consts  --      6.5738                 6.6238                 6.6779
 IR Inten    --     19.8470                34.5396                13.2948

 - Thermochemistry -
 -------------------
 Temperature   298.150 Kelvin.  Pressure   1.00000 Atm.
 Atom     1 has atomic number  6 and mass  12.00000

 Molecular mass:   227.08071 amu.
 Principal axes and moments of inertia in atomic units:
                           1         2         3
     Eigenvalues --  1722.908117974.226898533.18406
           X            0.99996   0.00823   0.00247
           Y           -0.00821   0.99993  -0.00797
           Z           -0.00254   0.00795   0.99997
 This molecule is an asymmetric top.
 Rotational symmetry number  1.
 Warning -- assumption of classical behavior for rotation
           may cause significant error
 Rotational temperatures (Kelvin)      0.05027     0.01086     0.01015
 Rotational constants (GHZ):           1.04750     0.22632     0.21150
 Zero-point vibrational energy     511475.1 (Joules/Mol)
                                  122.24549 (Kcal/Mol)
 Warning -- explicit consideration of  19 degrees of freedom as
           vibrations may cause significant error
 Vibrational temperatures:     23.40    36.43    70.78    92.04   166.56
          (Kelvin)            169.38   242.71   280.69   416.85   509.18
                              550.33   558.34   596.25   619.40   626.87
                              702.43   757.96   769.11   787.28   910.38
                              916.24   944.64   986.30  1023.36  1095.31
                             1138.83  1158.41  1203.44  1234.86  1264.00
                             1332.60  1364.05  1390.17  1403.83  1432.35
                             1459.54  1473.91  1493.26  1521.69  1527.95
                             1613.21  1713.89  1718.65  1747.28  1784.16
                             1822.85  1853.75  1900.00  1950.22  1968.75
                             1977.87  1997.94  2066.17  2078.26  2145.88
                             2168.59  2196.39  2230.20  2290.72  2374.82
                             2385.56  2402.72  3263.54  4451.53  4526.26
                             4558.64  4578.68  4588.39  4591.95  4600.61
                             4611.51  4622.53

 Zero-point correction=                           0.194811 (Hartree/Particle)
 Thermal correction to Energy=                    0.208437
 Thermal correction to Enthalpy=                  0.209381
 Thermal correction to Gibbs Free Energy=         0.151108
 Sum of electronic and zero-point Energies=           -773.357118
 Sum of electronic and thermal Energies=              -773.343492
 Sum of electronic and thermal Enthalpies=            -773.342547
 Sum of electronic and thermal Free Energies=         -773.400821

                     E (Thermal)             CV                S
                      KCal/Mol        Cal/Mol-Kelvin    Cal/Mol-Kelvin
 Total                  130.796             51.390            122.647
 Electronic               0.000              0.000              0.000
 Translational            0.889              2.981             42.163
 Rotational               0.889              2.981             33.127
 Vibrational            129.019             45.428             47.357
 Vibration     1          0.593              1.986              7.045
 Vibration     2          0.593              1.985              6.166
 Vibration     3          0.595              1.978              4.850
 Vibration     4          0.597              1.971              4.331
 Vibration     5          0.608              1.936              3.170
 Vibration     6          0.608              1.935              3.137
 Vibration     7          0.625              1.881              2.450
 Vibration     8          0.636              1.847              2.179
 Vibration     9          0.686              1.693              1.476
 Vibration    10          0.730              1.567              1.149
 Vibration    11          0.752              1.508              1.029
 Vibration    12          0.756              1.496              1.008
 Vibration    13          0.778              1.439              0.911
 Vibration    14          0.792              1.404              0.857
 Vibration    15          0.796              1.392              0.840
 Vibration    16          0.844              1.276              0.688
 Vibration    17          0.882              1.191              0.594
 Vibration    18          0.890              1.174              0.577
 Vibration    19          0.902              1.146              0.550

 Optimization completed.
    -- Stationary point found.
 Normal termination of Gaussian 16 at Fri Dec 11 12:17:59 2020.

 ----------------------------------------------------------------------
 # B3LYP/6-311++G(d,p) empiricaldispersion=gd3bj scf=xqc pop=npa geom=c
 heck
 ----------------------------------------------------------------------

 ---------------------------------------
 CID_142621325_JID_7480_Energie_neutraal
 ---------------------------------------
 Structure from the checkpoint file:  "JID_7480.chk"
 Charge =  0 Multiplicity = 1

 SCF Done:  E(RB3LYP) =  -773.753522518     A.U. after   16 cycles
 Normal termination of Gaussian 16 at Fri Dec 11 12:22:08 2020.

 ----------------------------------------------------------------------
 # B3LYP/6-311++G(d,p) empiricaldispersion=gd3bj scf=xqc pop=npa geom=c
 heck
 ----------------------------------------------------------------------

 -------------------------------------
 CID_142621325_JID_7480_Energie_kation
 -------------------------------------
 Structure from the checkpoint file:  "JID_7480.chk"
 Charge =  1 Multiplicity = 2

 SCF Done:  E(UB3LYP) =  -773.449075463     A.U. after   31 cycles
 Normal termination of Gaussian 16 at Fri Dec 11 12:33:27 2020.
 Gaussian 16:  ES64L-G16RevA.03 25-Dec-2016

 ----------------------------------------------------------------------
 # B3LYP/6-311++G(d,p) empiricaldispersion=gd3bj scf=xqc pop=npa geom=c
 heck
 ----------------------------------------------------------------------

 ------------------------------------
 CID_142621325_JID_7480_Energie_anion
 ------------------------------------
 Structure from the checkpoint file:  "JID_7480.chk"
 Charge = -1 Multiplicity = 2

                         Standard orientation:
 ---------------------------------------------------------------------
 Center     Atomic      Atomic             Coordinates (Angstroms)
 Number     Number       Type             X           Y           Z
 ---------------------------------------------------------------------
      1          6           0       -3.944717   -1.794941   -0.704398
      2          6           0       -3.762244   -0.680736   -1.527021
      3          6           0       -3.093465    0.441442   -1.042578
      4          6           0       -2.595152    0.459567    0.265511
      5          6           0       -2.770039   -0.662817    1.078505
      6          6           0       -3.448498   -1.783886    0.599325
      7          6           0       -1.875014    1.681593    0.776963
      8          8           0       -0.715634    2.001164   -0.025882
      9          6           0        0.367033    1.222401    0.111679
     10          7           0        1.344460    1.487446   -0.766100
     11          6           0        2.441558    0.746085   -0.661779
     12          6           0        2.581310   -0.261902    0.303082
     13          6           0        1.498453   -0.440078    1.165075
     14          7           0        0.392261    0.296976    1.077527
     15          7           0        3.709294   -1.095396    0.472733
     16          7           0        4.668366   -0.939855   -0.295326
     17          7           0        5.617688   -0.906807   -0.927379
     18          1           0       -4.469281   -2.668884   -1.080424
     19          1           0       -4.144551   -0.686061   -2.543915
     20          1           0       -2.945401    1.307958   -1.681627
     21          1           0       -2.359509   -0.659398    2.083934
     22          1           0       -3.580754   -2.650975    1.240409
     23          1           0       -2.494110    2.576780    0.680507
     24          1           0       -1.578585    1.557494    1.820661
     25          1           0        3.241063    0.956774   -1.371379
     26          1           0        1.536347   -1.199920    1.942523
 ---------------------------------------------------------------------

 SCF Done:  E(UB3LYP) =  -773.760425586     A.U. after   33 cycles
 SCF Done:  E(UB3LYP) =  -773.760425586     a.u. after    1 cycles

 The electronic state is 2-A.
 Alpha  occ. eigenvalues --  -19.02832 -14.34653 -14.25008 -14.24000 -14.15847
 Alpha  occ. eigenvalues --  -14.15505 -10.14383 -10.11441 -10.07998 -10.07411
 Alpha  occ. eigenvalues --  -10.07115 -10.07099 -10.06997 -10.06934 -10.06603
 Alpha  occ. eigenvalues --  -10.06374 -10.05432  -1.01398  -0.95792  -0.86102
 Alpha  occ. eigenvalues --   -0.82555  -0.75444  -0.74467  -0.67162  -0.65147
 Alpha  occ. eigenvalues --   -0.64377  -0.59115  -0.52705  -0.52255  -0.50412
 Alpha  occ. eigenvalues --   -0.48504  -0.43846  -0.42271  -0.40801  -0.40346
 Alpha  occ. eigenvalues --   -0.38578  -0.36572  -0.36496  -0.35120  -0.33552
 Alpha  occ. eigenvalues --   -0.32847  -0.32210  -0.31358  -0.30924  -0.29533
 Alpha  occ. eigenvalues --   -0.27214  -0.26097  -0.25874  -0.24411  -0.22218
 Alpha  occ. eigenvalues --   -0.22048  -0.20308  -0.18006  -0.17650  -0.17100
 Alpha  occ. eigenvalues --   -0.15314  -0.14727  -0.10628  -0.08852   0.04891
 Alpha virt. eigenvalues --    0.07108   0.07465   0.08062   0.08690   0.08813
 Alpha virt. eigenvalues --    0.09119   0.10276   0.10340   0.10886   0.11206
 Alpha virt. eigenvalues --    0.12118   0.13331   0.13710   0.14647   0.15223

  Beta  occ. eigenvalues --  -19.02830 -14.34461 -14.24799 -14.24011 -14.15562
  Beta  occ. eigenvalues --  -14.15250 -10.14423 -10.11442 -10.08075 -10.07434
  Beta  occ. eigenvalues --  -10.07061 -10.07028 -10.06974 -10.06915 -10.06532
  Beta  occ. eigenvalues --  -10.06139 -10.05021  -1.01062  -0.95751  -0.85940
  Beta  occ. eigenvalues --   -0.82131  -0.75328  -0.73836  -0.66989  -0.64887
  Beta  occ. eigenvalues --   -0.64276  -0.59012  -0.52369  -0.51644  -0.50349
  Beta  occ. eigenvalues --   -0.48325  -0.43661  -0.42136  -0.40429  -0.40244
  Beta  occ. eigenvalues --   -0.38330  -0.36411  -0.35976  -0.34978  -0.33391
  Beta  occ. eigenvalues --   -0.32430  -0.32104  -0.31203  -0.30653  -0.28989
  Beta  occ. eigenvalues --   -0.26972  -0.25831  -0.25613  -0.24348  -0.22014
  Beta  occ. eigenvalues --   -0.21929  -0.19856  -0.17299  -0.16792  -0.15851
  Beta  occ. eigenvalues --   -0.15014  -0.14259  -0.10306  -0.08021
  Beta virt. eigenvalues --    0.07061   0.08161   0.08578   0.08909   0.09038
  Beta virt. eigenvalues --    0.09233   0.10306   0.10661   0.10847   0.11090
  Beta virt. eigenvalues --    0.11356   0.12158   0.13248   0.13614   0.14600

 Mulliken charges and spin densities:
               1          2
     1  C   -0.343154   0.008022
     2  C   -0.285179  -0.009863
     3  C   -0.065963   0.088246
     4  C    0.975521   0.041409
     5  C   -0.390416   0.023697
     6  C   -0.446532   0.041330
     7  C   -0.369314  -0.090164
     8  O   -0.042001  -0.004064
     9  C   -0.451952  -0.040422
    10  N   -0.215199   0.109765
    11  C    0.211771   0.315779
    12  C   -0.825413  -0.184871
    13  C    0.155493   0.303065
    14  N   -0.110969   0.121562
    15  N   -0.042781   0.109523
    16  N    0.268835  -0.024257
    17  N   -0.300558   0.096943
    18  H    0.104444   0.001928
    19  H    0.127979   0.018634
    20  H    0.154055   0.006733
    21  H    0.144980   0.008750
    22  H    0.145585   0.002716
    23  H    0.107150   0.078102
    24  H    0.182366  -0.014300
    25  H    0.179903  -0.028523
    26  H    0.131350   0.020259
 Sum of Mulliken charges =  -1.00000   1.00000

 Dipole moment (field-independent basis, Debye):
    X=             -6.3974    Y=             -0.9975    Z=              1.3619  Tot=              6.6164
 Quadrupole moment (field-independent basis, Debye-Ang):
   XX=           -163.1802   YY=           -113.0856   ZZ=           -107.4769
   XY=              3.9808   XZ=              4.9179   YZ=              2.6980

 Summary of Natural Population Analysis:

                                       Natural Population
                Natural  -----------------------------------------------
    Atom  No    Charge         Core      Valence    Rydberg      Total
 -----------------------------------------------------------------------
      C    1   -0.09603      0.99957     2.08738    0.00907     3.09603
      C    2   -0.10994      0.99958     2.10146    0.00891     3.10994
      C    3   -0.08273      0.99952     2.07384    0.00937     3.08273
      C    4   -0.02432      0.99950     2.01370    0.01112     3.02432
      C    5   -0.08974      0.99952     2.08188    0.00834     3.08974
      C    6   -0.09866      0.99957     2.08978    0.00931     3.09866
      C    7   -0.01802      0.99952     2.00660    0.01190     3.01802
      O    8   -0.27514      0.99985     3.26500    0.01029     4.27514
      C    9    0.34562      0.99955     1.63249    0.02235     2.65438
      N   10   -0.22382      0.99966     2.71414    0.01002     3.72382
      C   11    0.09835      0.99957     1.88895    0.01313     2.90165
      C   12   -0.00638      0.99941     1.99639    0.01059     3.00638
      C   13    0.08062      0.99957     1.90585    0.01396     2.91938
      N   14   -0.25190      0.99966     2.74084    0.01140     3.75190
      N   15   -0.17706      0.99965     2.66258    0.01483     3.67706
      N   16    0.13186      0.99971     2.35146    0.01698     3.36814
      N   17   -0.04101      0.99982     2.52774    0.01346     3.54101
      H   18    0.09344      0.00000     0.40561    0.00095     0.40656
      H   19    0.09528      0.00000     0.40376    0.00096     0.40472
      H   20    0.10114      0.00000     0.39746    0.00140     0.39886
      H   21    0.10293      0.00000     0.39609    0.00099     0.39707
      H   22    0.09445      0.00000     0.40454    0.00101     0.40555
      H   23    0.09043      0.00000     0.40825    0.00132     0.40957
      H   24    0.09672      0.00000     0.40194    0.00133     0.40328
      H   25    0.08086      0.00000     0.41781    0.00133     0.41914
      H   26    0.08306      0.00000     0.41521    0.00173     0.41694
 =======================================================================
   * Total *    0.00000     16.99321    41.79073    0.21605    59.00000

 Normal termination of Gaussian 16 at Fri Dec 11 12:53:48 2020.
