 Gaussian 16, Revision A.03,

 -----------------------------------------------------------
 # opt freq B3LYP/6-31G(d) empiricaldispersion=gd3bj scf=xqc
 -----------------------------------------------------------

 -------------------------------
 CID_81079587_JID_10950_neutraal
 -------------------------------
 Symbolic Z-matrix:
 Charge =  0 Multiplicity = 1

 SCF Done:  E(RB3LYP) =  -975.870468976     A.U. after   15 cycles
 SCF Done:  E(RB3LYP) =  -975.797134666     A.U. after   15 cycles
 SCF Done:  E(RB3LYP) =  -975.877101886     A.U. after   12 cycles
 SCF Done:  E(RB3LYP) =  -975.878972409     A.U. after   13 cycles
 SCF Done:  E(RB3LYP) =  -975.879773269     A.U. after   12 cycles
 SCF Done:  E(RB3LYP) =  -975.879980999     A.U. after   12 cycles
 SCF Done:  E(RB3LYP) =  -975.880567057     A.U. after   12 cycles
 SCF Done:  E(RB3LYP) =  -975.880741562     A.U. after   12 cycles
 SCF Done:  E(RB3LYP) =  -975.880789880     A.U. after   12 cycles
 SCF Done:  E(RB3LYP) =  -975.881014820     A.U. after   11 cycles
 SCF Done:  E(RB3LYP) =  -975.881220886     A.U. after    8 cycles
 SCF Done:  E(RB3LYP) =  -975.881221547     A.U. after    9 cycles
 SCF Done:  E(RB3LYP) =  -975.881221406     A.U. after    9 cycles
 SCF Done:  E(RB3LYP) =  -975.881221511     A.U. after    7 cycles
 SCF Done:  E(RB3LYP) =  -975.881221692     A.U. after    8 cycles
 Optimization completed.
    -- Stationary point found.
 Normal termination of Gaussian 16 at Sat Dec 12 17:07:44 2020.

 --------------------------------------------------------------------
 #N Geom=AllCheck Guess=TCheck SCRF=Check GenChk RB3LYP/6-31G(d) Freq
 --------------------------------------------------------------------

 Structure from the checkpoint file:  "JID_10950.chk"
 -------------------------------
 CID_81079587_JID_10950_neutraal
 -------------------------------
 Charge =  0 Multiplicity = 1

 SCF Done:  E(RB3LYP) =  -975.881221692     A.U. after    1 cycles

  Exact polarizability: 169.025 -32.534 161.693  -6.632  -8.295 152.194
 Approx polarizability: 231.963 -54.248 229.349  -7.867 -22.842 269.690

                      1                      2                      3
                      A                      A                      A
 Frequencies --     27.4101                32.4244                35.6100
 Red. masses --      4.1196                 2.1060                 1.5636
 Frc consts  --      0.0018                 0.0013                 0.0012
 IR Inten    --      0.6732                 0.7724                 0.5766

                      4                      5                      6
                      A                      A                      A
 Frequencies --     42.3552                45.4739                60.9609
 Red. masses --      6.2020                 4.5096                 4.6519
 Frc consts  --      0.0066                 0.0055                 0.0102
 IR Inten    --      0.3049                 1.8834                 0.5088

                      7                      8                      9
                      A                      A                      A
 Frequencies --     69.5675                73.6151                95.5173
 Red. masses --      4.6617                 8.8733                 4.5311
 Frc consts  --      0.0133                 0.0283                 0.0244
 IR Inten    --      2.5450                 2.0476                 0.8343

                     10                     11                     12
                      A                      A                      A
 Frequencies --    115.4560               130.3464               143.1471
 Red. masses --      2.8189                 3.5673                 4.5718
 Frc consts  --      0.0221                 0.0357                 0.0552
 IR Inten    --      2.4547                 0.8651                 0.5212

                     13                     14                     15
                      A                      A                      A
 Frequencies --    156.2108               224.4452               232.3745
 Red. masses --      5.0855                 1.7393                 2.9285
 Frc consts  --      0.0731                 0.0516                 0.0932
 IR Inten    --      1.1379                 1.1600                 6.7516

                     16                     17                     18
                      A                      A                      A
 Frequencies --    271.6118               277.3963               326.4437
 Red. masses --      3.1048                 2.8199                 3.6022
 Frc consts  --      0.1350                 0.1278                 0.2262
 IR Inten    --      2.1185                 1.7866                 2.9814

                     19                     20                     21
                      A                      A                      A
 Frequencies --    334.1414               350.1957               374.2965
 Red. masses --      3.7356                 3.6415                 2.8294
 Frc consts  --      0.2457                 0.2631                 0.2336
 IR Inten    --      1.2938                 2.5154                 2.3306

                     22                     23                     24
                      A                      A                      A
 Frequencies --    385.1951               404.0469               427.5789
 Red. masses --      3.4192                 7.8376                 3.2416
 Frc consts  --      0.2989                 0.7539                 0.3492
 IR Inten    --      3.2533                 3.7439                 0.5811

                     25                     26                     27
                      A                      A                      A
 Frequencies --    464.0128               478.3765               526.7566
 Red. masses --      4.5595                 2.4138                 2.6823
 Frc consts  --      0.5784                 0.3254                 0.4385
 IR Inten    --      4.2031                 0.9659                31.4552

                     28                     29                     30
                      A                      A                      A
 Frequencies --    529.0105               541.4264               587.3629
 Red. masses --      2.5731                 3.0856                 3.4439
 Frc consts  --      0.4243                 0.5329                 0.7000
 IR Inten    --     10.3864                 4.2281                67.6774

                     31                     32                     33
                      A                      A                      A
 Frequencies --    625.9232               652.0270               655.8623
 Red. masses --      1.7029                 2.0470                 5.4834
 Frc consts  --      0.3931                 0.5127                 1.3897
 IR Inten    --     11.7242                84.9248                11.8703

                     34                     35                     36
                      A                      A                      A
 Frequencies --    666.2489               714.2225               719.7892
 Red. masses --      1.9184                 3.5922                 3.5784
 Frc consts  --      0.5017                 1.0796                 1.0923
 IR Inten    --     75.3281                 4.3710                33.6978

                     37                     38                     39
                      A                      A                      A
 Frequencies --    721.3517               757.9758               816.2667
 Red. masses --      3.8246                 3.4304                 3.1279
 Frc consts  --      1.1725                 1.1612                 1.2279
 IR Inten    --      5.0279                20.1697                 6.0769

                     40                     41                     42
                      A                      A                      A
 Frequencies --    838.6935               841.5672               847.9204
 Red. masses --      1.5384                 4.0575                 2.5341
 Frc consts  --      0.6376                 1.6931                 1.0734
 IR Inten    --     35.7068                 3.9540                 9.1299

                     43                     44                     45
                      A                      A                      A
 Frequencies --    848.5134               917.5017               954.3168
 Red. masses --      1.4796                 2.7331                 1.2609
 Frc consts  --      0.6276                 1.3555                 0.6766
 IR Inten    --     11.2851                 5.9004                 2.2483

                     46                     47                     48
                      A                      A                      A
 Frequencies --    961.3920               966.3016              1014.4362
 Red. masses --      2.4769                 1.3236                 2.3535
 Frc consts  --      1.3489                 0.7282                 1.4269
 IR Inten    --     17.3388                 1.6290                 4.9521

                     49                     50                     51
                      A                      A                      A
 Frequencies --   1019.0678              1038.3935              1051.3094
 Red. masses --      1.4569                 2.6568                 2.6294
 Frc consts  --      0.8914                 1.6878                 1.7122
 IR Inten    --      4.1986                 0.4102                26.9746

                     52                     53                     54
                      A                      A                      A
 Frequencies --   1064.5491              1075.8009              1079.5739
 Red. masses --      2.9406                 1.5122                 2.5549
 Frc consts  --      1.9635                 1.0312                 1.7544
 IR Inten    --     58.1676                 4.7437                 3.9858

                     55                     56                     57
                      A                      A                      A
 Frequencies --   1096.1964              1153.9624              1158.4800
 Red. masses --      2.2144                 1.2595                 3.0524
 Frc consts  --      1.5678                 0.9882                 2.4137
 IR Inten    --     18.0496                 8.8996               225.1059

                     58                     59                     60
                      A                      A                      A
 Frequencies --   1168.3277              1191.9436              1216.4482
 Red. masses --      4.3198                 1.3727                 1.4182
 Frc consts  --      3.4741                 1.1491                 1.2365
 IR Inten    --    134.2891                22.3738                65.5782

                     61                     62                     63
                      A                      A                      A
 Frequencies --   1221.1549              1227.3268              1230.4703
 Red. masses --      1.3717                 1.4949                 1.6361
 Frc consts  --      1.2052                 1.3268                 1.4595
 IR Inten    --     49.6440                 5.7520                22.0261

                     64                     65                     66
                      A                      A                      A
 Frequencies --   1247.1140              1263.0448              1296.4146
 Red. masses --      2.9984                 2.3788                 1.1591
 Frc consts  --      2.7476                 2.2359                 1.1478
 IR Inten    --      3.9577               153.8161                18.5789

                     67                     68                     69
                      A                      A                      A
 Frequencies --   1313.1248              1318.8618              1332.8041
 Red. masses --      1.6762                 1.4873                 1.3907
 Frc consts  --      1.7029                 1.5242                 1.4556
 IR Inten    --     75.5001                 6.1207                12.7517

                     70                     71                     72
                      A                      A                      A
 Frequencies --   1347.1357              1355.1007              1365.5362
 Red. masses --      1.9802                 1.3741                 2.6279
 Frc consts  --      2.1173                 1.4866                 2.8871
 IR Inten    --      1.8170                24.8794                71.3200

                     73                     74                     75
                      A                      A                      A
 Frequencies --   1394.3929              1411.5295              1431.7769
 Red. masses --      1.8468                 1.6306                 1.5988
 Frc consts  --      2.1157                 1.9141                 1.9310
 IR Inten    --     12.7204                54.2344                74.5704

                     76                     77                     78
                      A                      A                      A
 Frequencies --   1443.0498              1444.5924              1465.9937
 Red. masses --      1.3967                 1.2467                 2.6916
 Frc consts  --      1.7137                 1.5329                 3.4082
 IR Inten    --      4.4270                 0.0878                 0.3366

                     79                     80                     81
                      A                      A                      A
 Frequencies --   1498.0302              1504.5754              1515.2668
 Red. masses --      1.4425                 1.2121                 1.1088
 Frc consts  --      1.9072                 1.6167                 1.5000
 IR Inten    --     44.0757                 7.1776                14.0835

                     82                     83                     84
                      A                      A                      A
 Frequencies --   1516.8876              1517.3468              1526.4843
 Red. masses --      1.1496                 1.1878                 1.1036
 Frc consts  --      1.5585                 1.6112                 1.5151
 IR Inten    --     12.1917                40.2913                 6.8038

                     85                     86                     87
                      A                      A                      A
 Frequencies --   1530.4364              1540.1908              1551.4058
 Red. masses --      1.0644                 1.1014                 1.0875
 Frc consts  --      1.4689                 1.5394                 1.5421
 IR Inten    --     10.7066                14.2416                 4.2791

                     88                     89                     90
                      A                      A                      A
 Frequencies --   1566.4063              1638.0483              1676.8296
 Red. masses --      2.5240                 5.8775                 5.8004
 Frc consts  --      3.6488                 9.2918                 9.6092
 IR Inten    --    135.3056                12.7577                35.5555

                     91                     92                     93
                      A                      A                      A
 Frequencies --   1777.5540              1862.4035              3000.9863
 Red. masses --      8.2558                10.4344                 1.0362
 Frc consts  --     15.3694                21.3238                 5.4981
 IR Inten    --    353.8823               242.3238                50.4083

                     94                     95                     96
                      A                      A                      A
 Frequencies --   3039.9832              3044.6539              3049.9997
 Red. masses --      1.0392                 1.0580                 1.1053
 Frc consts  --      5.6584                 5.7783                 6.0582
 IR Inten    --     40.8368                22.6245                56.3282

                     97                     98                     99
                      A                      A                      A
 Frequencies --   3077.7683              3086.2701              3093.3840
 Red. masses --      1.0584                 1.0618                 1.0981
 Frc consts  --      5.9072                 5.9589                 6.1909
 IR Inten    --     38.7256                 5.9574                22.9493

                    100                    101                    102
                      A                      A                      A
 Frequencies --   3095.4253              3106.1224              3121.8947
 Red. masses --      1.1059                 1.0827                 1.1017
 Frc consts  --      6.2434                 6.1545                 6.3262
 IR Inten    --     16.2076                 5.0310                16.3037

                    103                    104                    105
                      A                      A                      A
 Frequencies --   3126.3366              3136.1127              3146.4936
 Red. masses --      1.1065                 1.1055                 1.0979
 Frc consts  --      6.3719                 6.4062                 6.4044
 IR Inten    --     20.7078                21.7828                27.7295

                    106                    107                    108
                      A                      A                      A
 Frequencies --   3179.1813              3184.6619              3211.3181
 Red. masses --      1.0887                 1.0897                 1.0930
 Frc consts  --      6.4831                 6.5113                 6.6413
 IR Inten    --     16.4103                14.8146                 6.8997

                    109                    110                    111
                      A                      A                      A
 Frequencies --   3236.8631              3594.8715              3686.4095
 Red. masses --      1.0919                 1.0756                 1.0642
 Frc consts  --      6.7404                 8.1895                 8.5204
 IR Inten    --      1.4959                45.1353                55.5983

 - Thermochemistry -
 -------------------
 Temperature   298.150 Kelvin.  Pressure   1.00000 Atm.
 Atom     1 has atomic number  6 and mass  12.00000

 Molecular mass:   281.12632 amu.
 Principal axes and moments of inertia in atomic units:
                           1         2         3
     Eigenvalues --  4418.110216243.838198157.89363
           X            0.99821  -0.05870  -0.01169
           Y            0.05887   0.99816   0.01454
           Z            0.01082  -0.01520   0.99983
 This molecule is an asymmetric top.
 Rotational symmetry number  1.
 Warning -- assumption of classical behavior for rotation
           may cause significant error
 Rotational temperatures (Kelvin)      0.01960     0.01387     0.01062
 Rotational constants (GHZ):           0.40849     0.28904     0.22123
 Zero-point vibrational energy     850228.8 (Joules/Mol)
                                  203.20956 (Kcal/Mol)
 Warning -- explicit consideration of  30 degrees of freedom as
           vibrations may cause significant error
 Vibrational temperatures:     39.44    46.65    51.23    60.94    65.43
          (Kelvin)             87.71   100.09   105.92   137.43   166.12
                              187.54   205.96   224.75   322.93   334.34
                              390.79   399.11   469.68   480.76   503.85
                              538.53   554.21   581.33   615.19   667.61
                              688.28   757.89   761.13   778.99   845.08
                              900.56   938.12   943.64   958.58  1027.61
                             1035.62  1037.86  1090.56  1174.43  1206.69
                             1210.83  1219.97  1220.82  1320.08  1373.05
                             1383.23  1390.29  1459.55  1466.21  1494.02
                             1512.60  1531.65  1547.84  1553.27  1577.18
                             1660.29  1666.79  1680.96  1714.94  1750.20
                             1756.97  1765.85  1770.37  1794.32  1817.24
                             1865.25  1889.29  1897.55  1917.61  1938.23
                             1949.69  1964.70  2006.22  2030.88  2060.01
                             2076.23  2078.45  2109.24  2155.33  2164.75
                             2180.13  2182.46  2183.12  2196.27  2201.96
                             2215.99  2232.13  2253.71  2356.79  2412.58
                             2557.50  2679.58  4317.75  4373.86  4380.58
                             4388.27  4428.22  4440.45  4450.69  4453.63
                             4469.02  4491.71  4498.10  4512.17  4527.10
                             4574.13  4582.02  4620.37  4657.12  5172.22
                             5303.92

 Zero-point correction=                           0.323835 (Hartree/Particle)
 Thermal correction to Energy=                    0.344402
 Thermal correction to Enthalpy=                  0.345346
 Thermal correction to Gibbs Free Energy=         0.271665
 Sum of electronic and zero-point Energies=           -975.557387
 Sum of electronic and thermal Energies=              -975.536820
 Sum of electronic and thermal Enthalpies=            -975.535876
 Sum of electronic and thermal Free Energies=         -975.609557

                     E (Thermal)             CV                S
                      KCal/Mol        Cal/Mol-Kelvin    Cal/Mol-Kelvin
 Total                  216.115             74.772            155.075
 Electronic               0.000              0.000              0.000
 Translational            0.889              2.981             42.799
 Rotational               0.889              2.981             33.775
 Vibrational            214.338             68.810             78.501
 Vibration     1          0.593              1.984              6.009
 Vibration     2          0.594              1.983              5.675
 Vibration     3          0.594              1.982              5.489
 Vibration     4          0.595              1.980              5.146
 Vibration     5          0.595              1.979              5.005
 Vibration     6          0.597              1.973              4.426
 Vibration     7          0.598              1.969              4.166
 Vibration     8          0.599              1.966              4.054
 Vibration     9          0.603              1.952              3.544
 Vibration    10          0.608              1.937              3.175
 Vibration    11          0.612              1.923              2.941
 Vibration    12          0.616              1.910              2.761
 Vibration    13          0.620              1.896              2.595
 Vibration    14          0.649              1.804              1.923
 Vibration    15          0.653              1.791              1.861
 Vibration    16          0.675              1.726              1.586
 Vibration    17          0.678              1.715              1.550
 Vibration    18          0.710              1.623              1.278
 Vibration    19          0.716              1.607              1.240
 Vibration    20          0.727              1.575              1.165
 Vibration    21          0.745              1.525              1.062
 Vibration    22          0.754              1.502              1.019
 Vibration    23          0.769              1.461              0.948
 Vibration    24          0.789              1.410              0.867
 Vibration    25          0.822              1.330              0.755
 Vibration    26          0.835              1.298              0.714
 Vibration    27          0.882              1.191              0.594
 Vibration    28          0.884              1.186              0.589
 Vibration    29          0.897              1.158              0.562
 Vibration    30          0.945              1.059              0.472

                           ! Non-Optimized Parameters !
 Normal termination of Gaussian 16 at Sat Dec 12 17:29:36 2020.

 ----------------------------------------------------------------------
 # B3LYP/6-311++G(d,p) empiricaldispersion=gd3bj scf=xqc pop=npa geom=c
 heck
 ----------------------------------------------------------------------

 ---------------------------------------
 CID_81079587_JID_10950_Energie_neutraal
 ---------------------------------------
 Structure from the checkpoint file:  "JID_10950.chk"
 Charge =  0 Multiplicity = 1

 SCF Done:  E(RB3LYP) =  -976.172979185     A.U. after   15 cycles
 Normal termination of Gaussian 16 at Sat Dec 12 17:39:08 2020.

 ----------------------------------------------------------------------
 # B3LYP/6-311++G(d,p) empiricaldispersion=gd3bj scf=xqc pop=npa geom=c
 heck
 ----------------------------------------------------------------------

 -------------------------------------
 CID_81079587_JID_10950_Energie_kation
 -------------------------------------
 Structure from the checkpoint file:  "JID_10950.chk"
 Charge =  1 Multiplicity = 2

 SCF Done:  E(UB3LYP) =  -975.879478699     A.U. after   26 cycles
 Normal termination of Gaussian 16 at Sat Dec 12 18:02:37 2020.
 Gaussian 16:  ES64L-G16RevA.03 25-Dec-2016

 ----------------------------------------------------------------------
 # B3LYP/6-311++G(d,p) empiricaldispersion=gd3bj scf=xqc pop=npa geom=c
 heck
 ----------------------------------------------------------------------

 ------------------------------------
 CID_81079587_JID_10950_Energie_anion
 ------------------------------------
 Structure from the checkpoint file:  "JID_10950.chk"
 Charge = -1 Multiplicity = 2

                         Standard orientation:
 ---------------------------------------------------------------------
 Center     Atomic      Atomic             Coordinates (Angstroms)
 Number     Number       Type             X           Y           Z
 ---------------------------------------------------------------------
      1          6           0       -4.464970    1.271117    0.427035
      2          6           0       -3.355187    0.337950    0.007507
      3          6           0       -2.978023    0.221067   -1.338682
      4          6           0       -1.966257   -0.646344   -1.732413
      5          6           0       -1.295316   -1.426189   -0.780810
      6          6           0       -1.659607   -1.334863    0.564591
      7          6           0       -2.678739   -0.454956    0.937994
      8          8           0       -0.283343   -2.204369   -1.283965
      9          6           0        0.461089   -3.079200   -0.433163
     10          6           0        1.714792   -2.415990    0.148685
     11          6           0        1.406074   -1.441066    1.278908
     12          8           0        1.191011   -1.855178    2.414118
     13          7           0        1.332042   -0.114508    0.981288
     14          6           0        1.394869    0.534636   -0.305102
     15          6           0        0.409305    1.703674   -0.318530
     16          8           0        0.758379    2.554407    0.759337
     17          6           0       -0.201219    3.570009    0.975574
     18          6           0        2.826498    0.962516   -0.643310
     19          8           0        3.819245    0.619898   -0.048788
     20          8           0        2.857852    1.737701   -1.755239
     21          1           0       -4.411866    2.225639   -0.109017
     22          1           0       -5.453045    0.839879    0.219067
     23          1           0       -4.421711    1.484191    1.499985
     24          1           0       -3.482325    0.823183   -2.090978
     25          1           0       -1.670498   -0.731625   -2.773343
     26          1           0       -1.138387   -1.890173    1.334344
     27          1           0       -2.939827   -0.382308    1.990877
     28          1           0       -0.169106   -3.486223    0.363973
     29          1           0        0.761140   -3.905217   -1.083385
     30          1           0        2.326645   -3.202318    0.601033
     31          1           0        2.298453   -1.963934   -0.657951
     32          1           0        1.162267    0.498316    1.770207
     33          1           0        1.077356   -0.157505   -1.090775
     34          1           0        0.465311    2.236422   -1.277058
     35          1           0       -0.606922    1.311440   -0.189579
     36          1           0       -1.193435    3.142394    1.186539
     37          1           0        0.133750    4.151037    1.837831
     38          1           0       -0.285798    4.235777    0.103065
     39          1           0        3.798702    1.938748   -1.917254
 ---------------------------------------------------------------------

 SCF Done:  E(UB3LYP) =  -976.164226078     A.U. after   33 cycles
 SCF Done:  E(UB3LYP) =  -976.164226078     a.u. after    1 cycles

 The electronic state is 2-A.
 Alpha  occ. eigenvalues --  -19.08446 -19.07624 -19.04877 -19.03354 -19.00559
 Alpha  occ. eigenvalues --  -14.25384 -10.22274 -10.19412 -10.16019 -10.15377
 Alpha  occ. eigenvalues --  -10.14899 -10.13837 -10.12634 -10.10630 -10.09577
 Alpha  occ. eigenvalues --  -10.09203 -10.09098 -10.09071 -10.08926 -10.07991
 Alpha  occ. eigenvalues --   -1.02678  -0.99086  -0.96371  -0.95630  -0.93935
 Alpha  occ. eigenvalues --   -0.84898  -0.77746  -0.71789  -0.69771  -0.68011
 Alpha  occ. eigenvalues --   -0.66791  -0.61701  -0.61409  -0.57652  -0.55988
 Alpha  occ. eigenvalues --   -0.53825  -0.53058  -0.50720  -0.49068  -0.46072
 Alpha  occ. eigenvalues --   -0.43730  -0.43361  -0.41663  -0.40713  -0.40002
 Alpha  occ. eigenvalues --   -0.39791  -0.38796  -0.38632  -0.38422  -0.37207
 Alpha  occ. eigenvalues --   -0.36072  -0.35338  -0.34350  -0.34190  -0.33537
 Alpha  occ. eigenvalues --   -0.32401  -0.32321  -0.31896  -0.31168  -0.30814
 Alpha  occ. eigenvalues --   -0.29991  -0.29029  -0.28401  -0.27821  -0.27119
 Alpha  occ. eigenvalues --   -0.25185  -0.24847  -0.24363  -0.23551  -0.20486
 Alpha  occ. eigenvalues --   -0.18426  -0.18244  -0.17722  -0.17245  -0.14012
 Alpha  occ. eigenvalues --    0.03769
 Alpha virt. eigenvalues --    0.05359   0.05755   0.06331   0.06818   0.07178
 Alpha virt. eigenvalues --    0.07643   0.07984   0.08142   0.08757   0.09199
 Alpha virt. eigenvalues --    0.09704   0.09821   0.10154   0.10714   0.11030

  Beta  occ. eigenvalues --  -19.08394 -19.07621 -19.04869 -19.03336 -19.00559
  Beta  occ. eigenvalues --  -14.25382 -10.22262 -10.19412 -10.16012 -10.15376
  Beta  occ. eigenvalues --  -10.14890 -10.13822 -10.12601 -10.10623 -10.09575
  Beta  occ. eigenvalues --  -10.09191 -10.09096 -10.09055 -10.08916 -10.07956
  Beta  occ. eigenvalues --   -1.02611  -0.99080  -0.96359  -0.95627  -0.93876
  Beta  occ. eigenvalues --   -0.84891  -0.77732  -0.71775  -0.69744  -0.67990
  Beta  occ. eigenvalues --   -0.66769  -0.61648  -0.61374  -0.57616  -0.55910
  Beta  occ. eigenvalues --   -0.53787  -0.53009  -0.50687  -0.49041  -0.46055
  Beta  occ. eigenvalues --   -0.43694  -0.43333  -0.41643  -0.40692  -0.39967
  Beta  occ. eigenvalues --   -0.39760  -0.38766  -0.38610  -0.38388  -0.37169
  Beta  occ. eigenvalues --   -0.36047  -0.35316  -0.34310  -0.34169  -0.33505
  Beta  occ. eigenvalues --   -0.32371  -0.32304  -0.31878  -0.31148  -0.30793
  Beta  occ. eigenvalues --   -0.29962  -0.29003  -0.28381  -0.27788  -0.27094
  Beta  occ. eigenvalues --   -0.25141  -0.24832  -0.24307  -0.23531  -0.20438
  Beta  occ. eigenvalues --   -0.18405  -0.18228  -0.17715  -0.17224  -0.13993
  Beta virt. eigenvalues --    0.05681   0.06052   0.06379   0.06825   0.07235
  Beta virt. eigenvalues --    0.07765   0.07803   0.08199   0.08257   0.09072
  Beta virt. eigenvalues --    0.09299   0.09831   0.10065   0.10647   0.10998

 Mulliken charges and spin densities:
               1          2
     1  C    2.541297  -3.202425
     2  C   -0.465545   0.931664
     3  C   -0.253924  -0.107090
     4  C   -0.792149   0.741355
     5  C   -0.118464  -0.911317
     6  C    0.040829   0.084428
     7  C   -0.817862   0.830973
     8  O   -0.027771   0.004914
     9  C    0.141021  -0.451084
    10  C   -0.072339   0.054838
    11  C   -0.392204   0.024991
    12  O   -0.279147   0.001730
    13  N   -0.037274   0.056927
    14  C    0.078629  -0.431051
    15  C   -0.962802   0.364768
    16  O   -0.113274   0.009034
    17  C    0.555448  -0.836879
    18  C    0.701216  -0.248274
    19  O   -0.281562   0.024433
    20  O   -0.091031   0.028977
    21  H   -0.264797   0.422793
    22  H    0.001215   0.165455
    23  H   -0.171275   0.316023
    24  H   -0.609828   0.803685
    25  H   -0.237172   0.434513
    26  H    0.169124   0.053915
    27  H   -0.070304   0.247653
    28  H    0.151609   0.013686
    29  H   -0.038932   0.229178
    30  H    0.109330   0.103932
    31  H    0.080897   0.137905
    32  H    0.299970   0.028132
    33  H    0.212440   0.054282
    34  H   -0.235770   0.449914
    35  H    1.156028  -1.081882
    36  H   -0.199632   0.358344
    37  H   -0.060826   0.205202
    38  H   -0.265801   0.405723
    39  H   -0.379365   0.680636
 Sum of Mulliken charges =  -1.00000   1.00000

 Dipole moment (field-independent basis, Debye):
    X=             -0.2324    Y=             -5.9094    Z=              1.6170  Tot=              6.1310
 Quadrupole moment (field-independent basis, Debye-Ang):
   XX=           -199.9320   YY=           -171.7071   ZZ=           -168.6365
   XY=              3.7322   XZ=             -0.0298   YZ=             10.6327

 Summary of Natural Population Analysis:

                                       Natural Population
                Natural  -----------------------------------------------
    Atom  No    Charge         Core      Valence    Rydberg      Total
 -----------------------------------------------------------------------
      C    1   -0.29288      0.99964     2.28676    0.00649     3.29288
      C    2   -0.03108      0.99951     2.02170    0.00987     3.03108
      C    3   -0.09292      0.99951     2.08330    0.01011     3.09292
      C    4   -0.11926      0.99952     2.10923    0.01051     3.11926
      C    5    0.14957      0.99937     1.83731    0.01376     2.85043
      C    6   -0.14335      0.99950     2.13593    0.00792     3.14335
      C    7   -0.09134      0.99952     2.08202    0.00980     3.09134
      O    8   -0.28298      0.99986     3.27362    0.00950     4.28298
      C    9   -0.00751      0.99956     1.99614    0.01182     3.00751
      C   10   -0.24723      0.99957     2.23955    0.00810     3.24723
      C   11    0.34714      0.99966     1.63049    0.02270     2.65286
      O   12   -0.32838      0.99988     3.32304    0.00546     4.32838
      N   13   -0.30922      0.99964     2.79957    0.01001     3.80922
      C   14   -0.07433      0.99953     2.05994    0.01485     3.07433
      C   15   -0.01013      0.99956     1.99837    0.01220     3.01013
      O   16   -0.30329      0.99988     3.29499    0.00842     4.30329
      C   17   -0.09640      0.99962     2.08789    0.00889     3.09640
      C   18    0.40821      0.99970     1.56600    0.02608     2.59179
      O   19   -0.29869      0.99987     3.29277    0.00604     4.29869
      O   20   -0.34326      0.99988     3.33638    0.00700     4.34326
      H   21    0.10705      0.00000     0.39144    0.00151     0.39295
      H   22    0.10328      0.00000     0.39579    0.00093     0.39672
      H   23    0.10283      0.00000     0.39607    0.00110     0.39717
      H   24    0.10410      0.00000     0.39465    0.00125     0.39590
      H   25    0.10845      0.00000     0.39027    0.00128     0.39155
      H   26    0.11252      0.00000     0.38554    0.00194     0.38748
      H   27    0.10127      0.00000     0.39787    0.00086     0.39873
      H   28    0.09045      0.00000     0.40824    0.00131     0.40955
      H   29    0.09434      0.00000     0.40471    0.00096     0.40566
      H   30    0.11670      0.00000     0.38235    0.00095     0.38330
      H   31    0.10835      0.00000     0.39034    0.00131     0.39165
      H   32    0.20355      0.00000     0.29398    0.00247     0.29645
      H   33    0.12475      0.00000     0.37222    0.00303     0.37525
      H   34    0.09517      0.00000     0.40276    0.00207     0.40483
      H   35    0.09361      0.00000     0.40282    0.00356     0.40639
      H   36    0.08245      0.00000     0.41588    0.00166     0.41755
      H   37    0.09021      0.00000     0.40880    0.00098     0.40979
      H   38    0.08281      0.00000     0.41579    0.00140     0.41719
      H   39    0.24542      0.00000     0.23980    0.01478     0.25458
 =======================================================================
   * Total *    0.00000     19.99277    54.74432    0.26291    75.00000

 Normal termination of Gaussian 16 at Sat Dec 12 18:32:41 2020.
