 Gaussian 16, Revision A.03,

 -----------------------------------------------------------
 # opt freq B3LYP/6-31G(d) empiricaldispersion=gd3bj scf=xqc
 -----------------------------------------------------------

 -----------------------------
 CID_68077918_JID_312_neutraal
 -----------------------------
 Symbolic Z-matrix:
 Charge =  0 Multiplicity = 1

 SCF Done:  E(RB3LYP) =  -406.725041527     A.U. after   13 cycles
 SCF Done:  E(RB3LYP) =  -406.728041238     A.U. after   11 cycles
 SCF Done:  E(RB3LYP) =  -406.728632143     A.U. after   10 cycles
 SCF Done:  E(RB3LYP) =  -406.728829562     A.U. after   10 cycles
 SCF Done:  E(RB3LYP) =  -406.728875706     A.U. after   10 cycles
 SCF Done:  E(RB3LYP) =  -406.728890871     A.U. after   10 cycles
 SCF Done:  E(RB3LYP) =  -406.728892720     A.U. after    9 cycles
 SCF Done:  E(RB3LYP) =  -406.728893151     A.U. after    7 cycles
 SCF Done:  E(RB3LYP) =  -406.728893233     A.U. after    6 cycles
 Optimization completed.
    -- Stationary point found.

 1\1\GINC-NODE104\FOpt\RB3LYP\6-31G(d)\C9H15N1\VSC10255\08-Dec-2020\0\\
 # opt freq B3LYP/6-31G(d) empiricaldispersion=gd3bj scf=xqc\\CID_68077
 918_JID_312_neutraal\\0,1\C,1.1275149474,-0.02936421,0.0063387143\C,0.
 6483550422,-0.6738696949,1.2993821943\C,-0.6292832575,-1.475034361,1.2
 400136402\C,0.6968193416,-2.1863231026,1.3825156512\C,0.9746958763,0.0
 96900885,2.5453185404\C,0.0466139532,0.7510126206,3.2520861205\C,0.342
 8181971,1.5123861572,4.5156867956\N,1.671555985,1.1853539795,5.0298442
 723\C,2.6855999907,1.2472719736,3.9790214535\C,2.4251938248,0.12153974

 Normal termination of Gaussian 16 at Tue Dec  8 10:22:35 2020.

 --------------------------------------------------------------------
 #N Geom=AllCheck Guess=TCheck SCRF=Check GenChk RB3LYP/6-31G(d) Freq
 --------------------------------------------------------------------

 Structure from the checkpoint file:  "JID_312.chk"
 -----------------------------
 CID_68077918_JID_312_neutraal
 -----------------------------
 Charge =  0 Multiplicity = 1

 SCF Done:  E(RB3LYP) =  -406.728893233     A.U. after    1 cycles

  Exact polarizability: 111.871  -5.585  97.313  -2.506   5.042  79.652
 Approx polarizability: 140.249 -13.239 147.646  -4.655  11.355 119.516

                      1                      2                      3
                      A                      A                      A
 Frequencies --     58.0991                93.9499               183.1230
 Red. masses --      2.8261                 3.0378                 2.1333
 Frc consts  --      0.0056                 0.0158                 0.0421
 IR Inten    --      0.1145                 0.5964                 0.2555

                      4                      5                      6
                      A                      A                      A
 Frequencies --    209.7400               225.3504               276.4359
 Red. masses --      1.9988                 1.2716                 3.0305
 Frc consts  --      0.0518                 0.0380                 0.1364
 IR Inten    --      0.5401                 0.1929                 0.6058

                      7                      8                      9
                      A                      A                      A
 Frequencies --    297.7773               331.8648               345.6468
 Red. masses --      2.6543                 1.9411                 1.8957
 Frc consts  --      0.1387                 0.1260                 0.1334
 IR Inten    --      1.1327                 0.2034                 2.2138

                     10                     11                     12
                      A                      A                      A
 Frequencies --    436.2329               484.3448               486.1027
 Red. masses --      3.1292                 3.0283                 2.3170
 Frc consts  --      0.3509                 0.4186                 0.3226
 IR Inten    --      4.2556                 0.9727                12.5309

                     13                     14                     15
                      A                      A                      A
 Frequencies --    571.6212               593.1838               748.0028
 Red. masses --      3.0368                 2.9286                 2.4324
 Frc consts  --      0.5846                 0.6071                 0.8018
 IR Inten    --      1.9998                21.9540                32.6517

                     16                     17                     18
                      A                      A                      A
 Frequencies --    801.6253               824.5616               839.4807
 Red. masses --      1.0659                 1.6303                 2.8406
 Frc consts  --      0.4036                 0.6531                 1.1795
 IR Inten    --      2.5318                33.5522                 5.1103

                     19                     20                     21
                      A                      A                      A
 Frequencies --    855.9607               881.3417               917.3268
 Red. masses --      1.2807                 2.3477                 2.0370
 Frc consts  --      0.5528                 1.0744                 1.0099
 IR Inten    --     17.0481                 3.4838                 5.6393

                     22                     23                     24
                      A                      A                      A
 Frequencies --    931.4549               958.2138               977.6718
 Red. masses --      1.6455                 1.7359                 1.7626
 Frc consts  --      0.8411                 0.9391                 0.9926
 IR Inten    --      0.6126                 4.7229                 0.9422

                     25                     26                     27
                      A                      A                      A
 Frequencies --    988.7681              1032.4020              1048.0500
 Red. masses --      2.6179                 1.6470                 1.2860
 Frc consts  --      1.5080                 1.0343                 0.8322
 IR Inten    --     14.8068                12.8126                 3.0650

                     28                     29                     30
                      A                      A                      A
 Frequencies --   1073.9207              1081.3623              1086.4353
 Red. masses --      2.0294                 1.8027                 1.4250
 Frc consts  --      1.3790                 1.2420                 0.9910
 IR Inten    --      3.6361                 8.5969                 1.1388

                     31                     32                     33
                      A                      A                      A
 Frequencies --   1098.7681              1118.7093              1136.4108
 Red. masses --      1.7705                 2.1488                 1.7205
 Frc consts  --      1.2594                 1.5845                 1.3091
 IR Inten    --      3.9418                 6.3518                 4.9371

                     34                     35                     36
                      A                      A                      A
 Frequencies --   1187.7380              1202.3181              1226.6349
 Red. masses --      2.6216                 1.3122                 1.0943
 Frc consts  --      2.1790                 1.1176                 0.9701
 IR Inten    --     16.2684                 0.0117                 3.0019

                     37                     38                     39
                      A                      A                      A
 Frequencies --   1243.6848              1291.1575              1311.4320
 Red. masses --      1.2075                 1.2726                 3.0190
 Frc consts  --      1.1004                 1.2499                 3.0592
 IR Inten    --      2.8467                 5.0379                 1.4803

                     40                     41                     42
                      A                      A                      A
 Frequencies --   1339.4951              1352.9852              1370.2340
 Red. masses --      1.3399                 1.6227                 1.7189
 Frc consts  --      1.4164                 1.7501                 1.9015
 IR Inten    --      2.8690                12.0118                13.5572

                     43                     44                     45
                      A                      A                      A
 Frequencies --   1411.3377              1440.5764              1447.8123
 Red. masses --      2.2179                 1.2752                 1.5095
 Frc consts  --      2.6028                 1.5593                 1.8643
 IR Inten    --      2.1938                 0.5850                17.3667

                     46                     47                     48
                      A                      A                      A
 Frequencies --   1490.8246              1498.2253              1502.4412
 Red. masses --      1.0877                 1.1488                 1.2245
 Frc consts  --      1.4244                 1.5193                 1.6286
 IR Inten    --      1.3863                 6.1001                 1.5455

                     49                     50                     51
                      A                      A                      A
 Frequencies --   1521.4236              1522.8727              1528.8265
 Red. masses --      1.0586                 1.0982                 1.1400
 Frc consts  --      1.4438                 1.5006                 1.5699
 IR Inten    --      4.8482                 0.7493                 5.4639

                     52                     53                     54
                      A                      A                      A
 Frequencies --   1536.5173              1537.4455              1751.6167
 Red. masses --      1.2251                 1.1130                 7.2071
 Frc consts  --      1.7041                 1.5501                13.0284
 IR Inten    --      0.8230                 2.0185                 1.0506

                     55                     56                     57
                      A                      A                      A
 Frequencies --   2892.3741              2927.1562              3035.6561
 Red. masses --      1.0751                 1.0736                 1.0595
 Frc consts  --      5.2989                 5.4199                 5.7526
 IR Inten    --     94.7832                94.3970                25.2445

                     58                     59                     60
                      A                      A                      A
 Frequencies --   3039.7058              3042.0920              3069.4969
 Red. masses --      1.0839                 1.0369                 1.0993
 Frc consts  --      5.9004                 5.6538                 6.1022
 IR Inten    --     47.7377                28.1782                36.4248

                     61                     62                     63
                      A                      A                      A
 Frequencies --   3085.1953              3105.5508              3111.8548
 Red. masses --      1.0891                 1.1018                 1.1024
 Frc consts  --      6.1076                 6.2608                 6.2896
 IR Inten    --     52.9239                31.0815                30.7077

                     64                     65                     66
                      A                      A                      A
 Frequencies --   3141.3462              3149.6922              3174.6382
 Red. masses --      1.0523                 1.0574                 1.0895
 Frc consts  --      6.1180                 6.1805                 6.4692
 IR Inten    --     19.2627                14.8121                19.0644

                     67                     68                     69
                      A                      A                      A
 Frequencies --   3218.9241              3233.9173              3506.2716
 Red. masses --      1.1188                 1.1158                 1.0746
 Frc consts  --      6.8301                 6.8752                 7.7840
 IR Inten    --      2.2214                23.8447                 2.2810

 - Thermochemistry -
 -------------------
 Temperature   298.150 Kelvin.  Pressure   1.00000 Atm.
 Atom     1 has atomic number  6 and mass  12.00000

 Molecular mass:   137.12045 amu.
 Principal axes and moments of inertia in atomic units:
                           1         2         3
     Eigenvalues --   689.525112086.593252307.10829
           X            1.00000  -0.00251  -0.00060
           Y            0.00251   1.00000   0.00020
           Z            0.00060  -0.00020   1.00000
 This molecule is an asymmetric top.
 Rotational symmetry number  1.
 Warning -- assumption of classical behavior for rotation
           may cause significant error
 Rotational temperatures (Kelvin)      0.12561     0.04151     0.03754
 Rotational constants (GHZ):           2.61737     0.86492     0.78225
 Zero-point vibrational energy     594803.7 (Joules/Mol)
                                  142.16149 (Kcal/Mol)
 Warning -- explicit consideration of  14 degrees of freedom as
           vibrations may cause significant error
 Vibrational temperatures:     83.59   135.17   263.47   301.77   324.23
          (Kelvin)            397.73   428.44   477.48   497.31   627.64
                              696.86   699.39   822.44   853.46  1076.21
                             1153.36  1186.36  1207.83  1231.54  1268.05
                             1319.83  1340.16  1378.66  1406.65  1422.62
                             1485.40  1507.91  1545.13  1555.84  1563.14
                             1580.88  1609.57  1635.04  1708.89  1729.87
                             1764.85  1789.38  1857.69  1886.86  1927.23
                             1946.64  1971.46  2030.60  2072.67  2083.08
                             2144.96  2155.61  2161.68  2188.99  2191.07
                             2199.64  2210.71  2212.04  2520.19  4161.48
                             4211.52  4367.63  4373.46  4376.89  4416.32
                             4438.91  4468.19  4477.27  4519.70  4531.70
                             4567.60  4631.31  4652.89  5044.74

 Zero-point correction=                           0.226549 (Hartree/Particle)
 Thermal correction to Energy=                    0.236347
 Thermal correction to Enthalpy=                  0.237291
 Thermal correction to Gibbs Free Energy=         0.191739
 Sum of electronic and zero-point Energies=           -406.502344
 Sum of electronic and thermal Energies=              -406.492546
 Sum of electronic and thermal Enthalpies=            -406.491602
 Sum of electronic and thermal Free Energies=         -406.537154

                     E (Thermal)             CV                S
                      KCal/Mol        Cal/Mol-Kelvin    Cal/Mol-Kelvin
 Total                  148.310             38.583             95.872
 Electronic               0.000              0.000              0.000
 Translational            0.889              2.981             40.659
 Rotational               0.889              2.981             29.586
 Vibrational            146.532             32.621             25.627
 Vibration     1          0.596              1.974              4.521
 Vibration     2          0.603              1.954              3.576
 Vibration     3          0.631              1.863              2.296
 Vibration     4          0.642              1.826              2.046
 Vibration     5          0.650              1.802              1.916
 Vibration     6          0.678              1.717              1.556
 Vibration     7          0.691              1.678              1.429
 Vibration     8          0.714              1.612              1.251
 Vibration     9          0.724              1.584              1.186
 Vibration    10          0.797              1.391              0.839
 Vibration    11          0.840              1.285              0.698
 Vibration    12          0.842              1.281              0.694
 Vibration    13          0.928              1.093              0.501
 Vibration    14          0.951              1.046              0.462

                           ! Non-Optimized Parameters !

 1\1\GINC-NODE104\Freq\RB3LYP\6-31G(d)\C9H15N1\VSC10255\08-Dec-2020\0\\
 #N Geom=AllCheck Guess=TCheck SCRF=Check GenChk RB3LYP/6-31G(d) Freq\\
 CID_68077918_JID_312_neutraal\\0,1\C,1.1275149474,-0.02936421,0.006338
 7143\C,0.6483550422,-0.6738696949,1.2993821943\C,-0.6292832575,-1.4750
 34361,1.2400136402\C,0.6968193416,-2.1863231026,1.3825156512\C,0.97469
 58763,0.096900885,2.5453185404\C,0.0466139532,0.7510126206,3.252086120
 5\C,0.3428181971,1.5123861572,4.5156867956\N,1.671555985,1.1853539795,
 5.0298442723\C,2.6855999907,1.2472719736,3.9790214535\C,2.4251938248,0

 Normal termination of Gaussian 16 at Tue Dec  8 10:27:42 2020.

 ----------------------------------------------------------------------
 # B3LYP/6-311++G(d,p) empiricaldispersion=gd3bj scf=xqc pop=npa geom=c
 heck
 ----------------------------------------------------------------------

 -------------------------------------
 CID_68077918_JID_312_Energie_neutraal
 -------------------------------------
 Structure from the checkpoint file:  "JID_312.chk"
 Charge =  0 Multiplicity = 1

 SCF Done:  E(RB3LYP) =  -406.842763852     A.U. after   13 cycles
 Normal termination of Gaussian 16 at Tue Dec  8 10:29:45 2020.

 ----------------------------------------------------------------------
 # B3LYP/6-311++G(d,p) empiricaldispersion=gd3bj scf=xqc pop=npa geom=c
 heck
 ----------------------------------------------------------------------

 -----------------------------------
 CID_68077918_JID_312_Energie_kation
 -----------------------------------
 Structure from the checkpoint file:  "JID_312.chk"
 Charge =  1 Multiplicity = 2

 SCF Done:  E(UB3LYP) =  -406.544335466     A.U. after   22 cycles
 Normal termination of Gaussian 16 at Tue Dec  8 10:35:37 2020.
 Gaussian 16:  ES64L-G16RevA.03 25-Dec-2016

 ----------------------------------
 CID_68077918_JID_312_Energie_anion
 ----------------------------------
 Structure from the checkpoint file:  "JID_312.chk"
 Charge = -1 Multiplicity = 2

                         Standard orientation:
 ---------------------------------------------------------------------
 Center     Atomic      Atomic             Coordinates (Angstroms)
 Number     Number       Type             X           Y           Z
 ---------------------------------------------------------------------
      1          6           0        2.103916   -0.941519    1.220181
      2          6           0        1.550397   -0.051961    0.115986
      3          6           0        2.366330    1.157106   -0.271519
      4          6           0        2.298203   -0.032135   -1.202031
      5          6           0        0.052376    0.024614    0.061092
      6          6           0       -0.627684    1.114941    0.431800
      7          6           0       -2.126834    1.225986    0.365995
      8          7           0       -2.701637    0.145184   -0.432955
      9          6           0       -2.161135   -1.156482   -0.045823
     10          6           0       -0.680811   -1.206935   -0.425741
     11          1           0        1.818511   -0.556995    2.206428
     12          1           0        3.197859   -0.985672    1.175209
     13          1           0        1.728294   -1.968278    1.138614
     14          1           0        1.843112    2.059595   -0.571270
     15          1           0        3.294191    1.335936    0.265567
     16          1           0        3.176531   -0.664832   -1.302627
     17          1           0        1.717936    0.078309   -2.113922
     18          1           0       -0.094006    1.985173    0.808353
     19          1           0       -2.405084    2.184548   -0.093511
     20          1           0       -2.522087    1.256075    1.403665
     21          1           0       -3.713101    0.147925   -0.326861
     22          1           0       -2.259436   -1.355702    1.039659
     23          1           0       -2.718413   -1.937787   -0.573842
     24          1           0       -0.222138   -2.112265   -0.007530
     25          1           0       -0.579256   -1.284006   -1.516891
 ---------------------------------------------------------------------

 SCF Done:  E(UB3LYP) =  -406.825224919     A.U. after   32 cycles

 The electronic state is 2-A.
 Alpha  occ. eigenvalues --  -14.18500 -10.08390 -10.08263 -10.07894 -10.06730
 Alpha  occ. eigenvalues --  -10.06569 -10.06413 -10.05752 -10.05714 -10.05384
 Alpha  occ. eigenvalues --   -0.80249  -0.76655  -0.67639  -0.64154  -0.60714
 Alpha  occ. eigenvalues --   -0.53861  -0.51909  -0.49477  -0.45581  -0.41058
 Alpha  occ. eigenvalues --   -0.39748  -0.37467  -0.35207  -0.33918  -0.33338
 Alpha  occ. eigenvalues --   -0.31574  -0.29703  -0.29109  -0.28149  -0.27500
 Alpha  occ. eigenvalues --   -0.25962  -0.25865  -0.23290  -0.21590  -0.19161
 Alpha  occ. eigenvalues --   -0.17390  -0.13302  -0.11589   0.04793
 Alpha virt. eigenvalues --    0.06748   0.07803   0.08472   0.09164   0.09301
 Alpha virt. eigenvalues --    0.10084   0.10548   0.10958   0.11462   0.11891
 Alpha virt. eigenvalues --    0.12306   0.13090   0.14039   0.14540   0.15201

  Beta  occ. eigenvalues --  -14.18470 -10.08363 -10.08260 -10.07866 -10.06718
  Beta  occ. eigenvalues --  -10.06552 -10.06411 -10.05739 -10.05680 -10.05373
  Beta  occ. eigenvalues --   -0.80206  -0.76643  -0.67609  -0.64106  -0.60666
  Beta  occ. eigenvalues --   -0.53804  -0.51853  -0.49426  -0.45518  -0.40991
  Beta  occ. eigenvalues --   -0.39710  -0.37427  -0.35162  -0.33881  -0.33290
  Beta  occ. eigenvalues --   -0.31542  -0.29668  -0.29075  -0.28107  -0.27457
  Beta  occ. eigenvalues --   -0.25935  -0.25833  -0.23252  -0.21552  -0.19137
  Beta  occ. eigenvalues --   -0.17371  -0.13272  -0.11531
  Beta virt. eigenvalues --    0.07072   0.08003   0.08484   0.08880   0.09892
  Beta virt. eigenvalues --    0.09983   0.10600   0.10843   0.11312   0.11793
  Beta virt. eigenvalues --    0.12450   0.12845   0.13473   0.14311   0.14685

 Mulliken charges and spin densities:
               1          2
     1  C    1.253687  -1.905120
     2  C   -2.115632   2.774046
     3  C    0.247389  -0.606514
     4  C    0.046139  -0.540933
     5  C    2.009182  -1.624300
     6  C   -1.785294   1.556067
     7  C    1.977999  -2.617075
     8  N   -0.500542   0.380152
     9  C    1.288483  -1.819325
    10  C   -0.923452   0.574249
    11  H   -0.094410   0.249906
    12  H   -0.305075   0.446152
    13  H   -0.257636   0.397857
    14  H    0.031918   0.103365
    15  H   -0.192931   0.337612
    16  H   -0.146603   0.295769
    17  H    0.068484   0.070910
    18  H   -0.217157   0.401205
    19  H   -0.170086   0.326778
    20  H   -0.424771   0.565606
    21  H   -0.211046   0.469543
    22  H   -0.104687   0.217636
    23  H   -0.504725   0.684572
    24  H   -0.022713   0.150092
    25  H    0.053481   0.111749
 Sum of Mulliken charges =  -1.00000   1.00000

 Dipole moment (field-independent basis, Debye):
    X=              2.6407    Y=              0.8190    Z=             -1.6994  Tot=              3.2453
 Quadrupole moment (field-independent basis, Debye-Ang):
   XX=           -135.0682   YY=            -98.9504   ZZ=            -94.8234
   XY=              2.0311   XZ=             -2.9876   YZ=              1.0895

 Summary of Natural Population Analysis:

                                       Natural Population
                Natural  -----------------------------------------------
    Atom  No    Charge         Core      Valence    Rydberg      Total
 -----------------------------------------------------------------------
      C    1   -0.27501      0.99962     2.26964    0.00574     3.27501
      C    2   -0.05690      0.99952     2.04357    0.01381     3.05690
      C    3   -0.19414      0.99959     2.18567    0.00888     3.19414
      C    4   -0.19293      0.99959     2.18494    0.00840     3.19293
      C    5   -0.00412      0.99944     1.99231    0.01237     3.00412
      C    6   -0.09335      0.99944     2.08475    0.00915     3.09335
      C    7   -0.09842      0.99961     2.08653    0.01228     3.09842
      N    8   -0.33950      0.99974     2.82701    0.01275     3.83950
      C    9   -0.08397      0.99963     2.07260    0.01173     3.08397
      C   10   -0.20329      0.99958     2.19447    0.00924     3.20329
      H   11    0.10100      0.00000     0.39772    0.00129     0.39900
      H   12    0.09935      0.00000     0.39904    0.00161     0.40065
      H   13    0.09949      0.00000     0.39922    0.00129     0.40051
      H   14    0.10427      0.00000     0.39468    0.00104     0.39573
      H   15    0.10112      0.00000     0.39775    0.00114     0.39888
      H   16    0.10022      0.00000     0.39879    0.00099     0.39978
      H   17    0.10256      0.00000     0.39649    0.00095     0.39744
      H   18    0.09766      0.00000     0.40090    0.00144     0.40234
      H   19    0.09671      0.00000     0.40184    0.00146     0.40329
      H   20    0.08536      0.00000     0.41236    0.00229     0.41464
      H   21    0.17804      0.00000     0.31687    0.00509     0.32196
      H   22    0.07734      0.00000     0.42040    0.00226     0.42266
      H   23    0.09560      0.00000     0.40272    0.00168     0.40440
      H   24    0.10106      0.00000     0.39757    0.00137     0.39894
      H   25    0.10186      0.00000     0.39651    0.00163     0.39814
 =======================================================================
   * Total *   -0.00000      9.99577    27.87434    0.12989    38.00000

 Normal termination of Gaussian 16 at Tue Dec  8 10:44:45 2020.
