 Gaussian 16, Revision A.03,

 -----------------------------------------------------------
 # opt freq B3LYP/6-31G(d) empiricaldispersion=gd3bj scf=xqc
 -----------------------------------------------------------

 ------------------------------
 CID_21856062_JID_1445_neutraal
 ------------------------------
 Symbolic Z-matrix:
 Charge =  0 Multiplicity = 1

 SCF Done:  E(RB3LYP) =  -467.136605623     A.U. after   14 cycles
 SCF Done:  E(RB3LYP) =  -467.136997404     A.U. after   11 cycles
 SCF Done:  E(RB3LYP) =  -467.139436096     A.U. after   12 cycles
 SCF Done:  E(RB3LYP) =  -467.139196923     A.U. after   12 cycles
 SCF Done:  E(RB3LYP) =  -467.140205085     A.U. after   11 cycles
 SCF Done:  E(RB3LYP) =  -467.140492952     A.U. after   10 cycles
 SCF Done:  E(RB3LYP) =  -467.140381262     A.U. after   12 cycles
 SCF Done:  E(RB3LYP) =  -467.140997538     A.U. after   11 cycles
 SCF Done:  E(RB3LYP) =  -467.141163928     A.U. after   11 cycles
 SCF Done:  E(RB3LYP) =  -467.141277301     A.U. after   11 cycles
 SCF Done:  E(RB3LYP) =  -467.154086568     A.U. after    9 cycles
 SCF Done:  E(RB3LYP) =  -467.154090690     A.U. after    9 cycles
 SCF Done:  E(RB3LYP) =  -467.154091026     A.U. after    7 cycles
 SCF Done:  E(RB3LYP) =  -467.154091169     A.U. after    6 cycles
 SCF Done:  E(RB3LYP) =  -467.154091231     A.U. after    6 cycles
 Optimization completed.
    -- Stationary point found.
 Normal termination of Gaussian 16 at Tue Dec  8 20:31:42 2020.

 --------------------------------------------------------------------
 #N Geom=AllCheck Guess=TCheck SCRF=Check GenChk RB3LYP/6-31G(d) Freq
 --------------------------------------------------------------------

 Structure from the checkpoint file:  "JID_1445.chk"
 ------------------------------
 CID_21856062_JID_1445_neutraal
 ------------------------------
 Charge =  0 Multiplicity = 1

 SCF Done:  E(RB3LYP) =  -467.154091231     A.U. after    1 cycles

  Exact polarizability: 114.046  -2.516 103.579  -0.021   5.121  94.248
 Approx polarizability: 141.421  -4.519 152.117  -0.792  17.214 145.573

                      1                      2                      3
                      A                      A                      A
 Frequencies --     55.2868                86.7200               146.8965
 Red. masses --      2.9328                 2.9821                 3.0904
 Frc consts  --      0.0053                 0.0132                 0.0393
 IR Inten    --      0.2625                 0.1389                 0.8499

                      4                      5                      6
                      A                      A                      A
 Frequencies --    159.0346               217.3022               239.1094
 Red. masses --      3.0711                 2.6053                 2.8969
 Frc consts  --      0.0458                 0.0725                 0.0976
 IR Inten    --      0.9370                 0.0822                 2.0130

                      7                      8                      9
                      A                      A                      A
 Frequencies --    276.4545               293.5357               306.1995
 Red. masses --      1.1225                 1.3208                 1.4572
 Frc consts  --      0.0505                 0.0671                 0.0805
 IR Inten    --      0.0908                 0.2880                 0.1852

                     10                     11                     12
                      A                      A                      A
 Frequencies --    334.8193               367.2988               407.7964
 Red. masses --      2.3561                 2.1884                 2.7050
 Frc consts  --      0.1556                 0.1739                 0.2650
 IR Inten    --      1.8443                 0.7887                 6.6918

                     13                     14                     15
                      A                      A                      A
 Frequencies --    431.0385               452.2294               502.3187
 Red. masses --      2.5478                 3.1248                 2.8085
 Frc consts  --      0.2789                 0.3765                 0.4175
 IR Inten    --      0.0120                 1.2089                 8.5321

                     16                     17                     18
                      A                      A                      A
 Frequencies --    536.4908               622.5506               640.9253
 Red. masses --      2.1722                 2.2399                 3.9683
 Frc consts  --      0.3684                 0.5115                 0.9604
 IR Inten    --      0.9293                 3.5427                 2.3750

                     19                     20                     21
                      A                      A                      A
 Frequencies --    732.5772               802.4213               831.5321
 Red. masses --      1.2585                 2.1860                 2.7243
 Frc consts  --      0.3979                 0.8293                 1.1099
 IR Inten    --      2.6998                 5.5516                 0.7147

                     22                     23                     24
                      A                      A                      A
 Frequencies --    843.0825               881.6423               888.7689
 Red. masses --      1.6928                 2.1969                 2.7158
 Frc consts  --      0.7089                 1.0061                 1.2639
 IR Inten    --      5.5822                 8.8310                12.0109

                     25                     26                     27
                      A                      A                      A
 Frequencies --    922.9370               934.7033               942.3355
 Red. masses --      2.0228                 1.2924                 1.2328
 Frc consts  --      1.0152                 0.6653                 0.6450
 IR Inten    --      2.5088                20.6568                13.4067

                     28                     29                     30
                      A                      A                      A
 Frequencies --    952.4583               973.7448               979.4245
 Red. masses --      1.5872                 1.6530                 1.7751
 Frc consts  --      0.8483                 0.9234                 1.0032
 IR Inten    --      1.2911                 2.1252                 3.4787

                     31                     32                     33
                      A                      A                      A
 Frequencies --   1038.0968              1063.3533              1070.1556
 Red. masses --      1.8376                 2.0058                 1.9684
 Frc consts  --      1.1668                 1.3363                 1.3282
 IR Inten    --     19.1311                25.4861                23.4755

                     34                     35                     36
                      A                      A                      A
 Frequencies --   1096.4222              1130.9386              1135.2955
 Red. masses --      2.1788                 2.0363                 2.2037
 Frc consts  --      1.5432                 1.5345                 1.6735
 IR Inten    --     33.8504                12.7996                22.9421

                     37                     38                     39
                      A                      A                      A
 Frequencies --   1150.5894              1208.2378              1222.8732
 Red. masses --      1.8902                 1.9020                 1.3664
 Frc consts  --      1.4743                 1.6360                 1.2039
 IR Inten    --      2.8817                 1.6303                 4.0718

                     40                     41                     42
                      A                      A                      A
 Frequencies --   1234.4475              1284.7934              1306.0945
 Red. masses --      1.6196                 2.0200                 1.2410
 Frc consts  --      1.4542                 1.9646                 1.2473
 IR Inten    --     20.1495                 0.4631                 4.3264

                     43                     44                     45
                      A                      A                      A
 Frequencies --   1330.0113              1362.4532              1370.4011
 Red. masses --      1.1886                 1.3158                 1.4081
 Frc consts  --      1.2388                 1.4390                 1.5580
 IR Inten    --      4.6511                 2.5861                 7.8703

                     46                     47                     48
                      A                      A                      A
 Frequencies --   1370.9952              1385.3156              1388.6626
 Red. masses --      1.3091                 1.5375                 1.3222
 Frc consts  --      1.4498                 1.7384                 1.5022
 IR Inten    --      1.3306                 0.6157                12.4396

                     49                     50                     51
                      A                      A                      A
 Frequencies --   1403.7908              1415.6872              1420.8046
 Red. masses --      1.4335                 1.2869                 1.3496
 Frc consts  --      1.6644                 1.5196                 1.6051
 IR Inten    --      0.4538                 3.9915                 4.1131

                     52                     53                     54
                      A                      A                      A
 Frequencies --   1433.5242              1442.2282              1482.1344
 Red. masses --      1.3063                 1.2331                 1.1946
 Frc consts  --      1.5816                 1.5112                 1.5461
 IR Inten    --     10.2958                 2.5010                 8.8949

                     55                     56                     57
                      A                      A                      A
 Frequencies --   1507.6867              1516.6801              1517.9900
 Red. masses --      1.0977                 1.0815                 1.0458
 Frc consts  --      1.4701                 1.4657                 1.4198
 IR Inten    --      3.3194                 3.0354                 0.4743

                     58                     59                     60
                      A                      A                      A
 Frequencies --   1524.5721              1532.8671              1535.8201
 Red. masses --      1.0920                 1.0609                 1.0675
 Frc consts  --      1.4955                 1.4687                 1.4836
 IR Inten    --      6.4076                 2.3982                 1.9183

                     61                     62                     63
                      A                      A                      A
 Frequencies --   1536.4574              1551.8272              1722.9885
 Red. masses --      1.0654                 1.0556                 4.8774
 Frc consts  --      1.4818                 1.4977                 8.5311
 IR Inten    --      7.7565                 8.9567                 6.5113

                     64                     65                     66
                      A                      A                      A
 Frequencies --   3017.2712              3029.1333              3041.5658
 Red. masses --      1.0684                 1.0836                 1.0601
 Frc consts  --      5.7310                 5.8579                 5.7780
 IR Inten    --     30.8862                23.2334                27.8003

                     67                     68                     69
                      A                      A                      A
 Frequencies --   3046.4174              3048.5356              3051.8950
 Red. masses --      1.0446                 1.0606                 1.0394
 Frc consts  --      5.7117                 5.8073                 5.7037
 IR Inten    --     28.2092                 4.7102                27.1406

                     70                     71                     72
                      A                      A                      A
 Frequencies --   3052.9987              3064.3913              3081.4482
 Red. masses --      1.0615                 1.0800                 1.1012
 Frc consts  --      5.8295                 5.9755                 6.1604
 IR Inten    --     36.2020                46.2591                28.3257

                     73                     74                     75
                      A                      A                      A
 Frequencies --   3093.2097              3101.2187              3106.2014
 Red. masses --      1.0991                 1.1018                 1.0984
 Frc consts  --      6.1962                 6.2436                 6.2439
 IR Inten    --     49.2462                37.0396                53.9273

                     76                     77                     78
                      A                      A                      A
 Frequencies --   3110.1335              3112.6552              3127.6909
 Red. masses --      1.1019                 1.1015                 1.1021
 Frc consts  --      6.2798                 6.2880                 6.3519
 IR Inten    --     18.6648                59.0787                23.8951

                     79                     80                     81
                      A                      A                      A
 Frequencies --   3152.8580              3164.4023              3245.3341
 Red. masses --      1.0995                 1.0629                 1.1117
 Frc consts  --      6.4396                 6.2709                 6.8984
 IR Inten    --     19.2000                14.2239                19.4269

 - Thermochemistry -
 -------------------
 Temperature   298.150 Kelvin.  Pressure   1.00000 Atm.
 Atom     1 has atomic number  6 and mass  12.00000

 Molecular mass:   154.13577 amu.
 Principal axes and moments of inertia in atomic units:
                           1         2         3
     Eigenvalues --  1015.506142210.297342484.39736
           X            0.99989  -0.01395  -0.00529
           Y            0.01374   0.99920  -0.03749
           Z            0.00581   0.03742   0.99928
 This molecule is an asymmetric top.
 Rotational symmetry number  1.
 Warning -- assumption of classical behavior for rotation
           may cause significant error
 Rotational temperatures (Kelvin)      0.08529     0.03919     0.03486
 Rotational constants (GHZ):           1.77718     0.81652     0.72643
 Zero-point vibrational energy     700432.6 (Joules/Mol)
                                  167.40741 (Kcal/Mol)
 Warning -- explicit consideration of  16 degrees of freedom as
           vibrations may cause significant error
 Vibrational temperatures:     79.55   124.77   211.35   228.82   312.65
          (Kelvin)            344.03   397.76   422.33   440.55   481.73
                              528.46   586.73   620.17   650.66   722.72
                              771.89   895.71   922.15  1054.02  1154.51
                             1196.39  1213.01  1268.49  1278.74  1327.90
                             1344.83  1355.81  1370.38  1401.00  1409.17
                             1493.59  1529.93  1539.72  1577.51  1627.17
                             1633.44  1655.44  1738.38  1759.44  1776.09
                             1848.53  1879.18  1913.59  1960.27  1971.70
                             1972.56  1993.16  1997.98  2019.74  2036.86
                             2044.22  2062.52  2075.04  2132.46  2169.22
                             2182.16  2184.05  2193.52  2205.45  2209.70
                             2210.62  2232.73  2479.00  4341.18  4358.25
                             4376.13  4383.12  4386.16  4391.00  4392.58
                             4408.98  4433.52  4450.44  4461.96  4469.13
                             4474.79  4478.42  4500.05  4536.26  4552.87
                             4669.31

 Zero-point correction=                           0.266781 (Hartree/Particle)
 Thermal correction to Energy=                    0.278145
 Thermal correction to Enthalpy=                  0.279089
 Thermal correction to Gibbs Free Energy=         0.230349
 Sum of electronic and zero-point Energies=           -466.887311
 Sum of electronic and thermal Energies=              -466.875947
 Sum of electronic and thermal Enthalpies=            -466.875002
 Sum of electronic and thermal Free Energies=         -466.923742

                     E (Thermal)             CV                S
                      KCal/Mol        Cal/Mol-Kelvin    Cal/Mol-Kelvin
 Total                  174.538             45.020            102.581
 Electronic               0.000              0.000              0.000
 Translational            0.889              2.981             41.008
 Rotational               0.889              2.981             30.101
 Vibrational            172.761             39.058             31.473
 Vibration     1          0.596              1.975              4.619
 Vibration     2          0.601              1.958              3.733
 Vibration     3          0.617              1.906              2.712
 Vibration     4          0.621              1.892              2.561
 Vibration     5          0.646              1.815              1.981
 Vibration     6          0.657              1.781              1.809
 Vibration     7          0.678              1.717              1.556
 Vibration     8          0.688              1.686              1.453
 Vibration     9          0.697              1.662              1.383
 Vibration    10          0.716              1.606              1.237
 Vibration    11          0.740              1.539              1.091
 Vibration    12          0.772              1.453              0.934
 Vibration    13          0.792              1.403              0.855
 Vibration    14          0.811              1.356              0.789
 Vibration    15          0.858              1.245              0.652
 Vibration    16          0.892              1.169              0.573

                           ! Non-Optimized Parameters !
 Normal termination of Gaussian 16 at Tue Dec  8 20:41:52 2020.

 ----------------------------------------------------------------------
 # B3LYP/6-311++G(d,p) empiricaldispersion=gd3bj scf=xqc pop=npa geom=c
 heck
 ----------------------------------------------------------------------

 --------------------------------------
 CID_21856062_JID_1445_Energie_neutraal
 --------------------------------------
 Structure from the checkpoint file:  "JID_1445.chk"
 Charge =  0 Multiplicity = 1

 SCF Done:  E(RB3LYP) =  -467.284149621     A.U. after   13 cycles
 Normal termination of Gaussian 16 at Tue Dec  8 20:45:15 2020.

 ----------------------------------------------------------------------
 # B3LYP/6-311++G(d,p) empiricaldispersion=gd3bj scf=xqc pop=npa geom=c
 heck
 ----------------------------------------------------------------------

 ------------------------------------
 CID_21856062_JID_1445_Energie_kation
 ------------------------------------
 Structure from the checkpoint file:  "JID_1445.chk"
 Charge =  1 Multiplicity = 2

 SCF Done:  E(UB3LYP) =  -466.961243571     A.U. after   24 cycles
 Normal termination of Gaussian 16 at Tue Dec  8 20:54:24 2020.
 Gaussian 16:  ES64L-G16RevA.03 25-Dec-2016

 ----------------------------------------------------------------------
 # B3LYP/6-311++G(d,p) empiricaldispersion=gd3bj scf=xqc pop=npa geom=c
 heck
 ----------------------------------------------------------------------

 -----------------------------------
 CID_21856062_JID_1445_Energie_anion
 -----------------------------------
 Structure from the checkpoint file:  "JID_1445.chk"
 Charge = -1 Multiplicity = 2

                         Standard orientation:
 ---------------------------------------------------------------------
 Center     Atomic      Atomic             Coordinates (Angstroms)
 Number     Number       Type             X           Y           Z
 ---------------------------------------------------------------------
      1          6           0        2.155847   -1.167412    1.011488
      2          6           0        2.148180    0.172253    0.251851
      3          6           0        2.723337   -0.015949   -1.161044
      4          6           0        0.779473    0.851833    0.250993
      5          6           0        0.534513    1.842030    1.114887
      6          6           0       -0.224749    0.405773   -0.805910
      7          6           0       -1.594380    1.105145   -0.809677
      8          6           0       -2.522991    0.606011    0.306633
      9          6           0       -2.588918   -0.925348    0.276919
     10          6           0       -1.173763   -1.495632    0.303902
     11          8           0       -0.397743   -1.023105   -0.796322
     12          1           0        1.569276   -1.919717    0.479128
     13          1           0        1.743338   -1.050697    2.019442
     14          1           0        3.183405   -1.538739    1.106599
     15          1           0        2.820457    0.850137    0.794721
     16          1           0        2.135754   -0.743553   -1.730145
     17          1           0        2.741720    0.927947   -1.718181
     18          1           0        3.751427   -0.390485   -1.101137
     19          1           0       -0.413881    2.365910    1.162375
     20          1           0        1.297076    2.174783    1.815441
     21          1           0        0.243103    0.590968   -1.779541
     22          1           0       -2.061934    0.879337   -1.776133
     23          1           0       -1.463221    2.191656   -0.768721
     24          1           0       -2.149440    0.928273    1.285806
     25          1           0       -3.521706    1.042296    0.186128
     26          1           0       -3.162350   -1.312549    1.128620
     27          1           0       -3.090435   -1.261874   -0.639884
     28          1           0       -0.685240   -1.235282    1.255057
     29          1           0       -1.174696   -2.585805    0.210742
 ---------------------------------------------------------------------

 SCF Done:  E(UB3LYP) =  -467.265956484     A.U. after   33 cycles
 SCF Done:  E(UB3LYP) =  -467.265956484     a.u. after    1 cycles

 The electronic state is 2-A.
 Alpha  occ. eigenvalues --  -19.01564 -10.11692 -10.10609 -10.07403 -10.07264
 Alpha  occ. eigenvalues --  -10.06102 -10.06068 -10.06027 -10.05548 -10.05252
 Alpha  occ. eigenvalues --  -10.05035  -0.92776  -0.72010  -0.69341  -0.66405
 Alpha  occ. eigenvalues --   -0.62772  -0.57850  -0.54393  -0.53473  -0.49533
 Alpha  occ. eigenvalues --   -0.46902  -0.41095  -0.39628  -0.37265  -0.36191
 Alpha  occ. eigenvalues --   -0.35035  -0.33126  -0.32514  -0.31906  -0.30390
 Alpha  occ. eigenvalues --   -0.29529  -0.28931  -0.27267  -0.27261  -0.26403
 Alpha  occ. eigenvalues --   -0.24036  -0.23515  -0.22654  -0.22224  -0.21525
 Alpha  occ. eigenvalues --   -0.19268  -0.15407  -0.14914   0.04783
 Alpha virt. eigenvalues --    0.06655   0.07435   0.07943   0.08804   0.09154
 Alpha virt. eigenvalues --    0.09405   0.09797   0.10481   0.11233   0.11556
 Alpha virt. eigenvalues --    0.12122   0.12622   0.12767   0.13425   0.14436

  Beta  occ. eigenvalues --  -19.01559 -10.11687 -10.10594 -10.07392 -10.07253
  Beta  occ. eigenvalues --  -10.06084 -10.06047 -10.06006 -10.05519 -10.05228
  Beta  occ. eigenvalues --  -10.05012  -0.92762  -0.71975  -0.69303  -0.66371
  Beta  occ. eigenvalues --   -0.62731  -0.57801  -0.54343  -0.53423  -0.49470
  Beta  occ. eigenvalues --   -0.46847  -0.41047  -0.39567  -0.37235  -0.36144
  Beta  occ. eigenvalues --   -0.34988  -0.33098  -0.32482  -0.31880  -0.30351
  Beta  occ. eigenvalues --   -0.29497  -0.28895  -0.27234  -0.27223  -0.26368
  Beta  occ. eigenvalues --   -0.24001  -0.23484  -0.22609  -0.22183  -0.21492
  Beta  occ. eigenvalues --   -0.19242  -0.15329  -0.14876
  Beta virt. eigenvalues --    0.06983   0.07753   0.08160   0.08369   0.09328
  Beta virt. eigenvalues --    0.09703   0.09982   0.10210   0.10836   0.11620
  Beta virt. eigenvalues --    0.12184   0.12585   0.13000   0.13097   0.13751

 Mulliken charges and spin densities:
               1          2
     1  C    0.734881  -1.387862
     2  C   -1.626846   1.761671
     3  C    0.903760  -1.564176
     4  C   -0.561621   1.178938
     5  C    2.086913  -2.674021
     6  C   -1.383018   1.025971
     7  C    1.094621  -1.485661
     8  C   -0.399389   0.184214
     9  C    0.962927  -1.402145
    10  C   -0.186379   0.009092
    11  O   -0.060007   0.054400
    12  H   -0.058661   0.223477
    13  H   -0.012836   0.146599
    14  H   -0.351423   0.486980
    15  H   -0.494004   0.665980
    16  H   -0.005139   0.190663
    17  H   -0.084442   0.210918
    18  H   -0.198428   0.351457
    19  H   -0.038190   0.167043
    20  H   -0.088835   0.220277
    21  H   -0.018652   0.231332
    22  H   -0.211549   0.371742
    23  H   -0.173099   0.332628
    24  H    0.172424  -0.055435
    25  H   -0.643130   0.824678
    26  H   -0.532777   0.684195
    27  H    0.022617   0.129163
    28  H    0.251843  -0.145268
    29  H   -0.101561   0.263149
 Sum of Mulliken charges =  -1.00000   1.00000

 Dipole moment (field-independent basis, Debye):
    X=              0.4691    Y=             -0.7379    Z=              0.0580  Tot=              0.8763
 Quadrupole moment (field-independent basis, Debye-Ang):
   XX=           -143.0725   YY=           -111.0886   ZZ=           -103.0058
   XY=              1.5111   XZ=             -1.8312   YZ=              2.5634

 Summary of Natural Population Analysis:

                                       Natural Population
                Natural  -----------------------------------------------
    Atom  No    Charge         Core      Valence    Rydberg      Total
 -----------------------------------------------------------------------
      C    1   -0.28178      0.99964     2.27576    0.00639     3.28178
      C    2   -0.12530      0.99957     2.11274    0.01300     3.12530
      C    3   -0.28638      0.99965     2.28014    0.00659     3.28638
      C    4   -0.00193      0.99948     1.98951    0.01295     3.00193
      C    5   -0.18967      0.99948     2.18232    0.00787     3.18967
      C    6    0.05098      0.99947     1.93374    0.01581     2.94902
      C    7   -0.20266      0.99962     2.19295    0.01009     3.20266
      C    8   -0.19217      0.99962     2.18373    0.00882     3.19217
      C    9   -0.20172      0.99963     2.19365    0.00844     3.20172
      C   10   -0.01278      0.99956     2.00042    0.01280     3.01278
      O   11   -0.30604      0.99989     3.29736    0.00879     4.30604
      H   12    0.10293      0.00000     0.39569    0.00137     0.39707
      H   13    0.09794      0.00000     0.40099    0.00107     0.40206
      H   14    0.09754      0.00000     0.40139    0.00107     0.40246
      H   15    0.09554      0.00000     0.40216    0.00230     0.40446
      H   16    0.10192      0.00000     0.39683    0.00125     0.39808
      H   17    0.09893      0.00000     0.39997    0.00110     0.40107
      H   18    0.09952      0.00000     0.39955    0.00092     0.40048
      H   19    0.09418      0.00000     0.40463    0.00119     0.40582
      H   20    0.09326      0.00000     0.40537    0.00136     0.40674
      H   21    0.10021      0.00000     0.39787    0.00192     0.39979
      H   22    0.10088      0.00000     0.39772    0.00140     0.39912
      H   23    0.10435      0.00000     0.39424    0.00141     0.39565
      H   24    0.09466      0.00000     0.40373    0.00161     0.40534
      H   25    0.10118      0.00000     0.39688    0.00194     0.39882
      H   26    0.10009      0.00000     0.39846    0.00145     0.39991
      H   27    0.09552      0.00000     0.40302    0.00146     0.40448
      H   28    0.08049      0.00000     0.41782    0.00169     0.41951
      H   29    0.09031      0.00000     0.40852    0.00117     0.40969
 =======================================================================
   * Total *   -0.00000     10.99561    31.86716    0.13724    43.00000

 Normal termination of Gaussian 16 at Tue Dec  8 21:07:04 2020.
