 Gaussian 16, Revision A.03,

 -----------------------------------------------------------
 # opt freq B3LYP/6-31G(d) empiricaldispersion=gd3bj scf=xqc
 -----------------------------------------------------------

 --------------------------------
 CID_128338024_JID_10011_neutraal
 --------------------------------
 Symbolic Z-matrix:
 Charge =  0 Multiplicity = 1

 SCF Done:  E(RB3LYP) =  -947.052561271     A.U. after   15 cycles
 SCF Done:  E(RB3LYP) =  -947.060948816     A.U. after   13 cycles
 SCF Done:  E(RB3LYP) =  -947.062358818     A.U. after   12 cycles
 SCF Done:  E(RB3LYP) =  -947.062596699     A.U. after   12 cycles
 SCF Done:  E(RB3LYP) =  -947.063069277     A.U. after   12 cycles
 SCF Done:  E(RB3LYP) =  -947.063237748     A.U. after   10 cycles
 SCF Done:  E(RB3LYP) =  -947.063296796     A.U. after   10 cycles
 SCF Done:  E(RB3LYP) =  -947.063319793     A.U. after    9 cycles
 SCF Done:  E(RB3LYP) =  -947.063339231     A.U. after    9 cycles
 SCF Done:  E(RB3LYP) =  -947.063352984     A.U. after   10 cycles
 SCF Done:  E(RB3LYP) =  -947.063356957     A.U. after    8 cycles
 SCF Done:  E(RB3LYP) =  -947.063358261     A.U. after    9 cycles
 SCF Done:  E(RB3LYP) =  -947.063358685     A.U. after    8 cycles
 SCF Done:  E(RB3LYP) =  -947.063358873     A.U. after    7 cycles
 SCF Done:  E(RB3LYP) =  -947.063358928     A.U. after    7 cycles
 Optimization completed.
    -- Stationary point found.
 Normal termination of Gaussian 16 at Mon Dec 14 13:33:05 2020.

 --------------------------------------------------------------------
 #N Geom=AllCheck Guess=TCheck SCRF=Check GenChk RB3LYP/6-31G(d) Freq
 --------------------------------------------------------------------

 Structure from the checkpoint file:  "JID_10011.chk"
 --------------------------------
 CID_128338024_JID_10011_neutraal
 --------------------------------
 Charge =  0 Multiplicity = 1

 SCF Done:  E(RB3LYP) =  -947.063358928     A.U. after    1 cycles

  Exact polarizability: 178.098  -5.630 182.632  -5.264   4.441 124.105
 Approx polarizability: 235.604  -1.412 277.520 -11.172  19.530 206.085

                      1                      2                      3
                      A                      A                      A
 Frequencies --     18.9153                26.8055                38.4981
 Red. masses --      4.5832                 4.6790                 4.1109
 Frc consts  --      0.0010                 0.0020                 0.0036
 IR Inten    --      0.1863                 0.2630                 1.0265

                      4                      5                      6
                      A                      A                      A
 Frequencies --     47.9995                60.5508                82.0734
 Red. masses --      3.7336                 3.0889                 4.1957
 Frc consts  --      0.0051                 0.0067                 0.0167
 IR Inten    --      0.2580                 0.3813                 0.3117

                      7                      8                      9
                      A                      A                      A
 Frequencies --    105.6804               127.6830               136.9012
 Red. masses --      5.3785                 2.2368                 1.1166
 Frc consts  --      0.0354                 0.0215                 0.0123
 IR Inten    --      0.7624                 4.7336                 0.1807

                     10                     11                     12
                      A                      A                      A
 Frequencies --    153.3037               164.8268               189.1106
 Red. masses --      2.7932                 1.4425                 1.7315
 Frc consts  --      0.0387                 0.0231                 0.0365
 IR Inten    --      0.6649                 0.0270                10.0745

                     13                     14                     15
                      A                      A                      A
 Frequencies --    197.7980               198.2812               240.5703
 Red. masses --      1.9947                 2.6620                 3.5684
 Frc consts  --      0.0460                 0.0617                 0.1217
 IR Inten    --      3.6401                 0.5956                 2.8885

                     16                     17                     18
                      A                      A                      A
 Frequencies --    276.2525               287.0896               324.7288
 Red. masses --      3.2665                 3.6769                 3.2985
 Frc consts  --      0.1469                 0.1786                 0.2049
 IR Inten    --      0.2268                 2.1568                 1.1316

                     19                     20                     21
                      A                      A                      A
 Frequencies --    366.6679               368.2142               388.5600
 Red. masses --      4.9354                 2.5489                 3.1843
 Frc consts  --      0.3909                 0.2036                 0.2833
 IR Inten    --      2.1533                 4.3932                 0.9198

                     22                     23                     24
                      A                      A                      A
 Frequencies --    419.7027               442.9862               461.9446
 Red. masses --      4.2893                 2.5422                 2.9810
 Frc consts  --      0.4452                 0.2939                 0.3748
 IR Inten    --      1.0602                 1.6567                 3.1490

                     25                     26                     27
                      A                      A                      A
 Frequencies --    539.0340               592.4409               608.3032
 Red. masses --      4.5794                 3.4455                 4.0099
 Frc consts  --      0.7840                 0.7125                 0.8742
 IR Inten    --      8.5142                 7.3975                 5.4480

                     28                     29                     30
                      A                      A                      A
 Frequencies --    646.7122               677.0933               679.4769
 Red. masses --      3.1063                 5.4971                 5.3318
 Frc consts  --      0.7655                 1.4849                 1.4503
 IR Inten    --      2.1475                 3.3557                 2.1305

                     31                     32                     33
                      A                      A                      A
 Frequencies --    685.1152               741.9178               751.9118
 Red. masses --      5.4645                 3.3946                 7.3625
 Frc consts  --      1.5112                 1.1009                 2.4525
 IR Inten    --      5.8623                11.2531                31.2796

                     34                     35                     36
                      A                      A                      A
 Frequencies --    770.1503               810.3340               840.8235
 Red. masses --      8.1654                 6.8191                 2.6834
 Frc consts  --      2.8535                 2.6382                 1.1177
 IR Inten    --      3.8070                33.0720                 3.2157

                     37                     38                     39
                      A                      A                      A
 Frequencies --    882.1921               904.8038               909.3880
 Red. masses --      2.6135                 3.7805                 8.0613
 Frc consts  --      1.1984                 1.8235                 3.9278
 IR Inten    --      9.1095                 7.6273                28.3633

                     40                     41                     42
                      A                      A                      A
 Frequencies --    917.3079               938.6561               953.1541
 Red. masses --     10.2378                 2.5569                 4.4482
 Frc consts  --      5.0756                 1.3273                 2.3810
 IR Inten    --     10.6017                14.8927                14.8717

                     43                     44                     45
                      A                      A                      A
 Frequencies --    972.0398               999.1043              1003.3843
 Red. masses --      2.3457                 2.2094                 2.9574
 Frc consts  --      1.3059                 1.2994                 1.7542
 IR Inten    --      3.1617                26.0409                 3.5866

                     46                     47                     48
                      A                      A                      A
 Frequencies --   1035.4491              1041.6688              1047.7704
 Red. masses --      4.4321                 6.6604                 2.6513
 Frc consts  --      2.7997                 4.2581                 1.7149
 IR Inten    --     13.8022                 2.6303                 4.9648

                     49                     50                     51
                      A                      A                      A
 Frequencies --   1066.8471              1071.1583              1074.5979
 Red. masses --      3.8146                 2.5653                 2.9846
 Frc consts  --      2.5580                 1.7342                 2.0306
 IR Inten    --      3.7293                15.1652                 2.2141

                     52                     53                     54
                      A                      A                      A
 Frequencies --   1084.8572              1097.1221              1113.3261
 Red. masses --      1.5582                 1.4481                 1.9561
 Frc consts  --      1.0805                 1.0270                 1.4285
 IR Inten    --      3.7684                10.5895                48.5266

                     55                     56                     57
                      A                      A                      A
 Frequencies --   1133.5526              1140.4558              1185.4616
 Red. masses --      2.4638                 1.2645                 1.3817
 Frc consts  --      1.8652                 0.9690                 1.1440
 IR Inten    --     14.6993                 8.2433                29.4173

                     58                     59                     60
                      A                      A                      A
 Frequencies --   1216.0200              1240.1623              1255.9867
 Red. masses --      1.3102                 1.3206                 3.7820
 Frc consts  --      1.1415                 1.1966                 3.5151
 IR Inten    --      4.3857                 5.3833                27.1910

                     61                     62                     63
                      A                      A                      A
 Frequencies --   1292.8739              1295.5331              1299.3132
 Red. masses --      1.3452                 2.9986                 2.8898
 Frc consts  --      1.3248                 2.9653                 2.8744
 IR Inten    --      0.9698                27.3382                18.2436

                     64                     65                     66
                      A                      A                      A
 Frequencies --   1313.9921              1330.3737              1347.8522
 Red. masses --      2.9549                 1.5811                 1.3290
 Frc consts  --      3.0060                 1.6488                 1.4225
 IR Inten    --     24.9223                 2.3974                11.4542

                     67                     68                     69
                      A                      A                      A
 Frequencies --   1367.2401              1371.9741              1374.8521
 Red. masses --      1.3461                 1.3341                 1.5991
 Frc consts  --      1.4825                 1.4795                 1.7809
 IR Inten    --     10.7444                21.8504                39.3582

                     70                     71                     72
                      A                      A                      A
 Frequencies --   1385.1305              1395.6752              1403.4155
 Red. masses --      2.1950                 1.4945                 1.4717
 Frc consts  --      2.4812                 1.7152                 1.7078
 IR Inten    --     77.9425                12.8734                 1.0242

                     73                     74                     75
                      A                      A                      A
 Frequencies --   1440.2000              1447.1056              1468.9374
 Red. masses --      5.1869                 1.5652                 1.1440
 Frc consts  --      6.3387                 1.9311                 1.4543
 IR Inten    --     86.9677                41.4428                 1.0729

                     76                     77                     78
                      A                      A                      A
 Frequencies --   1487.0060              1494.4236              1502.2818
 Red. masses --      1.2989                 1.0903                 1.2063
 Frc consts  --      1.6921                 1.4347                 1.6040
 IR Inten    --     17.9947                12.2191                16.5556

                     79                     80                     81
                      A                      A                      A
 Frequencies --   1505.1061              1512.8334              1517.4772
 Red. masses --      1.0440                 1.0482                 1.0849
 Frc consts  --      1.3934                 1.4134                 1.4719
 IR Inten    --      7.7062                10.1703                 2.4374

                     82                     83                     84
                      A                      A                      A
 Frequencies --   1521.1536              1526.6933              1530.0897
 Red. masses --      1.0870                 1.0885                 1.0556
 Frc consts  --      1.4820                 1.4949                 1.4561
 IR Inten    --     51.8073                 4.9540                14.3419

                     85                     86                     87
                      A                      A                      A
 Frequencies --   1536.9060              1541.3640              1581.5104
 Red. masses --      1.1098                 1.0955                 5.3398
 Frc consts  --      1.5445                 1.5335                 7.8691
 IR Inten    --      2.3296                 3.7248                 5.4101

                     88                     89                     90
                      A                      A                      A
 Frequencies --   1625.8079              1637.4195              1647.9437
 Red. masses --      6.1032                 7.6402                 5.5961
 Frc consts  --      9.5048                12.0690                 8.9540
 IR Inten    --     22.2430                90.0206               456.7705

                     91                     92                     93
                      A                      A                      A
 Frequencies --   3009.5069              3018.1611              3057.4831
 Red. masses --      1.0538                 1.0533                 1.0676
 Frc consts  --      5.6236                 5.6531                 5.8800
 IR Inten    --     41.8978                68.1932                33.6430

                     94                     95                     96
                      A                      A                      A
 Frequencies --   3064.6100              3067.6021              3087.4704
 Red. masses --      1.0669                 1.0366                 1.0600
 Frc consts  --      5.9038                 5.7473                 5.9532
 IR Inten    --     32.6037                10.4042                23.0580

                     97                     98                     99
                      A                      A                      A
 Frequencies --   3096.4514              3105.4431              3109.6339
 Red. masses --      1.0604                 1.0857                 1.0837
 Frc consts  --      5.9904                 6.1689                 6.1741
 IR Inten    --     13.4818                32.3545                35.6854

                    100                    101                    102
                      A                      A                      A
 Frequencies --   3126.8823              3128.2703              3137.1323
 Red. masses --      1.1014                 1.0995                 1.1021
 Frc consts  --      6.3448                 6.3396                 6.3907
 IR Inten    --      8.1834                 6.1801                 7.2119

                    103                    104                    105
                      A                      A                      A
 Frequencies --   3139.3580              3144.0395              3155.7168
 Red. masses --      1.1018                 1.1045                 1.0911
 Frc consts  --      6.3977                 6.4326                 6.4018
 IR Inten    --     13.9939                10.4231                11.4041

                    106                    107                    108
                      A                      A                      A
 Frequencies --   3162.5207              3164.1507              3184.0599
 Red. masses --      1.1033                 1.1025                 1.0987
 Frc consts  --      6.5014                 6.5032                 6.5627
 IR Inten    --      7.9473                 6.7846                 4.2550

 - Thermochemistry -
 -------------------
 Temperature   298.150 Kelvin.  Pressure   1.00000 Atm.
 Atom     1 has atomic number  6 and mass  12.00000

 Molecular mass:   278.14912 amu.
 Principal axes and moments of inertia in atomic units:
                           1         2         3
     Eigenvalues --  3576.675428280.70761**********
           X            0.99999   0.00433  -0.00237
           Y           -0.00432   0.99999   0.00100
           Z            0.00238  -0.00099   1.00000
 This molecule is an asymmetric top.
 Rotational symmetry number  1.
 Warning -- assumption of classical behavior for rotation
           may cause significant error
 Rotational temperatures (Kelvin)      0.02422     0.01046     0.00810
 Rotational constants (GHZ):           0.50459     0.21795     0.16887
 Zero-point vibrational energy     827899.0 (Joules/Mol)
                                  197.87261 (Kcal/Mol)
 Warning -- explicit consideration of  27 degrees of freedom as
           vibrations may cause significant error
 Vibrational temperatures:     27.21    38.57    55.39    69.06    87.12
          (Kelvin)            118.09   152.05   183.71   196.97   220.57
                              237.15   272.09   284.59   285.28   346.13
                              397.47   413.06   467.21   527.55   529.78
                              559.05   603.86   637.36   664.64   775.55
                              852.39   875.21   930.47   974.19   977.62
                              985.73  1067.45  1081.83  1108.07  1165.89
                             1209.76  1269.28  1301.81  1308.41  1319.80
                             1350.52  1371.38  1398.55  1437.49  1443.65
                             1489.78  1498.73  1507.51  1534.95  1541.16
                             1546.11  1560.87  1578.51  1601.83  1630.93
                             1640.86  1705.61  1749.58  1784.32  1807.08
                             1860.16  1863.98  1869.42  1890.54  1914.11
                             1939.26  1967.15  1973.96  1978.11  1992.89
                             2008.07  2019.20  2072.13  2082.06  2113.47
                             2139.47  2150.14  2161.45  2165.51  2176.63
                             2183.31  2188.60  2196.57  2201.46  2211.27
                             2217.68  2275.44  2339.17  2355.88  2371.02
                             4330.01  4342.46  4399.04  4409.29  4413.60
                             4442.18  4455.10  4468.04  4474.07  4498.89
                             4500.88  4513.63  4516.84  4523.57  4540.37
                             4550.16  4552.51  4581.15

 Zero-point correction=                           0.315330 (Hartree/Particle)
 Thermal correction to Energy=                    0.334265
 Thermal correction to Enthalpy=                  0.335209
 Thermal correction to Gibbs Free Energy=         0.265268
 Sum of electronic and zero-point Energies=           -946.748029
 Sum of electronic and thermal Energies=              -946.729094
 Sum of electronic and thermal Enthalpies=            -946.728150
 Sum of electronic and thermal Free Energies=         -946.798091

                     E (Thermal)             CV                S
                      KCal/Mol        Cal/Mol-Kelvin    Cal/Mol-Kelvin
 Total                  209.754             69.450            147.204
 Electronic               0.000              0.000              0.000
 Translational            0.889              2.981             42.767
 Rotational               0.889              2.981             34.114
 Vibrational            207.977             63.488             70.322
 Vibration     1          0.593              1.986              6.745
 Vibration     2          0.593              1.984              6.053
 Vibration     3          0.594              1.981              5.335
 Vibration     4          0.595              1.978              4.898
 Vibration     5          0.597              1.973              4.439
 Vibration     6          0.600              1.961              3.841
 Vibration     7          0.605              1.945              3.347
 Vibration     8          0.611              1.926              2.981
 Vibration     9          0.614              1.916              2.847
 Vibration    10          0.619              1.899              2.631
 Vibration    11          0.623              1.886              2.494
 Vibration    12          0.633              1.855              2.237
 Vibration    13          0.637              1.843              2.153
 Vibration    14          0.637              1.842              2.149
 Vibration    15          0.658              1.778              1.799
 Vibration    16          0.678              1.717              1.557
 Vibration    17          0.684              1.698              1.491
 Vibration    18          0.709              1.626              1.286
 Vibration    19          0.740              1.541              1.094
 Vibration    20          0.741              1.538              1.087
 Vibration    21          0.757              1.495              1.006
 Vibration    22          0.782              1.427              0.893
 Vibration    23          0.803              1.376              0.817
 Vibration    24          0.820              1.334              0.760
 Vibration    25          0.894              1.164              0.567
 Vibration    26          0.950              1.048              0.463
 Vibration    27          0.967              1.014              0.436

                           ! Non-Optimized Parameters !
 Normal termination of Gaussian 16 at Mon Dec 14 13:55:15 2020.

 ----------------------------------------------------------------------
 # B3LYP/6-311++G(d,p) empiricaldispersion=gd3bj scf=xqc pop=npa geom=c
 heck
 ----------------------------------------------------------------------

 ----------------------------------------
 CID_128338024_JID_10011_Energie_neutraal
 ----------------------------------------
 Structure from the checkpoint file:  "JID_10011.chk"
 Charge =  0 Multiplicity = 1

 SCF Done:  E(RB3LYP) =  -947.313939188     A.U. after   15 cycles
 Normal termination of Gaussian 16 at Mon Dec 14 14:05:04 2020.

 ----------------------------------------------------------------------
 # B3LYP/6-311++G(d,p) empiricaldispersion=gd3bj scf=xqc pop=npa geom=c
 heck
 ----------------------------------------------------------------------

 --------------------------------------
 CID_128338024_JID_10011_Energie_kation
 --------------------------------------
 Structure from the checkpoint file:  "JID_10011.chk"
 Charge =  1 Multiplicity = 2

 SCF Done:  E(UB3LYP) =  -947.019602030     A.U. after   26 cycles
 Normal termination of Gaussian 16 at Mon Dec 14 14:29:08 2020.
 Gaussian 16:  ES64L-G16RevA.03 25-Dec-2016

 ----------------------------------------------------------------------
 # B3LYP/6-311++G(d,p) empiricaldispersion=gd3bj scf=xqc pop=npa geom=c
 heck
 ----------------------------------------------------------------------

 -------------------------------------
 CID_128338024_JID_10011_Energie_anion
 -------------------------------------
 Structure from the checkpoint file:  "JID_10011.chk"
 Charge = -1 Multiplicity = 2

                         Standard orientation:
 ---------------------------------------------------------------------
 Center     Atomic      Atomic             Coordinates (Angstroms)
 Number     Number       Type             X           Y           Z
 ---------------------------------------------------------------------
      1          6           0       -5.007724    2.325928    0.124363
      2          6           0       -4.070641    1.177185   -0.030298
      3          7           0       -4.476836   -0.011986   -0.400719
      4          8           0       -3.282804   -0.768445   -0.414582
      5          6           0       -2.290700    0.067318   -0.049013
      6          7           0       -2.710507    1.275616    0.201879
      7          6           0       -0.910149   -0.472857    0.037829
      8          6           0       -0.421339   -1.169390   -1.269322
      9          6           0       -0.129910   -2.629699   -0.840953
     10          7           0        0.134601   -2.611180    0.603920
     11          6           0       -0.771602   -1.590962    1.132222
     12          6           0        1.541135   -2.468202    0.985171
     13          6           0        2.217982   -1.224705    0.479924
     14          7           0        2.166392   -0.025151    0.984362
     15          6           0        2.818007    0.733682    0.024357
     16          7           0        3.239568    0.047057   -1.029506
     17          8           0        2.850610   -1.283661   -0.699424
     18          7           0        3.029025    2.071570    0.177643
     19          6           0        3.582070    2.792987   -0.958312
     20          6           0        2.150366    2.818307    1.068102
     21          1           0       -4.973181    2.706607    1.150482
     22          1           0       -4.715392    3.144592   -0.541489
     23          1           0       -6.028587    2.017990   -0.110936
     24          1           0       -0.264516    0.367639    0.289515
     25          1           0        0.481417   -0.675999   -1.637416
     26          1           0       -1.170106   -1.125781   -2.064173
     27          1           0       -1.018281   -3.248775   -1.013993
     28          1           0        0.706684   -3.077660   -1.382742
     29          1           0       -0.407119   -1.192148    2.081100
     30          1           0       -1.750996   -2.052553    1.302163
     31          1           0        1.601614   -2.470535    2.076473
     32          1           0        2.086882   -3.339587    0.612322
     33          1           0        2.828865    2.978724   -1.739283
     34          1           0        3.972906    3.752541   -0.608509
     35          1           0        4.395249    2.211611   -1.397010
     36          1           0        1.218460    3.126182    0.568433
     37          1           0        1.898054    2.199666    1.928731
     38          1           0        2.674915    3.715300    1.410906
 ---------------------------------------------------------------------

 SCF Done:  E(UB3LYP) =  -947.303546769     A.U. after   33 cycles
 SCF Done:  E(UB3LYP) =  -947.303546769     a.u. after    1 cycles

 The electronic state is 2-A.
 Alpha  occ. eigenvalues --  -19.11177 -19.09775 -14.26148 -14.23975 -14.23659
 Alpha  occ. eigenvalues --  -14.22475 -14.21653 -14.20832 -10.17037 -10.15715
 Alpha  occ. eigenvalues --  -10.15695 -10.14235 -10.12556 -10.11049 -10.10855
 Alpha  occ. eigenvalues --  -10.09820 -10.09778 -10.09732 -10.08972 -10.08236
 Alpha  occ. eigenvalues --   -1.05973  -1.04519  -0.87484  -0.85622  -0.83749
 Alpha  occ. eigenvalues --   -0.81035  -0.78031  -0.74985  -0.70004  -0.65029
 Alpha  occ. eigenvalues --   -0.64435  -0.63438  -0.61909  -0.59040  -0.54671
 Alpha  occ. eigenvalues --   -0.52124  -0.51545  -0.49239  -0.47992  -0.47387
 Alpha  occ. eigenvalues --   -0.42930  -0.42374  -0.41010  -0.39630  -0.38862
 Alpha  occ. eigenvalues --   -0.37721  -0.37393  -0.36089  -0.35588  -0.34909
 Alpha  occ. eigenvalues --   -0.34784  -0.33484  -0.32845  -0.31736  -0.31038
 Alpha  occ. eigenvalues --   -0.30530  -0.30287  -0.30098  -0.28745  -0.28472
 Alpha  occ. eigenvalues --   -0.28180  -0.27317  -0.26344  -0.25350  -0.24316
 Alpha  occ. eigenvalues --   -0.23442  -0.23237  -0.22515  -0.19887  -0.19492
 Alpha  occ. eigenvalues --   -0.18997  -0.18599  -0.13862  -0.12305   0.04476
 Alpha virt. eigenvalues --    0.06059   0.06195   0.06632   0.07282   0.08437
 Alpha virt. eigenvalues --    0.08907   0.09126   0.09302   0.09787   0.10179
 Alpha virt. eigenvalues --    0.10811   0.11132   0.11379   0.11583   0.12402

  Beta  occ. eigenvalues --  -19.11096 -19.09627 -14.26052 -14.23982 -14.23534
  Beta  occ. eigenvalues --  -14.22444 -14.21656 -14.20813 -10.16924 -10.15699
  Beta  occ. eigenvalues --  -10.15475 -10.14202 -10.12571 -10.11028 -10.10850
  Beta  occ. eigenvalues --  -10.09786 -10.09782 -10.09698 -10.08951 -10.08229
  Beta  occ. eigenvalues --   -1.05833  -1.04276  -0.87429  -0.85562  -0.83668
  Beta  occ. eigenvalues --   -0.80916  -0.77874  -0.74768  -0.69943  -0.64981
  Beta  occ. eigenvalues --   -0.64373  -0.63342  -0.61849  -0.58952  -0.54538
  Beta  occ. eigenvalues --   -0.51971  -0.51460  -0.49153  -0.47868  -0.47306
  Beta  occ. eigenvalues --   -0.42843  -0.42210  -0.40938  -0.39332  -0.38608
  Beta  occ. eigenvalues --   -0.37641  -0.37345  -0.35998  -0.35339  -0.34806
  Beta  occ. eigenvalues --   -0.34658  -0.33380  -0.32782  -0.31688  -0.30940
  Beta  occ. eigenvalues --   -0.30461  -0.30231  -0.30041  -0.28709  -0.28434
  Beta  occ. eigenvalues --   -0.28096  -0.27204  -0.26304  -0.25280  -0.23988
  Beta  occ. eigenvalues --   -0.23280  -0.23067  -0.22271  -0.19828  -0.18889
  Beta  occ. eigenvalues --   -0.18877  -0.18128  -0.13817  -0.11931
  Beta virt. eigenvalues --    0.06466   0.06776   0.07176   0.07514   0.08402
  Beta virt. eigenvalues --    0.08656   0.08922   0.09314   0.09647   0.09993
  Beta virt. eigenvalues --    0.10308   0.11032   0.11204   0.11439   0.11674

 Mulliken charges and spin densities:
               1          2
     1  C    1.288718  -1.692745
     2  C    0.048729   0.696806
     3  N   -0.394036   0.096300
     4  O    0.229002  -0.001531
     5  C   -1.035471   0.301589
     6  N   -0.025277   0.011350
     7  C   -0.457782   0.347259
     8  C   -0.419049   0.071474
     9  C   -0.446862  -0.005360
    10  N    0.141240   0.048611
    11  C   -0.527861   0.001488
    12  C   -0.671200  -0.179680
    13  C   -0.263853   0.293722
    14  N   -0.083090   0.043432
    15  C    0.203106  -0.081744
    16  N   -0.336387   0.132119
    17  O    0.196414   0.014321
    18  N   -0.099090   0.157963
    19  C    0.614111  -0.932783
    20  C    0.306021  -0.709762
    21  H   -0.073266   0.235268
    22  H   -0.205347   0.380591
    23  H    0.006226   0.144593
    24  H    0.666212  -0.445385
    25  H    0.130881   0.028273
    26  H    0.157175   0.060392
    27  H    0.149295   0.019807
    28  H    0.185009  -0.001617
    29  H    0.174924  -0.011426
    30  H    0.208595   0.003306
    31  H    0.134499   0.051196
    32  H    0.127514   0.047694
    33  H   -0.109641   0.266298
    34  H   -0.353099   0.499755
    35  H   -0.047614   0.209439
    36  H   -0.062042   0.230983
    37  H    0.097109   0.066386
    38  H   -0.453811   0.601617
 Sum of Mulliken charges =  -1.00000   1.00000

 Dipole moment (field-independent basis, Debye):
    X=             -0.6832    Y=             -7.0491    Z=              1.4289  Tot=              7.2248
 Quadrupole moment (field-independent basis, Debye-Ang):
   XX=           -207.1204   YY=           -178.4410   ZZ=           -140.1573
   XY=             -9.7398   XZ=              0.2503   YZ=              0.7159

 Summary of Natural Population Analysis:

                                       Natural Population
                Natural  -----------------------------------------------
    Atom  No    Charge         Core      Valence    Rydberg      Total
 -----------------------------------------------------------------------
      C    1   -0.30501      0.99962     2.29994    0.00545     3.30501
      C    2    0.17647      0.99966     1.80564    0.01823     2.82353
      N    3   -0.09090      0.99966     2.57896    0.01228     3.59090
      O    4   -0.17371      0.99985     3.16621    0.00765     4.17371
      C    5    0.31186      0.99958     1.66798    0.02058     2.68814
      N    6   -0.27208      0.99967     2.76339    0.00902     3.77208
      C    7   -0.15978      0.99955     2.14905    0.01118     3.15978
      C    8   -0.19802      0.99963     2.19030    0.00809     3.19802
      C    9   -0.08938      0.99963     2.07971    0.01004     3.08938
      N   10   -0.26722      0.99975     2.75479    0.01268     3.76722
      C   11   -0.07672      0.99961     2.06671    0.01039     3.07672
      C   12   -0.11285      0.99956     2.10064    0.01265     3.11285
      C   13    0.30533      0.99963     1.67495    0.02009     2.69467
      N   14   -0.28776      0.99966     2.78012    0.00798     3.78776
      C   15    0.26450      0.99961     1.71662    0.01927     2.73550
      N   16   -0.12106      0.99968     2.60982    0.01156     3.62106
      O   17   -0.16842      0.99985     3.16049    0.00809     4.16842
      N   18   -0.25279      0.99964     2.74219    0.01096     3.75279
      C   19   -0.17527      0.99964     2.16735    0.00828     3.17527
      C   20   -0.17419      0.99964     2.16675    0.00780     3.17419
      H   21    0.10923      0.00000     0.38984    0.00092     0.39077
      H   22    0.11281      0.00000     0.38554    0.00165     0.38719
      H   23    0.10854      0.00000     0.39041    0.00105     0.39146
      H   24    0.12582      0.00000     0.37223    0.00195     0.37418
      H   25    0.11013      0.00000     0.38865    0.00122     0.38987
      H   26    0.10465      0.00000     0.39451    0.00084     0.39535
      H   27    0.09381      0.00000     0.40533    0.00086     0.40619
      H   28    0.10079      0.00000     0.39836    0.00085     0.39921
      H   29    0.10377      0.00000     0.39551    0.00071     0.39623
      H   30    0.09667      0.00000     0.40244    0.00089     0.40333
      H   31    0.10706      0.00000     0.39179    0.00114     0.39294
      H   32    0.10544      0.00000     0.39342    0.00115     0.39456
      H   33    0.09108      0.00000     0.40729    0.00163     0.40892
      H   34    0.09674      0.00000     0.40200    0.00127     0.40326
      H   35    0.10585      0.00000     0.39265    0.00150     0.39415
      H   36    0.09089      0.00000     0.40768    0.00143     0.40911
      H   37    0.10824      0.00000     0.39037    0.00139     0.39176
      H   38    0.09546      0.00000     0.40311    0.00143     0.40454
 =======================================================================
   * Total *    0.00000     19.99312    53.75273    0.25414    74.00000

 Normal termination of Gaussian 16 at Mon Dec 14 15:00:53 2020.
