 Gaussian 16, Revision A.03,

 -----------------------------------------------------------
 # opt freq B3LYP/6-31G(d) empiricaldispersion=gd3bj scf=xqc
 -----------------------------------------------------------

 -------------------------------
 CID_130414023_JID_2950_neutraal
 -------------------------------
 Symbolic Z-matrix:
 Charge =  0 Multiplicity = 1

 SCF Done:  E(RB3LYP) =  -534.935636025     A.U. after   15 cycles
 SCF Done:  E(RB3LYP) =  -534.939751698     A.U. after   12 cycles
 SCF Done:  E(RB3LYP) =  -534.940236223     A.U. after   12 cycles
 SCF Done:  E(RB3LYP) =  -534.940478020     A.U. after   11 cycles
 SCF Done:  E(RB3LYP) =  -534.940553189     A.U. after   11 cycles
 SCF Done:  E(RB3LYP) =  -534.940645138     A.U. after   11 cycles
 SCF Done:  E(RB3LYP) =  -534.940681513     A.U. after   10 cycles
 SCF Done:  E(RB3LYP) =  -534.940740322     A.U. after   10 cycles
 SCF Done:  E(RB3LYP) =  -534.940747770     A.U. after    9 cycles
 SCF Done:  E(RB3LYP) =  -534.940749319     A.U. after    8 cycles
 SCF Done:  E(RB3LYP) =  -534.940749603     A.U. after    8 cycles
 SCF Done:  E(RB3LYP) =  -534.940749703     A.U. after    7 cycles
 SCF Done:  E(RB3LYP) =  -534.940749752     A.U. after    7 cycles
 SCF Done:  E(RB3LYP) =  -534.940749771     A.U. after    6 cycles
 Optimization completed.
    -- Stationary point found.
 Normal termination of Gaussian 16 at Wed Dec  9 18:18:28 2020.

 --------------------------------------------------------------------
 #N Geom=AllCheck Guess=TCheck SCRF=Check GenChk RB3LYP/6-31G(d) Freq
 --------------------------------------------------------------------

 Structure from the checkpoint file:  "JID_2950.chk"
 -------------------------------
 CID_130414023_JID_2950_neutraal
 -------------------------------
 Charge =  0 Multiplicity = 1

 SCF Done:  E(RB3LYP) =  -534.940749771     A.U. after    1 cycles

  Exact polarizability: 216.625  -6.815 119.240   0.941   2.994  54.238
 Approx polarizability: 326.909  -7.683 188.196   2.990   7.162  81.155

                      1                      2                      3
                      A                      A                      A
 Frequencies --     51.0167                57.9413                95.4849
 Red. masses --      3.1135                 4.5119                 3.0286
 Frc consts  --      0.0048                 0.0089                 0.0163
 IR Inten    --      0.1079                 0.1279                 0.4221

                      4                      5                      6
                      A                      A                      A
 Frequencies --    123.3229               143.5516               156.0661
 Red. masses --      1.1731                 5.3452                 2.8211
 Frc consts  --      0.0105                 0.0649                 0.0405
 IR Inten    --      0.4825                 2.6434                 0.6154

                      7                      8                      9
                      A                      A                      A
 Frequencies --    198.9333               256.5358               291.5194
 Red. masses --      1.3103                 3.6388                 4.2643
 Frc consts  --      0.0306                 0.1411                 0.2135
 IR Inten    --      0.6583                 1.1391                 1.5735

                     10                     11                     12
                      A                      A                      A
 Frequencies --    342.0217               364.5812               396.0580
 Red. masses --      2.8376                 2.8504                 2.8164
 Frc consts  --      0.1956                 0.2232                 0.2603
 IR Inten    --      6.0812                 0.6674                19.7530

                     13                     14                     15
                      A                      A                      A
 Frequencies --    416.8881               426.5948               472.6648
 Red. masses --      1.1741                 2.4895                 2.4573
 Frc consts  --      0.1202                 0.2669                 0.3235
 IR Inten    --      2.4543                 0.3000                18.3903

                     16                     17                     18
                      A                      A                      A
 Frequencies --    486.6579               502.9741               588.0497
 Red. masses --      2.4999                 1.3498                 3.3070
 Frc consts  --      0.3488                 0.2012                 0.6738
 IR Inten    --     41.6013               182.9605                 6.0532

                     19                     20                     21
                      A                      A                      A
 Frequencies --    657.0210               693.1706               715.8361
 Red. masses --      5.8056                 1.7672                 2.0543
 Frc consts  --      1.4766                 0.5003                 0.6202
 IR Inten    --     39.5423                 0.6132                 3.5576

                     22                     23                     24
                      A                      A                      A
 Frequencies --    736.9397               741.4779               808.8074
 Red. masses --      5.3802                10.0803                 2.1567
 Frc consts  --      1.7215                 3.2653                 0.8313
 IR Inten    --     11.6107                11.8654                29.0545

                     25                     26                     27
                      A                      A                      A
 Frequencies --    812.2455               851.7191               865.2991
 Red. masses --      1.9981                 2.7096                 1.5953
 Frc consts  --      0.7767                 1.1581                 0.7038
 IR Inten    --     30.6784                 1.9161                19.1074

                     28                     29                     30
                      A                      A                      A
 Frequencies --    908.6731               978.4914               985.1162
 Red. masses --      1.3080                 1.4067                 1.8153
 Frc consts  --      0.6363                 0.7935                 1.0380
 IR Inten    --      5.1313                 0.7678                 3.6614

                     31                     32                     33
                      A                      A                      A
 Frequencies --   1028.1268              1031.3163              1083.5162
 Red. masses --      2.6849                 1.2369                 1.6383
 Frc consts  --      1.6721                 0.7751                 1.1332
 IR Inten    --     42.2343                 3.4620                37.3815

                     34                     35                     36
                      A                      A                      A
 Frequencies --   1112.3554              1169.7373              1199.4195
 Red. masses --      1.6493                 2.8410                 2.5420
 Frc consts  --      1.2024                 2.2903                 2.1546
 IR Inten    --      1.0806                77.6613                 5.4298

                     37                     38                     39
                      A                      A                      A
 Frequencies --   1239.3760              1279.3928              1344.7186
 Red. masses --      2.4818                 1.7653                 1.5483
 Frc consts  --      2.2461                 1.7025                 1.6495
 IR Inten    --     45.5297                42.1245                22.7642

                     40                     41                     42
                      A                      A                      A
 Frequencies --   1378.6344              1379.2658              1384.0416
 Red. masses --      4.1084                 1.6734                 2.6771
 Frc consts  --      4.6006                 1.8756                 3.0214
 IR Inten    --    242.7373                80.6949               104.2131

                     43                     44                     45
                      A                      A                      A
 Frequencies --   1440.2326              1449.8009              1458.2430
 Red. masses --      1.3316                 1.2291                 1.8214
 Frc consts  --      1.6273                 1.5221                 2.2820
 IR Inten    --      8.4433                 6.5726                 6.3588

                     46                     47                     48
                      A                      A                      A
 Frequencies --   1490.3897              1499.1492              1513.9203
 Red. masses --      1.2727                 1.0500                 1.0506
 Frc consts  --      1.6656                 1.3904                 1.4187
 IR Inten    --      2.4243                 0.6266                 8.5292

                     49                     50                     51
                      A                      A                      A
 Frequencies --   1519.9893              1526.5310              1693.6201
 Red. masses --      1.0495                 1.1135                 7.7033
 Frc consts  --      1.4285                 1.5288                13.0185
 IR Inten    --     10.8891                 9.6567               118.3285

                     52                     53                     54
                      A                      A                      A
 Frequencies --   1708.8199              1739.2573              1871.9924
 Red. masses --      5.5288                 6.0315                 9.6871
 Frc consts  --      9.5120                10.7500                20.0010
 IR Inten    --     30.7858                15.9686               935.8430

                     55                     56                     57
                      A                      A                      A
 Frequencies --   3020.4002              3030.4126              3062.0931
 Red. masses --      1.0393                 1.0416                 1.0995
 Frc consts  --      5.5862                 5.6357                 6.0741
 IR Inten    --     41.5272                83.7379                17.3870

                     58                     59                     60
                      A                      A                      A
 Frequencies --   3069.9260              3123.2461              3144.0708
 Red. masses --      1.0993                 1.0987                 1.0955
 Frc consts  --      6.1040                 6.3144                 6.3801
 IR Inten    --     32.9674                21.7556                14.5550

                     61                     62                     63
                      A                      A                      A
 Frequencies --   3169.3134              3184.0425              3197.8734
 Red. masses --      1.0871                 1.0848                 1.0668
 Frc consts  --      6.4333                 6.4798                 6.4279
 IR Inten    --     11.5593                18.2802                 4.7683

                     64                     65                     66
                      A                      A                      A
 Frequencies --   3307.3807              3668.5009              3669.6926
 Red. masses --      1.1099                 1.0784                 1.0802
 Frc consts  --      7.1533                 8.5511                 8.5709
 IR Inten    --      3.6128                63.5304                43.2418

 - Thermochemistry -
 -------------------
 Temperature   298.150 Kelvin.  Pressure   1.00000 Atm.
 Atom     1 has atomic number  6 and mass  12.00000

 Molecular mass:   164.09496 amu.
 Principal axes and moments of inertia in atomic units:
                           1         2         3
     Eigenvalues --   787.774284267.698634978.44102
           X            0.99994  -0.01046  -0.00089
           Y            0.01046   0.99993  -0.00582
           Z            0.00095   0.00581   0.99998
 This molecule is an asymmetric top.
 Rotational symmetry number  1.
 Warning -- assumption of classical behavior for rotation
           may cause significant error
 Rotational temperatures (Kelvin)      0.10995     0.02030     0.01740
 Rotational constants (GHZ):           2.29094     0.42288     0.36251
 Zero-point vibrational energy     522256.4 (Joules/Mol)
                                  124.82228 (Kcal/Mol)
 Warning -- explicit consideration of  18 degrees of freedom as
           vibrations may cause significant error
 Vibrational temperatures:     73.40    83.36   137.38   177.43   206.54
          (Kelvin)            224.54   286.22   369.10   419.43   492.09
                              524.55   569.84   599.81   613.77   680.06
                              700.19   723.67   846.07   945.31   997.32
                             1029.93  1060.29  1066.82  1163.69  1168.64
                             1225.43  1244.97  1307.38  1407.83  1417.36
                             1479.25  1483.83  1558.94  1600.43  1682.99
                             1725.70  1783.19  1840.76  1934.75  1983.55
                             1984.46  1991.33  2072.17  2085.94  2098.09
                             2144.34  2156.94  2178.19  2186.93  2196.34
                             2436.74  2458.61  2502.40  2693.38  4345.68
                             4360.09  4405.67  4416.94  4493.65  4523.62
                             4559.94  4581.13  4601.03  4758.58  5278.15
                             5279.87

 Zero-point correction=                           0.198917 (Hartree/Particle)
 Thermal correction to Energy=                    0.211285
 Thermal correction to Enthalpy=                  0.212229
 Thermal correction to Gibbs Free Energy=         0.160096
 Sum of electronic and zero-point Energies=           -534.741833
 Sum of electronic and thermal Energies=              -534.729465
 Sum of electronic and thermal Enthalpies=            -534.728521
 Sum of electronic and thermal Free Energies=         -534.780654

                     E (Thermal)             CV                S
                      KCal/Mol        Cal/Mol-Kelvin    Cal/Mol-Kelvin
 Total                  132.583             46.219            109.724
 Electronic               0.000              0.000              0.000
 Translational            0.889              2.981             41.194
 Rotational               0.889              2.981             31.193
 Vibrational            130.806             40.257             37.336
 Vibration     1          0.595              1.977              4.778
 Vibration     2          0.596              1.974              4.526
 Vibration     3          0.603              1.952              3.544
 Vibration     4          0.610              1.930              3.048
 Vibration     5          0.616              1.910              2.756
 Vibration     6          0.620              1.896              2.597
 Vibration     7          0.637              1.841              2.143
 Vibration     8          0.666              1.752              1.685
 Vibration     9          0.687              1.690              1.465
 Vibration    10          0.721              1.591              1.203
 Vibration    11          0.738              1.545              1.103
 Vibration    12          0.763              1.479              0.977
 Vibration    13          0.780              1.434              0.903
 Vibration    14          0.788              1.412              0.870
 Vibration    15          0.830              1.311              0.730
 Vibration    16          0.843              1.280              0.692
 Vibration    17          0.858              1.243              0.651
 Vibration    18          0.945              1.057              0.471

                           ! Non-Optimized Parameters !
 Normal termination of Gaussian 16 at Wed Dec  9 18:23:38 2020.

 ----------------------------------------------------------------------
 # B3LYP/6-311++G(d,p) empiricaldispersion=gd3bj scf=xqc pop=npa geom=c
 heck
 ----------------------------------------------------------------------

 ---------------------------------------
 CID_130414023_JID_2950_Energie_neutraal
 ---------------------------------------
 Structure from the checkpoint file:  "JID_2950.chk"
 Charge =  0 Multiplicity = 1

 SCF Done:  E(RB3LYP) =  -535.097408581     A.U. after   15 cycles
 Normal termination of Gaussian 16 at Wed Dec  9 18:26:06 2020.

 ----------------------------------------------------------------------
 # B3LYP/6-311++G(d,p) empiricaldispersion=gd3bj scf=xqc pop=npa geom=c
 heck
 ----------------------------------------------------------------------

 -------------------------------------
 CID_130414023_JID_2950_Energie_kation
 -------------------------------------
 Structure from the checkpoint file:  "JID_2950.chk"
 Charge =  1 Multiplicity = 2

 SCF Done:  E(UB3LYP) =  -534.832257737     A.U. after   21 cycles
 Normal termination of Gaussian 16 at Wed Dec  9 18:31:00 2020.
 Gaussian 16:  ES64L-G16RevA.03 25-Dec-2016

 ----------------------------------------------------------------------
 # B3LYP/6-311++G(d,p) empiricaldispersion=gd3bj scf=xqc pop=npa geom=c
 heck
 ----------------------------------------------------------------------

 ------------------------------------
 CID_130414023_JID_2950_Energie_anion
 ------------------------------------
 Structure from the checkpoint file:  "JID_2950.chk"
 Charge = -1 Multiplicity = 2

                         Standard orientation:
 ---------------------------------------------------------------------
 Center     Atomic      Atomic             Coordinates (Angstroms)
 Number     Number       Type             X           Y           Z
 ---------------------------------------------------------------------
      1          6           0        4.138270    0.861133   -0.344745
      2          6           0        3.047810   -0.136394   -0.060094
      3          6           0        1.747081    0.209428   -0.191393
      4          6           0        0.602139   -0.656106   -0.029829
      5          6           0       -0.694351   -0.267211    0.036190
      6          6           0       -1.316913    1.076277    0.110858
      7          6           0       -0.770328    2.279180    0.355232
      8          7           0       -2.686847    0.838405   -0.073820
      9          6           0       -3.004774   -0.514361   -0.078523
     10          8           0       -4.106315   -1.020274   -0.162582
     11          7           0       -1.778948   -1.157024    0.033111
     12          6           0        3.528286   -1.494889    0.372769
     13          1           0        3.735442    1.833432   -0.644493
     14          1           0        4.799882    0.505230   -1.147604
     15          1           0        4.777568    1.011818    0.536858
     16          1           0        1.536347    1.230107   -0.499515
     17          1           0        0.779043   -1.729337   -0.014501
     18          1           0        0.282008    2.390069    0.567443
     19          1           0       -1.386488    3.171708    0.386934
     20          1           0       -3.405862    1.535418    0.044950
     21          1           0       -1.702105   -2.147935   -0.137623
     22          1           0        4.161036   -1.949708   -0.402164
     23          1           0        4.153927   -1.411100    1.272251
     24          1           0        2.716957   -2.189522    0.600285
 ---------------------------------------------------------------------

 SCF Done:  E(UB3LYP) =  -535.102823433     A.U. after   28 cycles

 The electronic state is 2-A.
 Alpha  occ. eigenvalues --  -18.95524 -14.21041 -14.20914 -10.15878 -10.06293
 Alpha  occ. eigenvalues --  -10.05224 -10.03933 -10.03863 -10.01658 -10.01394
 Alpha  occ. eigenvalues --  -10.00488  -9.99549  -0.92536  -0.84437  -0.76446
 Alpha  occ. eigenvalues --   -0.67665  -0.63812  -0.59126  -0.56638  -0.54018
 Alpha  occ. eigenvalues --   -0.51626  -0.47350  -0.43098  -0.38264  -0.36821
 Alpha  occ. eigenvalues --   -0.36418  -0.32924  -0.32034  -0.31632  -0.30784
 Alpha  occ. eigenvalues --   -0.29692  -0.28636  -0.26713  -0.26292  -0.25066
 Alpha  occ. eigenvalues --   -0.23312  -0.22744  -0.21797  -0.19290  -0.19083
 Alpha  occ. eigenvalues --   -0.14648  -0.14169  -0.09961  -0.05016   0.05053
 Alpha virt. eigenvalues --    0.08132   0.09585   0.09632   0.10809   0.11096
 Alpha virt. eigenvalues --    0.11904   0.13161   0.13609   0.13699   0.14413
 Alpha virt. eigenvalues --    0.14549   0.16294   0.16471   0.17005   0.17381

  Beta  occ. eigenvalues --  -18.95398 -14.21083 -14.20952 -10.15776 -10.06186
  Beta  occ. eigenvalues --  -10.04952 -10.03963 -10.03886 -10.01467 -10.01256
  Beta  occ. eigenvalues --  -10.00281  -9.99233  -0.92338  -0.84237  -0.76429
  Beta  occ. eigenvalues --   -0.67219  -0.63313  -0.58717  -0.56594  -0.53710
  Beta  occ. eigenvalues --   -0.51506  -0.46885  -0.42715  -0.37982  -0.36494
  Beta  occ. eigenvalues --   -0.36370  -0.32644  -0.31677  -0.31429  -0.30360
  Beta  occ. eigenvalues --   -0.29540  -0.28411  -0.26501  -0.26173  -0.24970
  Beta  occ. eigenvalues --   -0.23129  -0.22501  -0.20727  -0.19074  -0.18838
  Beta  occ. eigenvalues --   -0.14535  -0.13347  -0.08650  -0.03190
  Beta virt. eigenvalues --    0.08063   0.09464   0.09571   0.09992   0.10783
  Beta virt. eigenvalues --    0.11650   0.11948   0.13130   0.13588   0.13602
  Beta virt. eigenvalues --    0.14411   0.14573   0.16348   0.16546   0.17277

 Mulliken charges and spin densities:
               1          2
     1  C   -0.537936  -0.029629
     2  C    0.802421   0.333105
     3  C   -0.393456  -0.217775
     4  C   -0.688655   0.223126
     5  C    0.417039   0.082922
     6  C    0.652556   0.022704
     7  C   -1.093260   0.429658
     8  N   -0.288531  -0.021053
     9  C    0.306877   0.058091
    10  O   -0.466946   0.040065
    11  N   -0.283924  -0.018832
    12  C   -0.653194  -0.098932
    13  H    0.148645   0.000536
    14  H    0.086102   0.021979
    15  H    0.052348   0.058461
    16  H    0.009019   0.008653
    17  H    0.046248  -0.022457
    18  H    0.045089   0.020101
    19  H    0.068314  -0.027196
    20  H    0.276583   0.008044
    21  H    0.273030  -0.000396
    22  H    0.092615   0.009016
    23  H    0.048251   0.061432
    24  H    0.080764   0.058378
 Sum of Mulliken charges =  -1.00000   1.00000

 Dipole moment (field-independent basis, Debye):
    X=              1.4847    Y=             -0.6355    Z=             -0.5031  Tot=              1.6915
 Quadrupole moment (field-independent basis, Debye-Ang):
   XX=           -128.4936   YY=            -84.4988   ZZ=            -85.6566
   XY=             -7.6407   XZ=             -1.9932   YZ=             -0.2918

 Summary of Natural Population Analysis:

                                       Natural Population
                Natural  -----------------------------------------------
    Atom  No    Charge         Core      Valence    Rydberg      Total
 -----------------------------------------------------------------------
      C    1   -0.29316      0.99964     2.28855    0.00497     3.29316
      C    2    0.04624      0.99953     1.94560    0.00863     2.95376
      C    3   -0.12850      0.99947     2.11884    0.01019     3.12850
      C    4   -0.09960      0.99951     2.09103    0.00906     3.09960
      C    5    0.11493      0.99949     1.87438    0.01120     2.88507
      C    6    0.08219      0.99952     1.90754    0.01075     2.91781
      C    7   -0.17945      0.99956     2.17035    0.00953     3.17945
      N    8   -0.32472      0.99964     2.81639    0.00869     3.82472
      C    9    0.41290      0.99973     1.56476    0.02261     2.58710
      O   10   -0.33407      0.99987     3.32817    0.00603     4.33407
      N   11   -0.31817      0.99965     2.81040    0.00813     3.81817
      C   12   -0.29978      0.99964     2.29424    0.00590     3.29978
      H   13    0.09781      0.00000     0.40156    0.00063     0.40219
      H   14    0.09271      0.00000     0.40615    0.00114     0.40729
      H   15    0.09315      0.00000     0.40541    0.00144     0.40685
      H   16    0.09511      0.00000     0.40342    0.00147     0.40489
      H   17    0.08411      0.00000     0.41455    0.00133     0.41589
      H   18    0.09678      0.00000     0.40237    0.00085     0.40322
      H   19    0.08179      0.00000     0.41728    0.00093     0.41821
      H   20    0.19422      0.00000     0.30422    0.00156     0.30578
      H   21    0.19527      0.00000     0.30338    0.00135     0.30473
      H   22    0.09362      0.00000     0.40533    0.00104     0.40638
      H   23    0.09607      0.00000     0.40235    0.00158     0.40393
      H   24    0.10054      0.00000     0.39880    0.00067     0.39946
 =======================================================================
   * Total *   -0.00000     11.99524    31.87508    0.12968    44.00000

 Normal termination of Gaussian 16 at Wed Dec  9 18:36:51 2020.
