 Gaussian 16, Revision A.03,

 -----------------------------------------------------------
 # opt freq B3LYP/6-31G(d) empiricaldispersion=gd3bj scf=xqc
 -----------------------------------------------------------

 ------------------------------
 CID_21854879_JID_1552_neutraal
 ------------------------------
 Symbolic Z-matrix:
 Charge =  0 Multiplicity = 1

 SCF Done:  E(RB3LYP) =  -537.793472917     A.U. after   15 cycles
 SCF Done:  E(RB3LYP) =  -537.796816031     A.U. after   12 cycles
 SCF Done:  E(RB3LYP) =  -537.797065668     A.U. after   11 cycles
 SCF Done:  E(RB3LYP) =  -537.797019677     A.U. after   11 cycles
 SCF Done:  E(RB3LYP) =  -537.797121127     A.U. after   11 cycles
 SCF Done:  E(RB3LYP) =  -537.797128342     A.U. after    9 cycles
 SCF Done:  E(RB3LYP) =  -537.797132197     A.U. after    9 cycles
 SCF Done:  E(RB3LYP) =  -537.797133537     A.U. after    8 cycles
 SCF Done:  E(RB3LYP) =  -537.797134855     A.U. after    8 cycles
 SCF Done:  E(RB3LYP) =  -537.797136120     A.U. after    8 cycles
 SCF Done:  E(RB3LYP) =  -537.797137504     A.U. after    9 cycles
 SCF Done:  E(RB3LYP) =  -537.797138627     A.U. after    9 cycles
 SCF Done:  E(RB3LYP) =  -537.797138983     A.U. after    8 cycles
 SCF Done:  E(RB3LYP) =  -537.797139036     A.U. after    7 cycles
 Optimization completed.
    -- Stationary point found.

 1\1\GINC-NODE106\FOpt\RB3LYP\6-31G(d)\C8H12O3\VSC10255\08-Dec-2020\0\\
 # opt freq B3LYP/6-31G(d) empiricaldispersion=gd3bj scf=xqc\\CID_21854
 879_JID_1552_neutraal\\0,1\C,1.1079061122,0.1498146291,-0.0135101394\C
 ,0.2316804134,-0.1343468512,-1.2482327863\C,0.7774789789,-1.2298805302
 ,-2.1114198526\C,0.6271324224,-2.5562082669,-1.9964209793\C,1.34907846
 52,-3.2122928193,-3.1167273682\O,1.4481354143,-4.3877702472,-3.3657268
 942\O,1.9400274959,-2.2361033985,-3.8833175074\C,1.6303625225,-0.93831
 22512,-3.3334530838\C,2.9541149752,-0.2367672195,-3.0460016567\O,0.837

 Normal termination of Gaussian 16 at Tue Dec  8 20:23:16 2020.

 --------------------------------------------------------------------
 #N Geom=AllCheck Guess=TCheck SCRF=Check GenChk RB3LYP/6-31G(d) Freq
 --------------------------------------------------------------------

 Structure from the checkpoint file:  "JID_1552.chk"
 ------------------------------
 CID_21854879_JID_1552_neutraal
 ------------------------------
 Charge =  0 Multiplicity = 1

 SCF Done:  E(RB3LYP) =  -537.797139036     A.U. after    1 cycles

  Exact polarizability: 109.163   8.613  94.594  -3.296   0.382  65.919
 Approx polarizability: 168.349  19.253 128.237 -12.461  -2.312  97.354

                      1                      2                      3
                      A                      A                      A
 Frequencies --     63.2262                81.4519                89.5626
 Red. masses --      2.0828                 1.3367                 2.4202
 Frc consts  --      0.0049                 0.0052                 0.0114
 IR Inten    --      0.0823                 1.1655                 0.3381

                      4                      5                      6
                      A                      A                      A
 Frequencies --    117.9409               158.6387               198.1958
 Red. masses --      5.5455                 3.0225                 1.3041
 Frc consts  --      0.0454                 0.0448                 0.0302
 IR Inten    --      0.6166                 2.1783                 0.1030

                      7                      8                      9
                      A                      A                      A
 Frequencies --    253.4923               270.2783               281.2714
 Red. masses --      2.7013                 1.4041                 1.8961
 Frc consts  --      0.1023                 0.0604                 0.0884
 IR Inten    --      1.7206                 0.4446                 5.6722

                     10                     11                     12
                      A                      A                      A
 Frequencies --    287.7916               310.7138               341.0936
 Red. masses --      1.5217                 1.4293                 3.5592
 Frc consts  --      0.0743                 0.0813                 0.2440
 IR Inten    --     12.9007                64.6516                 1.1109

                     13                     14                     15
                      A                      A                      A
 Frequencies --    365.3938               382.6116               505.0872
 Red. masses --      2.7529                 4.0630                 6.3509
 Frc consts  --      0.2165                 0.3504                 0.9546
 IR Inten    --     27.0106                10.7132                13.8855

                     16                     17                     18
                      A                      A                      A
 Frequencies --    543.5831               626.5718               637.8952
 Red. masses --      4.5663                 3.4906                 4.4736
 Frc consts  --      0.7950                 0.8074                 1.0725
 IR Inten    --      7.5580                 0.6808                 3.5780

                     19                     20                     21
                      A                      A                      A
 Frequencies --    654.5872               701.7305               762.0474
 Red. masses --      5.3796                 4.8738                 6.4998
 Frc consts  --      1.3581                 1.4140                 2.2239
 IR Inten    --      8.0069                 6.4672                12.4235

                     22                     23                     24
                      A                      A                      A
 Frequencies --    791.9941               865.9595               928.3899
 Red. masses --      1.3349                 2.2643                 4.7440
 Frc consts  --      0.4933                 1.0004                 2.4091
 IR Inten    --      1.4490                 0.6710                24.2216

                     25                     26                     27
                      A                      A                      A
 Frequencies --    971.7461               975.5654              1014.6399
 Red. masses --      2.5223                 1.9379                 1.7078
 Frc consts  --      1.4033                 1.0867                 1.0359
 IR Inten    --     48.0962                50.7912                24.8306

                     28                     29                     30
                      A                      A                      A
 Frequencies --   1065.0870              1070.7897              1089.0850
 Red. masses --      1.8488                 2.0110                 1.8982
 Frc consts  --      1.2357                 1.3585                 1.3265
 IR Inten    --     27.3996                61.9724                16.3345

                     31                     32                     33
                      A                      A                      A
 Frequencies --   1123.9695              1154.1855              1194.0887
 Red. masses --      1.7030                 2.2487                 3.3877
 Frc consts  --      1.2676                 1.7649                 2.8460
 IR Inten    --     78.8652                12.6291                24.4047

                     34                     35                     36
                      A                      A                      A
 Frequencies --   1204.3945              1224.8398              1304.4214
 Red. masses --      2.6867                 3.3052                 1.3568
 Frc consts  --      2.2962                 2.9215                 1.3602
 IR Inten    --    175.4592                42.5422                 4.8975

                     37                     38                     39
                      A                      A                      A
 Frequencies --   1339.3963              1382.0300              1427.5988
 Red. masses --      1.9868                 1.9068                 1.8445
 Frc consts  --      2.1000                 2.1458                 2.2148
 IR Inten    --     36.1301                10.7312                46.2819

                     40                     41                     42
                      A                      A                      A
 Frequencies --   1434.4003              1439.3609              1447.0758
 Red. masses --      1.2637                 1.2562                 1.4060
 Frc consts  --      1.5320                 1.5334                 1.7346
 IR Inten    --      5.6822                 9.9956                 5.1338

                     43                     44                     45
                      A                      A                      A
 Frequencies --   1504.3688              1508.9484              1514.5181
 Red. masses --      1.0444                 1.0566                 1.0525
 Frc consts  --      1.3926                 1.4174                 1.4224
 IR Inten    --      6.5673                 4.4735                 1.2762

                     46                     47                     48
                      A                      A                      A
 Frequencies --   1521.7741              1527.2183              1531.9011
 Red. masses --      1.0791                 1.0529                 1.0624
 Frc consts  --      1.4723                 1.4469                 1.4689
 IR Inten    --      5.0829                 4.0915                 4.1443

                     49                     50                     51
                      A                      A                      A
 Frequencies --   1539.5840              1757.9115              1870.2506
 Red. masses --      1.0880                 9.2616                12.8709
 Frc consts  --      1.5194                16.8628                26.5251
 IR Inten    --      4.9212                15.0102               420.1788

                     52                     53                     54
                      A                      A                      A
 Frequencies --   3054.5276              3057.4477              3058.9296
 Red. masses --      1.0379                 1.0468                 1.0483
 Frc consts  --      5.7053                 5.7655                 5.7792
 IR Inten    --     12.0516                18.4821                23.8912

                     55                     56                     57
                      A                      A                      A
 Frequencies --   3061.6596              3097.5461              3110.2344
 Red. masses --      1.0370                 1.1019                 1.0987
 Frc consts  --      5.7272                 6.2292                 6.2623
 IR Inten    --     12.1525                 3.4551                 9.2084

                     58                     59                     60
                      A                      A                      A
 Frequencies --   3128.4666              3131.4219              3135.6939
 Red. masses --      1.1028                 1.1022                 1.1012
 Frc consts  --      6.3591                 6.3676                 6.3793
 IR Inten    --     37.9383                37.0199                11.1292

                     61                     62                     63
                      A                      A                      A
 Frequencies --   3139.8442              3153.8021              3725.8384
 Red. masses --      1.1029                 1.1041                 1.0656
 Frc consts  --      6.4063                 6.4706                 8.7154
 IR Inten    --     14.0678                14.8135                23.5381

 - Thermochemistry -
 -------------------
 Temperature   298.150 Kelvin.  Pressure   1.00000 Atm.
 Atom     1 has atomic number  6 and mass  12.00000

 Molecular mass:   156.07864 amu.
 Principal axes and moments of inertia in atomic units:
                           1         2         3
     Eigenvalues --  1335.192221672.361472500.60637
           X            0.99976   0.00523   0.02150
           Y           -0.00564   0.99980   0.01893
           Z           -0.02140  -0.01905   0.99959
 This molecule is an asymmetric top.
 Rotational symmetry number  1.
 Warning -- assumption of classical behavior for rotation
           may cause significant error
 Rotational temperatures (Kelvin)      0.06487     0.05179     0.03464
 Rotational constants (GHZ):           1.35167     1.07916     0.72172
 Zero-point vibrational energy     503712.0 (Joules/Mol)
                                  120.39006 (Kcal/Mol)
 Warning -- explicit consideration of  16 degrees of freedom as
           vibrations may cause significant error
 Vibrational temperatures:     90.97   117.19   128.86   169.69   228.25
          (Kelvin)            285.16   364.72   388.87   404.69   414.07
                              447.05   490.76   525.72   550.49   726.71
                              782.09   901.50   917.79   941.80  1009.63
                             1096.42  1139.50  1245.92  1335.75  1398.13
                             1403.62  1459.84  1532.42  1540.63  1566.95
                             1617.14  1660.62  1718.03  1732.86  1762.27
                             1876.77  1927.09  1988.43  2054.00  2063.78
                             2070.92  2082.02  2164.45  2171.04  2179.05
                             2189.49  2197.33  2204.06  2215.12  2529.24
                             2690.87  4394.78  4398.99  4401.12  4405.05
                             4456.68  4474.93  4501.17  4505.42  4511.56
                             4517.54  4537.62  5360.65

 Zero-point correction=                           0.191854 (Hartree/Particle)
 Thermal correction to Energy=                    0.203786
 Thermal correction to Enthalpy=                  0.204730
 Thermal correction to Gibbs Free Energy=         0.154256
 Sum of electronic and zero-point Energies=           -537.605285
 Sum of electronic and thermal Energies=              -537.593353
 Sum of electronic and thermal Enthalpies=            -537.592409
 Sum of electronic and thermal Free Energies=         -537.642883

                     E (Thermal)             CV                S
                      KCal/Mol        Cal/Mol-Kelvin    Cal/Mol-Kelvin
 Total                  127.877             43.642            106.232
 Electronic               0.000              0.000              0.000
 Translational            0.889              2.981             41.045
 Rotational               0.889              2.981             30.102
 Vibrational            126.100             37.680             35.084
 Vibration     1          0.597              1.972              4.354
 Vibration     2          0.600              1.962              3.856
 Vibration     3          0.602              1.957              3.670
 Vibration     4          0.608              1.934              3.134
 Vibration     5          0.621              1.893              2.566
 Vibration     6          0.637              1.842              2.150
 Vibration     7          0.665              1.757              1.706
 Vibration     8          0.674              1.728              1.594
 Vibration     9          0.681              1.708              1.526
 Vibration    10          0.685              1.696              1.487
 Vibration    11          0.700              1.653              1.359
 Vibration    12          0.721              1.593              1.207
 Vibration    13          0.739              1.543              1.099
 Vibration    14          0.752              1.507              1.029
 Vibration    15          0.860              1.239              0.646
 Vibration    16          0.899              1.154              0.558

 Optimization completed.
    -- Stationary point found.

 1\1\GINC-NODE106\Freq\RB3LYP\6-31G(d)\C8H12O3\VSC10255\08-Dec-2020\0\\
 #N Geom=AllCheck Guess=TCheck SCRF=Check GenChk RB3LYP/6-31G(d) Freq\\
 CID_21854879_JID_1552_neutraal\\0,1\C,1.1079061122,0.1498146291,-0.013
 5101394\C,0.2316804134,-0.1343468512,-1.2482327863\C,0.7774789789,-1.2
 298805302,-2.1114198526\C,0.6271324224,-2.5562082669,-1.9964209793\C,1
 .3490784652,-3.2122928193,-3.1167273682\O,1.4481354143,-4.3877702472,-
 3.3657268942\O,1.9400274959,-2.2361033985,-3.8833175074\C,1.6303625225
 ,-0.9383122512,-3.3334530838\C,2.9541149752,-0.2367672195,-3.046001656

 Normal termination of Gaussian 16 at Tue Dec  8 20:28:13 2020.

 ----------------------------------------------------------------------
 # B3LYP/6-311++G(d,p) empiricaldispersion=gd3bj scf=xqc pop=npa geom=c
 heck
 ----------------------------------------------------------------------

 --------------------------------------
 CID_21854879_JID_1552_Energie_neutraal
 --------------------------------------
 Structure from the checkpoint file:  "JID_1552.chk"
 Charge =  0 Multiplicity = 1

 SCF Done:  E(RB3LYP) =  -537.961424941     A.U. after   14 cycles
 Normal termination of Gaussian 16 at Tue Dec  8 20:31:34 2020.

 ----------------------------------------------------------------------
 # B3LYP/6-311++G(d,p) empiricaldispersion=gd3bj scf=xqc pop=npa geom=c
 heck
 ----------------------------------------------------------------------

 ------------------------------------
 CID_21854879_JID_1552_Energie_kation
 ------------------------------------
 Structure from the checkpoint file:  "JID_1552.chk"
 Charge =  1 Multiplicity = 2

 SCF Done:  E(UB3LYP) =  -537.612935777     A.U. after   24 cycles
 Normal termination of Gaussian 16 at Tue Dec  8 20:37:27 2020.
 Gaussian 16:  ES64L-G16RevA.03 25-Dec-2016

 -----------------------------------
 CID_21854879_JID_1552_Energie_anion
 -----------------------------------
 Structure from the checkpoint file:  "JID_1552.chk"
 Charge = -1 Multiplicity = 2

                         Standard orientation:
 ---------------------------------------------------------------------
 Center     Atomic      Atomic             Coordinates (Angstroms)
 Number     Number       Type             X           Y           Z
 ---------------------------------------------------------------------
      1          6           0       -2.600867    1.323066   -0.649000
      2          6           0       -1.836195    0.844059    0.599554
      3          6           0       -0.473041    0.311917    0.280461
      4          6           0        0.680946    0.973685    0.121243
      5          6           0        1.755129   -0.011907   -0.164200
      6          8           0        2.927851    0.185555   -0.362420
      7          8           0        1.197611   -1.268340   -0.183579
      8          6           0       -0.214883   -1.173074    0.096227
      9          6           0       -0.955822   -1.818596   -1.070574
     10          8           0       -0.506894   -1.804849    1.315401
     11          6           0        0.987823    2.431590    0.206482
     12          1           0       -2.052631    2.123667   -1.156356
     13          1           0       -3.587745    1.707088   -0.369936
     14          1           0       -2.745325    0.510471   -1.367887
     15          1           0       -1.738666    1.681885    1.299972
     16          1           0       -2.409252    0.066781    1.116780
     17          1           0       -0.637226   -2.861876   -1.176529
     18          1           0       -2.034414   -1.795807   -0.892343
     19          1           0       -0.732161   -1.297833   -2.005403
     20          1           0       -0.315710   -2.751235    1.207412
     21          1           0        1.285570    2.822465   -0.773971
     22          1           0        0.127658    3.006707    0.560260
     23          1           0        1.832817    2.604323    0.881642
 ---------------------------------------------------------------------

 SCF Done:  E(UB3LYP) =  -537.958343654     A.U. after   31 cycles

 The electronic state is 2-A.
 Alpha  occ. eigenvalues --  -19.02486 -19.02144 -18.95829 -10.16455 -10.14053
 Alpha  occ. eigenvalues --  -10.05754 -10.05125 -10.04820 -10.03933 -10.03884
 Alpha  occ. eigenvalues --  -10.03686  -0.97655  -0.92413  -0.87590  -0.70138
 Alpha  occ. eigenvalues --   -0.64510  -0.63208  -0.58281  -0.52950  -0.50891
 Alpha  occ. eigenvalues --   -0.45775  -0.42387  -0.39103  -0.35844  -0.33676
 Alpha  occ. eigenvalues --   -0.32474  -0.31850  -0.30416  -0.30082  -0.29397
 Alpha  occ. eigenvalues --   -0.28332  -0.27838  -0.26613  -0.25824  -0.24903
 Alpha  occ. eigenvalues --   -0.23767  -0.22887  -0.20579  -0.19355  -0.17251
 Alpha  occ. eigenvalues --   -0.13561  -0.13075   0.04852
 Alpha virt. eigenvalues --    0.07591   0.08439   0.09353   0.09709   0.11058
 Alpha virt. eigenvalues --    0.11452   0.12207   0.12738   0.12839   0.14805
 Alpha virt. eigenvalues --    0.15355   0.15491   0.15924   0.16974   0.18254

  Beta  occ. eigenvalues --  -19.02448 -19.02128 -18.95624 -10.16471 -10.13888
  Beta  occ. eigenvalues --  -10.05707 -10.05146 -10.04822 -10.03781 -10.03635
  Beta  occ. eigenvalues --  -10.03548  -0.97536  -0.92237  -0.87343  -0.69724
  Beta  occ. eigenvalues --   -0.64323  -0.63091  -0.58083  -0.52710  -0.50753
  Beta  occ. eigenvalues --   -0.45657  -0.41980  -0.38938  -0.35696  -0.33541
  Beta  occ. eigenvalues --   -0.32205  -0.31642  -0.30156  -0.29940  -0.29274
  Beta  occ. eigenvalues --   -0.28179  -0.27658  -0.26329  -0.25554  -0.24703
  Beta  occ. eigenvalues --   -0.23640  -0.22753  -0.20444  -0.19268  -0.16700
  Beta  occ. eigenvalues --   -0.13272  -0.11770
  Beta virt. eigenvalues --    0.07603   0.08447   0.09378   0.09991   0.10759
  Beta virt. eigenvalues --    0.11480   0.11952   0.12369   0.13007   0.13221
  Beta virt. eigenvalues --    0.14993   0.15443   0.15583   0.16084   0.16931

 Mulliken charges and spin densities:
               1          2
     1  C    1.282236  -1.868499
     2  C   -1.588675   0.914230
     3  C    1.070695  -0.065896
     4  C    0.341467   0.061799
     5  C   -0.006786  -0.049715
     6  O   -0.415165   0.073798
     7  O   -0.071701  -0.001172
     8  C   -0.791717   0.278128
     9  C    0.243518  -0.584966
    10  O   -0.129621   0.005512
    11  C   -0.270480  -0.322533
    12  H   -0.097583   0.240505
    13  H   -0.842129   0.981772
    14  H   -0.247738   0.381137
    15  H   -0.073288   0.228210
    16  H    0.073532   0.097891
    17  H    0.034619   0.093081
    18  H   -0.057466   0.232682
    19  H    0.042539   0.132739
    20  H    0.235003   0.003891
    21  H    0.023051   0.139099
    22  H    0.105406   0.022791
    23  H    0.140285   0.005513
 Sum of Mulliken charges =  -1.00000   1.00000

 Dipole moment (field-independent basis, Debye):
    X=              1.8272    Y=             -3.0374    Z=              1.4701  Tot=              3.8374
 Quadrupole moment (field-independent basis, Debye-Ang):
   XX=           -129.2684   YY=            -88.1003   ZZ=            -84.9140
   XY=             10.9874   XZ=             -0.7896   YZ=              0.1262

 Summary of Natural Population Analysis:

                                       Natural Population
                Natural  -----------------------------------------------
    Atom  No    Charge         Core      Valence    Rydberg      Total
 -----------------------------------------------------------------------
      C    1   -0.27409      0.99965     2.26937    0.00507     3.27409
      C    2   -0.21415      0.99960     2.20374    0.01080     3.21415
      C    3    0.06613      0.99937     1.92193    0.01257     2.93387
      C    4   -0.05548      0.99935     2.04701    0.00912     3.05548
      C    5    0.41490      0.99961     1.55911    0.02637     2.58510
      O    6   -0.29311      0.99986     3.28752    0.00572     4.29311
      O    7   -0.29935      0.99986     3.29174    0.00775     4.29935
      C    8    0.27250      0.99949     1.70763    0.02038     2.72750
      C    9   -0.29943      0.99960     2.29277    0.00706     3.29943
      O   10   -0.36306      0.99988     3.35690    0.00628     4.36306
      C   11   -0.29660      0.99964     2.29050    0.00645     3.29660
      H   12    0.09554      0.00000     0.40325    0.00121     0.40446
      H   13    0.10002      0.00000     0.39542    0.00456     0.39998
      H   14    0.09480      0.00000     0.40377    0.00143     0.40520
      H   15    0.10255      0.00000     0.39624    0.00121     0.39745
      H   16    0.10480      0.00000     0.39394    0.00126     0.39520
      H   17    0.09699      0.00000     0.40190    0.00111     0.40301
      H   18    0.10430      0.00000     0.39473    0.00097     0.39570
      H   19    0.10755      0.00000     0.39134    0.00110     0.39245
      H   20    0.22574      0.00000     0.27171    0.00255     0.27426
      H   21    0.10570      0.00000     0.39325    0.00104     0.39430
      H   22    0.09951      0.00000     0.39972    0.00078     0.40049
      H   23    0.10422      0.00000     0.39481    0.00097     0.39578
 =======================================================================
   * Total *   -0.00000     10.99593    30.86830    0.13577    42.00000

 Normal termination of Gaussian 16 at Tue Dec  8 20:45:13 2020.
