 Gaussian 16, Revision A.03,

 -----------------------------------------------------------
 # opt freq B3LYP/6-31G(d) empiricaldispersion=gd3bj scf=xqc
 -----------------------------------------------------------

 -------------------------------
 CID_129911416_JID_5940_neutraal
 -------------------------------
 Symbolic Z-matrix:
 Charge =  0 Multiplicity = 1

 SCF Done:  E(RB3LYP) =  -755.520629804     A.U. after   19 cycles
 SCF Done:  E(RB3LYP) =  -755.530078421     A.U. after   15 cycles
 SCF Done:  E(RB3LYP) =  -755.532168395     A.U. after   15 cycles
 SCF Done:  E(RB3LYP) =  -755.533242236     A.U. after   15 cycles
 SCF Done:  E(RB3LYP) =  -755.533889005     A.U. after   14 cycles
 SCF Done:  E(RB3LYP) =  -755.534057385     A.U. after   13 cycles
 SCF Done:  E(RB3LYP) =  -755.534473063     A.U. after   13 cycles
 SCF Done:  E(RB3LYP) =  -755.534573740     A.U. after   13 cycles
 SCF Done:  E(RB3LYP) =  -755.534592560     A.U. after   12 cycles
 SCF Done:  E(RB3LYP) =  -755.534657621     A.U. after   11 cycles
 SCF Done:  E(RB3LYP) =  -755.534691461     A.U. after    7 cycles
 SCF Done:  E(RB3LYP) =  -755.534691542     A.U. after    7 cycles
 SCF Done:  E(RB3LYP) =  -755.534691627     A.U. after    8 cycles
 SCF Done:  E(RB3LYP) =  -755.534691702     A.U. after    9 cycles
 SCF Done:  E(RB3LYP) =  -755.534691729     A.U. after    8 cycles
 Optimization completed.
    -- Stationary point found.
 Normal termination of Gaussian 16 at Thu Dec 10 17:43:18 2020.

 --------------------------------------------------------------------
 #N Geom=AllCheck Guess=TCheck SCRF=Check GenChk RB3LYP/6-31G(d) Freq
 --------------------------------------------------------------------

 Structure from the checkpoint file:  "JID_5940.chk"
 -------------------------------
 CID_129911416_JID_5940_neutraal
 -------------------------------
 Charge =  0 Multiplicity = 1

 SCF Done:  E(RB3LYP) =  -755.534691729     A.U. after    1 cycles

  Exact polarizability: 150.839  -1.293 133.882   5.755  -1.978  64.123
 Approx polarizability: 204.319   1.369 232.034  16.253  -5.832 104.360

                      1                      2                      3
                      A                      A                      A
 Frequencies --     20.1735                40.0276                61.9900
 Red. masses --      5.4793                 5.3881                 4.8245
 Frc consts  --      0.0013                 0.0051                 0.0109
 IR Inten    --      7.1945                 5.6354                 3.5096

                      4                      5                      6
                      A                      A                      A
 Frequencies --     74.9094                77.4728                92.5058
 Red. masses --      3.3948                 1.8045                 3.4248
 Frc consts  --      0.0112                 0.0064                 0.0173
 IR Inten    --      3.7384                 0.2296                 3.6326

                      7                      8                      9
                      A                      A                      A
 Frequencies --    152.2673               154.3936               172.7860
 Red. masses --      3.1017                 3.0546                 4.4250
 Frc consts  --      0.0424                 0.0429                 0.0778
 IR Inten    --      0.6693                 3.7674                 1.1181

                     10                     11                     12
                      A                      A                      A
 Frequencies --    202.0148               247.5444               270.0565
 Red. masses --      2.9737                 6.7089                 4.5183
 Frc consts  --      0.0715                 0.2422                 0.1941
 IR Inten    --      1.4899                10.4021                 9.2137

                     13                     14                     15
                      A                      A                      A
 Frequencies --    285.7026               364.5188               435.3938
 Red. masses --      3.9447                 7.5512                 5.9386
 Frc consts  --      0.1897                 0.5912                 0.6633
 IR Inten    --      0.3309                 4.4990                43.4553

                     16                     17                     18
                      A                      A                      A
 Frequencies --    469.9725               480.2734               519.3474
 Red. masses --      4.1080                 1.6448                 3.2523
 Frc consts  --      0.5346                 0.2235                 0.5168
 IR Inten    --      7.9083                27.5725                32.5745

                     19                     20                     21
                      A                      A                      A
 Frequencies --    545.6479               564.9895               598.6973
 Red. masses --      4.4520                 6.1271                 5.3453
 Frc consts  --      0.7810                 1.1524                 1.1289
 IR Inten    --      3.4002                 6.9980                16.7855

                     22                     23                     24
                      A                      A                      A
 Frequencies --    615.5214               626.8163               654.6700
 Red. masses --      2.4147                 4.0429                 4.4786
 Frc consts  --      0.5390                 0.9359                 1.1309
 IR Inten    --     34.5621                33.7204                19.7585

                     25                     26                     27
                      A                      A                      A
 Frequencies --    707.1633               732.6721               751.4955
 Red. masses --      1.9517                 3.9460                 2.8948
 Frc consts  --      0.5750                 1.2480                 0.9632
 IR Inten    --     14.7397                34.7584                71.6361

                     28                     29                     30
                      A                      A                      A
 Frequencies --    768.1322               858.1420               862.8148
 Red. masses --      3.7089                 1.5569                 4.0330
 Frc consts  --      1.2893                 0.6755                 1.7689
 IR Inten    --     39.2789                13.6920                 1.5203

                     31                     32                     33
                      A                      A                      A
 Frequencies --    954.4789               970.8317              1016.4490
 Red. masses --      3.8798                 3.4006                 2.0470
 Frc consts  --      2.0825                 1.8884                 1.2460
 IR Inten    --      5.7317                 8.6315                 4.3064

                     34                     35                     36
                      A                      A                      A
 Frequencies --   1021.8290              1064.7345              1091.6216
 Red. masses --      1.7455                 1.8643                 4.1081
 Frc consts  --      1.0738                 1.2452                 2.8843
 IR Inten    --     46.9114                25.6329                 8.6600

                     37                     38                     39
                      A                      A                      A
 Frequencies --   1136.4827              1157.6679              1195.3254
 Red. masses --      2.2632                 1.2736                 2.9949
 Frc consts  --      1.7223                 1.0056                 2.5211
 IR Inten    --     27.3865                 5.6280                23.8352

                     40                     41                     42
                      A                      A                      A
 Frequencies --   1209.6814              1215.0968              1267.8647
 Red. masses --      2.1598                 2.0800                 1.0774
 Frc consts  --      1.8621                 1.8094                 1.0204
 IR Inten    --      9.4631                 6.0656                 0.1036

                     43                     44                     45
                      A                      A                      A
 Frequencies --   1306.9979              1318.4017              1337.7003
 Red. masses --      1.5326                 1.6404                 2.2507
 Frc consts  --      1.5425                 1.6799                 2.3729
 IR Inten    --     60.2393                18.1034                 2.8577

                     46                     47                     48
                      A                      A                      A
 Frequencies --   1397.2167              1428.9484              1439.5344
 Red. masses --      2.0668                 2.3008                 1.2533
 Frc consts  --      2.3773                 2.7679                 1.5303
 IR Inten    --     83.4338               174.0257               149.6781

                     49                     50                     51
                      A                      A                      A
 Frequencies --   1479.6891              1491.8634              1503.9704
 Red. masses --      1.6431                 1.6995                 1.2717
 Frc consts  --      2.1196                 2.2286                 1.6948
 IR Inten    --     37.5640                33.9835                36.6765

                     52                     53                     54
                      A                      A                      A
 Frequencies --   1519.2368              1524.2912              1532.4556
 Red. masses --      1.1568                 6.6630                 1.2339
 Frc consts  --      1.5731                 9.1213                 1.7073
 IR Inten    --     18.9175               113.7818                26.2684

                     55                     56                     57
                      A                      A                      A
 Frequencies --   1546.9110              1684.0129              1765.3027
 Red. masses --      1.1065                 7.9258                 9.4837
 Frc consts  --      1.5601                13.2429                17.4128
 IR Inten    --     41.2069                21.3522               505.4040

                     58                     59                     60
                      A                      A                      A
 Frequencies --   1797.3740              1844.1635              2996.0261
 Red. masses --      7.5738                12.6004                 1.0719
 Frc consts  --     14.4159                25.2485                 5.6686
 IR Inten    --    210.0145               217.0115                 0.5142

                     61                     62                     63
                      A                      A                      A
 Frequencies --   3041.9528              3050.7159              3093.5360
 Red. masses --      1.0448                 1.0654                 1.0963
 Frc consts  --      5.6960                 5.8420                 6.1815
 IR Inten    --     30.3979                31.4481                11.1627

                     64                     65                     66
                      A                      A                      A
 Frequencies --   3106.3814              3111.5417              3156.4101
 Red. masses --      1.0880                 1.0945                 1.1022
 Frc consts  --      6.1854                 6.2434                 6.4699
 IR Inten    --      0.0770                20.8281                17.2766

                     67                     68                     69
                      A                      A                      A
 Frequencies --   3223.1543              3521.2799              3613.5163
 Red. masses --      1.0916                 1.0748                 1.0766
 Frc consts  --      6.6813                 7.8516                 8.2824
 IR Inten    --      0.9368               169.5859                36.1550

 - Thermochemistry -
 -------------------
 Temperature   298.150 Kelvin.  Pressure   1.00000 Atm.
 Atom     1 has atomic number  6 and mass  12.00000

 Molecular mass:   210.07529 amu.
 Principal axes and moments of inertia in atomic units:
                           1         2         3
     Eigenvalues --  1826.235575513.921137175.90299
           X            0.99930  -0.03742  -0.00039
           Y            0.03742   0.99930   0.00011
           Z            0.00039  -0.00013   1.00000
 This molecule is an asymmetric top.
 Rotational symmetry number  1.
 Warning -- assumption of classical behavior for rotation
           may cause significant error
 Rotational temperatures (Kelvin)      0.04743     0.01571     0.01207
 Rotational constants (GHZ):           0.98823     0.32731     0.25150
 Zero-point vibrational energy     499696.7 (Joules/Mol)
                                  119.43037 (Kcal/Mol)
 Warning -- explicit consideration of  22 degrees of freedom as
           vibrations may cause significant error
 Vibrational temperatures:     29.03    57.59    89.19   107.78   111.47
          (Kelvin)            133.10   219.08   222.14   248.60   290.65
                              356.16   388.55   411.06   524.46   626.43
                              676.19   691.01   747.23   785.07   812.89
                              861.39   885.60   901.85   941.92  1017.45
                             1054.15  1081.23  1105.17  1234.67  1241.40
                             1373.28  1396.81  1462.44  1470.18  1531.92
                             1570.60  1635.15  1665.63  1719.81  1740.46
                             1748.25  1824.17  1880.48  1896.89  1924.65
                             2010.28  2055.94  2071.17  2128.94  2146.46
                             2163.88  2185.84  2193.11  2204.86  2225.66
                             2422.92  2539.88  2586.02  2653.34  4310.61
                             4376.69  4389.30  4450.91  4469.39  4476.81
                             4541.37  4637.40  5066.34  5199.04

 Zero-point correction=                           0.190324 (Hartree/Particle)
 Thermal correction to Energy=                    0.205058
 Thermal correction to Enthalpy=                  0.206002
 Thermal correction to Gibbs Free Energy=         0.146067
 Sum of electronic and zero-point Energies=           -755.344367
 Sum of electronic and thermal Energies=              -755.329634
 Sum of electronic and thermal Enthalpies=            -755.328690
 Sum of electronic and thermal Free Energies=         -755.388624

                     E (Thermal)             CV                S
                      KCal/Mol        Cal/Mol-Kelvin    Cal/Mol-Kelvin
 Total                  128.676             52.295            126.144
 Electronic               0.000              0.000              0.000
 Translational            0.889              2.981             41.931
 Rotational               0.889              2.981             32.646
 Vibrational            126.898             46.333             51.566
 Vibration     1          0.593              1.986              6.617
 Vibration     2          0.594              1.981              5.258
 Vibration     3          0.597              1.972              4.393
 Vibration     4          0.599              1.966              4.020
 Vibration     5          0.599              1.964              3.954
 Vibration     6          0.602              1.955              3.606
 Vibration     7          0.619              1.900              2.644
 Vibration     8          0.620              1.898              2.617
 Vibration     9          0.626              1.876              2.405
 Vibration    10          0.639              1.837              2.115
 Vibration    11          0.661              1.767              1.748
 Vibration    12          0.674              1.728              1.596
 Vibration    13          0.683              1.700              1.499
 Vibration    14          0.738              1.545              1.103
 Vibration    15          0.796              1.393              0.841
 Vibration    16          0.827              1.317              0.738
 Vibration    17          0.837              1.294              0.709
 Vibration    18          0.874              1.207              0.611
 Vibration    19          0.901              1.149              0.553
 Vibration    20          0.921              1.107              0.514
 Vibration    21          0.957              1.035              0.452
 Vibration    22          0.975              0.999              0.424

 Optimization completed.
    -- Stationary point found.
 Normal termination of Gaussian 16 at Thu Dec 10 17:49:25 2020.

 ----------------------------------------------------------------------
 # B3LYP/6-311++G(d,p) empiricaldispersion=gd3bj scf=xqc pop=npa geom=c
 heck
 ----------------------------------------------------------------------

 ---------------------------------------
 CID_129911416_JID_5940_Energie_neutraal
 ---------------------------------------
 Structure from the checkpoint file:  "JID_5940.chk"
 Charge =  0 Multiplicity = 1

 SCF Done:  E(RB3LYP) =  -755.758553342     A.U. after   19 cycles
 Normal termination of Gaussian 16 at Thu Dec 10 17:52:18 2020.

 ----------------------------------------------------------------------
 # B3LYP/6-311++G(d,p) empiricaldispersion=gd3bj scf=xqc pop=npa geom=c
 heck
 ----------------------------------------------------------------------

 -------------------------------------
 CID_129911416_JID_5940_Energie_kation
 -------------------------------------
 Structure from the checkpoint file:  "JID_5940.chk"
 Charge =  1 Multiplicity = 2

 SCF Done:  E(UB3LYP) =  -755.436415166     A.U. after   33 cycles
 SCF Done:  E(UB3LYP) =  -755.436415166     a.u. after    1 cycles
 Normal termination of Gaussian 16 at Thu Dec 10 17:58:45 2020.
 Gaussian 16:  ES64L-G16RevA.03 25-Dec-2016

 ----------------------------------------------------------------------
 # B3LYP/6-311++G(d,p) empiricaldispersion=gd3bj scf=xqc pop=npa geom=c
 heck
 ----------------------------------------------------------------------

 ------------------------------------
 CID_129911416_JID_5940_Energie_anion
 ------------------------------------
 Structure from the checkpoint file:  "JID_5940.chk"
 Charge = -1 Multiplicity = 2

                         Standard orientation:
 ---------------------------------------------------------------------
 Center     Atomic      Atomic             Coordinates (Angstroms)
 Number     Number       Type             X           Y           Z
 ---------------------------------------------------------------------
      1          6           0        3.286832   -2.421767   -0.081694
      2          7           0        3.852887   -1.082008   -0.094477
      3          6           0        3.163302    0.089062   -0.071583
      4          8           0        3.710603    1.181220   -0.182031
      5          6           0        1.649079   -0.036588    0.126381
      6          7           0        1.100949    1.301098    0.110328
      7          6           0       -0.178904    1.745712    0.017814
      8          8           0       -0.436993    2.935512   -0.153364
      9          6           0       -1.317841    0.763186    0.117970
     10          6           0       -2.572237    1.188060   -0.118619
     11          6           0       -3.701674    0.218681   -0.026261
     12          6           0       -3.191077   -1.200527   -0.083222
     13          8           0       -3.768035   -2.123887   -0.606035
     14          7           0       -1.921837   -1.461221    0.578116
     15          7           0       -1.061918   -0.538908    0.628856
     16          1           0        2.555255   -2.530969    0.724488
     17          1           0        4.091743   -3.136758    0.099490
     18          1           0        2.800486   -2.682095   -1.031043
     19          1           0        4.843001   -0.972633   -0.270887
     20          1           0        1.229503   -0.665361   -0.668979
     21          1           0        1.439273   -0.553397    1.068469
     22          1           0        1.810111    2.023046   -0.002559
     23          1           0       -2.744036    2.236953   -0.339667
     24          1           0       -4.444853    0.359005   -0.818075
     25          1           0       -4.240525    0.371805    0.925726
 ---------------------------------------------------------------------

 SCF Done:  E(UB3LYP) =  -755.823684779     A.U. after   23 cycles

 The electronic state is 2-A.
 Alpha  occ. eigenvalues --  -19.01095 -18.95031 -18.94750 -14.26731 -14.21050
 Alpha  occ. eigenvalues --  -14.17178 -14.15927 -10.19268 -10.14120 -10.14038
 Alpha  occ. eigenvalues --  -10.11152 -10.10544 -10.04639 -10.04310 -10.02393
 Alpha  occ. eigenvalues --   -0.96339  -0.90453  -0.89701  -0.85369  -0.84383
 Alpha  occ. eigenvalues --   -0.80099  -0.66567  -0.64748  -0.62924  -0.61563
 Alpha  occ. eigenvalues --   -0.51428  -0.50886  -0.48988  -0.44546  -0.42799
 Alpha  occ. eigenvalues --   -0.40123  -0.39559  -0.38410  -0.36142  -0.35387
 Alpha  occ. eigenvalues --   -0.34527  -0.33650  -0.32506  -0.30974  -0.30071
 Alpha  occ. eigenvalues --   -0.29739  -0.28560  -0.27028  -0.26500  -0.25273
 Alpha  occ. eigenvalues --   -0.23619  -0.21419  -0.18913  -0.18615  -0.17909
 Alpha  occ. eigenvalues --   -0.13744  -0.13275  -0.12623  -0.11256  -0.05069
 Alpha  occ. eigenvalues --    0.00520
 Alpha virt. eigenvalues --    0.05290   0.08186   0.09378   0.09646   0.10209
 Alpha virt. eigenvalues --    0.10691   0.10872   0.12286   0.12715   0.13285
 Alpha virt. eigenvalues --    0.13741   0.14289   0.15169   0.15500   0.16297

  Beta  occ. eigenvalues --  -19.01092 -18.95059 -18.94458 -14.26731 -14.21041
  Beta  occ. eigenvalues --  -14.16601 -14.15458 -10.19265 -10.14120 -10.14015
  Beta  occ. eigenvalues --  -10.11149 -10.10454 -10.04763 -10.04364 -10.01859
  Beta  occ. eigenvalues --   -0.96334  -0.90455  -0.89129  -0.85368  -0.83419
  Beta  occ. eigenvalues --   -0.80081  -0.65952  -0.64731  -0.62837  -0.61057
  Beta  occ. eigenvalues --   -0.51283  -0.50000  -0.48666  -0.44062  -0.42791
  Beta  occ. eigenvalues --   -0.40031  -0.39550  -0.38351  -0.36080  -0.35340
  Beta  occ. eigenvalues --   -0.34174  -0.33648  -0.31722  -0.30683  -0.29843
  Beta  occ. eigenvalues --   -0.29612  -0.28336  -0.26686  -0.26324  -0.24497
  Beta  occ. eigenvalues --   -0.22520  -0.19439  -0.18794  -0.18475  -0.17355
  Beta  occ. eigenvalues --   -0.13493  -0.13194  -0.12027  -0.09615  -0.04367
  Beta virt. eigenvalues --    0.05289   0.08050   0.08270   0.09409   0.09737
  Beta virt. eigenvalues --    0.10285   0.10699   0.12204   0.12358   0.12828
  Beta virt. eigenvalues --    0.13373   0.13771   0.14316   0.15222   0.15530

 Mulliken charges and spin densities:
               1          2
     1  C   -0.337700  -0.000592
     2  N   -0.315778  -0.000066
     3  C   -0.047700   0.003439
     4  O   -0.367100   0.000953
     5  C   -0.367660  -0.012122
     6  N   -0.270545   0.006957
     7  C    0.083643   0.018508
     8  O   -0.389124  -0.009403
     9  C    0.126628  -0.109980
    10  C    0.119124   0.449219
    11  C   -0.639594  -0.074765
    12  C   -0.075833   0.063490
    13  O   -0.349922   0.101742
    14  N    0.010241   0.228628
    15  N   -0.212225   0.261140
    16  H    0.179322  -0.000093
    17  H    0.133383   0.000020
    18  H    0.163409   0.000042
    19  H    0.316639   0.000311
    20  H    0.241047   0.007819
    21  H    0.224922   0.003089
    22  H    0.329631  -0.000230
    23  H    0.196930  -0.021155
    24  H    0.130811   0.019830
    25  H    0.117452   0.063218
 Sum of Mulliken charges =  -1.00000   1.00000

 Dipole moment (field-independent basis, Debye):
    X=              9.0173    Y=             -2.0415    Z=             -0.1946  Tot=              9.2475
 Quadrupole moment (field-independent basis, Debye-Ang):
   XX=           -121.4506   YY=           -123.2793   ZZ=            -93.7981
   XY=            -32.2545   XZ=             -3.3296   YZ=              1.4257

 Summary of Natural Population Analysis:

                                       Natural Population
                Natural  -----------------------------------------------
    Atom  No    Charge         Core      Valence    Rydberg      Total
 -----------------------------------------------------------------------
      C    1   -0.18322      0.99966     2.17715    0.00641     3.18322
      N    2   -0.31880      0.99967     2.81064    0.00849     3.81880
      C    3    0.34280      0.99968     1.63612    0.02140     2.65720
      O    4   -0.32989      0.99988     3.32282    0.00720     4.32989
      C    5   -0.13358      0.99959     2.12523    0.00876     3.13358
      N    6   -0.31927      0.99966     2.80949    0.01012     3.81927
      C    7    0.33876      0.99962     1.64010    0.02152     2.66124
      O    8   -0.34560      0.99988     3.33928    0.00644     4.34560
      C    9   -0.04853      0.99939     2.03612    0.01303     3.04853
      C   10    0.06438      0.99950     1.92830    0.00781     2.93562
      C   11   -0.26590      0.99959     2.25853    0.00779     3.26590
      C   12    0.33808      0.99969     1.63657    0.02567     2.66192
      O   13   -0.27038      0.99987     3.26166    0.00886     4.27038
      N   14   -0.08438      0.99973     2.56262    0.02203     3.58438
      N   15   -0.03764      0.99973     2.51893    0.01898     3.53764
      H   16    0.10494      0.00000     0.39400    0.00106     0.39506
      H   17    0.09586      0.00000     0.40337    0.00076     0.40414
      H   18    0.09437      0.00000     0.40452    0.00111     0.40563
      H   19    0.19055      0.00000     0.30684    0.00261     0.30945
      H   20    0.11133      0.00000     0.38755    0.00111     0.38867
      H   21    0.11844      0.00000     0.37999    0.00157     0.38156
      H   22    0.20244      0.00000     0.29498    0.00258     0.29756
      H   23    0.09821      0.00000     0.40036    0.00143     0.40179
      H   24    0.11488      0.00000     0.38364    0.00148     0.38512
      H   25    0.12214      0.00000     0.37661    0.00125     0.37786
 =======================================================================
   * Total *    0.00000     14.99511    39.79542    0.20947    55.00000

 Normal termination of Gaussian 16 at Thu Dec 10 18:03:40 2020.
