 Gaussian 16, Revision A.03,

 -----------------------------------------------------------
 # opt freq B3LYP/6-31G(d) empiricaldispersion=gd3bj scf=xqc
 -----------------------------------------------------------

 -------------------------------
 CID_113580081_JID_8929_neutraal
 -------------------------------
 Symbolic Z-matrix:
 Charge =  0 Multiplicity = 1

 SCF Done:  E(RB3LYP) =  -1217.56749015     A.U. after   15 cycles
 SCF Done:  E(RB3LYP) =  -1217.57507343     A.U. after   13 cycles
 SCF Done:  E(RB3LYP) =  -1217.57649172     A.U. after   13 cycles
 SCF Done:  E(RB3LYP) =  -1217.57713701     A.U. after   13 cycles
 SCF Done:  E(RB3LYP) =  -1217.57754969     A.U. after   13 cycles
 SCF Done:  E(RB3LYP) =  -1217.57773908     A.U. after   12 cycles
 SCF Done:  E(RB3LYP) =  -1217.57775929     A.U. after   12 cycles
 SCF Done:  E(RB3LYP) =  -1217.57783084     A.U. after   10 cycles
 SCF Done:  E(RB3LYP) =  -1217.57785446     A.U. after   10 cycles
 SCF Done:  E(RB3LYP) =  -1217.57787919     A.U. after   11 cycles
 SCF Done:  E(RB3LYP) =  -1217.57804551     A.U. after   11 cycles
 SCF Done:  E(RB3LYP) =  -1217.57804054     A.U. after   10 cycles
 SCF Done:  E(RB3LYP) =  -1217.57804598     A.U. after   11 cycles
 SCF Done:  E(RB3LYP) =  -1217.57804609     A.U. after    7 cycles
 SCF Done:  E(RB3LYP) =  -1217.57804615     A.U. after    7 cycles
 Optimization completed.
    -- Stationary point found.
 Normal termination of Gaussian 16 at Fri Dec 11 23:15:17 2020.

 --------------------------------------------------------------------
 #N Geom=AllCheck Guess=TCheck SCRF=Check GenChk RB3LYP/6-31G(d) Freq
 --------------------------------------------------------------------

 Structure from the checkpoint file:  "JID_8929.chk"
 -------------------------------
 CID_113580081_JID_8929_neutraal
 -------------------------------
 Charge =  0 Multiplicity = 1

 SCF Done:  E(RB3LYP) =  -1217.57804615     A.U. after    1 cycles

  Exact polarizability: 211.538 -32.537 130.679  -2.703  -4.347 142.170
 Approx polarizability: 287.331 -61.135 194.487 -15.033  -3.132 253.476

                      1                      2                      3
                      A                      A                      A
 Frequencies --     13.8570                26.0819                40.4955
 Red. masses --      4.8310                 5.6543                 4.6103
 Frc consts  --      0.0005                 0.0023                 0.0045
 IR Inten    --      0.1737                 0.1130                 0.2628

                      4                      5                      6
                      A                      A                      A
 Frequencies --     47.4049                81.8153                91.4180
 Red. masses --      2.7493                 4.9946                12.7290
 Frc consts  --      0.0036                 0.0197                 0.0627
 IR Inten    --      0.1386                 1.1411                 1.9310

                      7                      8                      9
                      A                      A                      A
 Frequencies --    109.8602               135.2740               146.9088
 Red. masses --      4.6922                 5.2421                 2.1657
 Frc consts  --      0.0334                 0.0565                 0.0275
 IR Inten    --      0.3745                 3.6584                 0.6541

                     10                     11                     12
                      A                      A                      A
 Frequencies --    184.3804               239.9473               256.0772
 Red. masses --      5.5426                 3.6739                 2.6205
 Frc consts  --      0.1110                 0.1246                 0.1012
 IR Inten    --      0.7599                 0.8983                 6.2330

                     13                     14                     15
                      A                      A                      A
 Frequencies --    261.2811               270.9853               299.2731
 Red. masses --      1.6177                 2.7429                 5.0531
 Frc consts  --      0.0651                 0.1187                 0.2667
 IR Inten    --      0.4609                 1.6820                 1.1870

                     16                     17                     18
                      A                      A                      A
 Frequencies --    327.7594               353.9881               376.1983
 Red. masses --      2.5877                 1.6816                 3.6146
 Frc consts  --      0.1638                 0.1242                 0.3014
 IR Inten    --      2.0751                76.5879                44.9396

                     19                     20                     21
                      A                      A                      A
 Frequencies --    401.3296               427.2967               465.9121
 Red. masses --      2.3279                 2.7076                 8.4189
 Frc consts  --      0.2209                 0.2913                 1.0767
 IR Inten    --      6.1385                15.3521                 3.1292

                     22                     23                     24
                      A                      A                      A
 Frequencies --    468.5076               497.0785               499.7873
 Red. masses --      2.8190                 2.4037                 3.2248
 Frc consts  --      0.3646                 0.3499                 0.4746
 IR Inten    --      0.4520                 1.7480                23.4564

                     25                     26                     27
                      A                      A                      A
 Frequencies --    509.0144               553.2946               578.2896
 Red. masses --      2.7644                 3.5853                 1.3480
 Frc consts  --      0.4220                 0.6467                 0.2656
 IR Inten    --     41.2103                15.7093                52.1633

                     28                     29                     30
                      A                      A                      A
 Frequencies --    611.6410               632.7264               651.0202
 Red. masses --      7.1507                 2.3222                 6.4027
 Frc consts  --      1.5761                 0.5477                 1.5988
 IR Inten    --     40.1187                16.7264                18.8955

                     31                     32                     33
                      A                      A                      A
 Frequencies --    700.2207               749.0206               755.6467
 Red. masses --      4.6878                 4.0582                 7.7433
 Frc consts  --      1.3542                 1.3415                 2.6050
 IR Inten    --     41.2963                 5.3108                43.3801

                     34                     35                     36
                      A                      A                      A
 Frequencies --    779.1545               793.6694               821.3168
 Red. masses --      2.9706                 4.1634                 1.1508
 Frc consts  --      1.0625                 1.5452                 0.4574
 IR Inten    --      1.1282                12.8620                 2.4269

                     37                     38                     39
                      A                      A                      A
 Frequencies --    846.3866               891.9028               909.4356
 Red. masses --      2.5921                 2.8281                 1.7852
 Frc consts  --      1.0940                 1.3255                 0.8699
 IR Inten    --      4.7427                 8.7338                 3.2902

                     40                     41                     42
                      A                      A                      A
 Frequencies --    914.1926               959.5981               996.9901
 Red. masses --      1.4208                 2.3617                 2.3706
 Frc consts  --      0.6996                 1.2813                 1.3883
 IR Inten    --      3.9864                21.8459                 3.9582

                     43                     44                     45
                      A                      A                      A
 Frequencies --   1054.0408              1067.2822              1069.2308
 Red. masses --      3.5702                 3.8725                 5.8914
 Frc consts  --      2.3370                 2.5990                 3.9684
 IR Inten    --     40.6090                44.5137               105.6333

                     46                     47                     48
                      A                      A                      A
 Frequencies --   1089.2419              1093.9637              1109.9769
 Red. masses --      1.8855                 2.4646                 2.5182
 Frc consts  --      1.3180                 1.7378                 1.8280
 IR Inten    --      8.1572                 8.8010                10.6954

                     49                     50                     51
                      A                      A                      A
 Frequencies --   1131.0379              1139.6005              1146.3065
 Red. masses --      2.6959                 4.3008                 2.0233
 Frc consts  --      2.0319                 3.2909                 1.5665
 IR Inten    --    134.2879               106.6093                 5.5322

                     52                     53                     54
                      A                      A                      A
 Frequencies --   1175.8333              1202.5288              1221.2211
 Red. masses --      1.9023                 2.1881                 1.8543
 Frc consts  --      1.5496                 1.8642                 1.6293
 IR Inten    --     45.6300                71.5148               199.5981

                     55                     56                     57
                      A                      A                      A
 Frequencies --   1225.2081              1275.2724              1281.8695
 Red. masses --      2.0514                 1.2915                 1.2521
 Frc consts  --      1.8144                 1.2375                 1.2122
 IR Inten    --    145.0837                12.3755                23.7362

                     58                     59                     60
                      A                      A                      A
 Frequencies --   1290.1948              1306.0844              1332.2889
 Red. masses --      2.0787                 1.2500                 3.8486
 Frc consts  --      2.0387                 1.2563                 4.0248
 IR Inten    --     13.6581                14.2417               103.6720

                     61                     62                     63
                      A                      A                      A
 Frequencies --   1348.8653              1356.4534              1362.9671
 Red. masses --      1.1853                 1.2360                 1.2411
 Frc consts  --      1.2706                 1.3399                 1.3584
 IR Inten    --     13.0612                11.7742                27.2828

                     64                     65                     66
                      A                      A                      A
 Frequencies --   1388.9704              1398.6891              1411.4672
 Red. masses --      1.4010                 1.4275                 1.3432
 Frc consts  --      1.5924                 1.6454                 1.5766
 IR Inten    --      3.5141                37.9676                25.9350

                     67                     68                     69
                      A                      A                      A
 Frequencies --   1414.5428              1416.9674              1429.8402
 Red. masses --      2.7224                 1.4451                 1.4398
 Frc consts  --      3.2094                 1.7095                 1.7343
 IR Inten    --     97.8077                15.9583                 1.5131

                     70                     71                     72
                      A                      A                      A
 Frequencies --   1439.0953              1445.1090              1496.1181
 Red. masses --      1.3248                 1.3373                 1.0846
 Frc consts  --      1.6165                 1.6454                 1.4304
 IR Inten    --     11.0494                16.4718                 1.8275

                     73                     74                     75
                      A                      A                      A
 Frequencies --   1500.7309              1506.0750              1516.7985
 Red. masses --      1.2767                 1.0927                 1.6167
 Frc consts  --      1.6941                 1.4603                 2.1915
 IR Inten    --     76.7070                 4.1659                64.3131

                     76                     77                     78
                      A                      A                      A
 Frequencies --   1525.1133              1525.9484              1532.1706
 Red. masses --      1.0918                 1.0576                 1.0515
 Frc consts  --      1.4962                 1.4510                 1.4544
 IR Inten    --      1.8524                 2.7582                 5.4763

                     79                     80                     81
                      A                      A                      A
 Frequencies --   1547.4765              1583.9735              1599.6566
 Red. masses --      1.0825                 3.3670                 6.0817
 Frc consts  --      1.5274                 4.9772                 9.1691
 IR Inten    --      0.9640               487.5199               248.4497

                     82                     83                     84
                      A                      A                      A
 Frequencies --   1806.7508              2959.4915              3003.4185
 Red. masses --      9.5618                 1.0725                 1.0703
 Frc consts  --     18.3902                 5.5344                 5.6883
 IR Inten    --    420.5335                34.8125                54.0292

                     85                     86                     87
                      A                      A                      A
 Frequencies --   3018.9261              3034.7397              3038.2691
 Red. masses --      1.0723                 1.0784                 1.0638
 Frc consts  --      5.7579                 5.8515                 5.7858
 IR Inten    --      9.5255                22.6033                63.6748

                     88                     89                     90
                      A                      A                      A
 Frequencies --   3056.8764              3066.2196              3089.6754
 Red. masses --      1.0360                 1.0888                 1.0602
 Frc consts  --      5.7038                 6.0313                 5.9627
 IR Inten    --     14.2833                22.0016                33.2839

                     91                     92                     93
                      A                      A                      A
 Frequencies --   3093.2450              3105.6944              3114.8716
 Red. masses --      1.1013                 1.0959                 1.0962
 Frc consts  --      6.2083                 6.2279                 6.2662
 IR Inten    --     45.0812                59.8165                34.7440

                     94                     95                     96
                      A                      A                      A
 Frequencies --   3124.9111              3133.9492              3144.8073
 Red. masses --      1.0979                 1.1034                 1.1066
 Frc consts  --      6.3169                 6.3849                 6.4479
 IR Inten    --     43.8425                31.2206                 8.8412

                     97                     98                     99
                      A                      A                      A
 Frequencies --   3243.0617              3641.8025              3703.7976
 Red. masses --      1.0939                 1.0775                 1.0642
 Frc consts  --      6.7784                 8.4194                 8.6012
 IR Inten    --      3.0553                51.9391                90.2008

 - Thermochemistry -
 -------------------
 Temperature   298.150 Kelvin.  Pressure   1.00000 Atm.
 Atom     1 has atomic number  6 and mass  12.00000

 Molecular mass:   271.09906 amu.
 Principal axes and moments of inertia in atomic units:
                           1         2         3
     Eigenvalues --  2498.77431********************
           X            0.99997   0.00741   0.00222
           Y           -0.00741   0.99997  -0.00316
           Z           -0.00224   0.00314   0.99999
 This molecule is an asymmetric top.
 Rotational symmetry number  1.
 Warning -- assumption of classical behavior for rotation
           may cause significant error
 Rotational temperatures (Kelvin)      0.03466     0.00855     0.00791
 Rotational constants (GHZ):           0.72225     0.17807     0.16475
 Zero-point vibrational energy     759719.4 (Joules/Mol)
                                  181.57728 (Kcal/Mol)
 Warning -- explicit consideration of  28 degrees of freedom as
           vibrations may cause significant error
 Vibrational temperatures:     19.94    37.53    58.26    68.21   117.71
          (Kelvin)            131.53   158.06   194.63   211.37   265.28
                              345.23   368.44   375.93   389.89   430.59
                              471.57   509.31   541.27   577.42   614.78
                              670.34   674.08   715.19   719.08   732.36
                              796.07   832.03   880.02   910.35   936.67
                             1007.46  1077.67  1087.21  1121.03  1141.91
                             1181.69  1217.76  1283.25  1308.47  1315.32
                             1380.65  1434.45  1516.53  1535.58  1538.38
                             1567.18  1573.97  1597.01  1627.31  1639.63
                             1649.28  1691.76  1730.17  1757.06  1762.80
                             1834.83  1844.32  1856.30  1879.16  1916.87
                             1940.72  1951.63  1961.01  1998.42  2012.40
                             2030.79  2035.21  2038.70  2057.22  2070.54
                             2079.19  2152.58  2159.22  2166.91  2182.33
                             2194.30  2195.50  2204.45  2226.47  2278.98
                             2301.55  2599.51  4258.05  4321.25  4343.56
                             4366.31  4371.39  4398.16  4411.61  4445.35
                             4450.49  4468.40  4481.61  4496.05  4509.05
                             4524.68  4666.04  5239.74  5328.94

 Zero-point correction=                           0.289362 (Hartree/Particle)
 Thermal correction to Energy=                    0.307101
 Thermal correction to Enthalpy=                  0.308045
 Thermal correction to Gibbs Free Energy=         0.240844
 Sum of electronic and zero-point Energies=          -1217.288684
 Sum of electronic and thermal Energies=             -1217.270946
 Sum of electronic and thermal Enthalpies=           -1217.270001
 Sum of electronic and thermal Free Energies=        -1217.337202

                     E (Thermal)             CV                S
                      KCal/Mol        Cal/Mol-Kelvin    Cal/Mol-Kelvin
 Total                  192.708             66.252            141.435
 Electronic               0.000              0.000              0.000
 Translational            0.889              2.981             42.691
 Rotational               0.889              2.981             33.983
 Vibrational            190.931             60.290             64.761
 Vibration     1          0.593              1.986              7.363
 Vibration     2          0.593              1.985              6.107
 Vibration     3          0.594              1.981              5.235
 Vibration     4          0.595              1.979              4.923
 Vibration     5          0.600              1.962              3.847
 Vibration     6          0.602              1.955              3.629
 Vibration     7          0.606              1.941              3.271
 Vibration     8          0.613              1.918              2.870
 Vibration     9          0.617              1.906              2.712
 Vibration    10          0.631              1.861              2.284
 Vibration    11          0.657              1.779              1.803
 Vibration    12          0.666              1.753              1.688
 Vibration    13          0.669              1.744              1.653
 Vibration    14          0.675              1.727              1.590
 Vibration    15          0.692              1.675              1.421
 Vibration    16          0.711              1.620              1.271
 Vibration    17          0.730              1.567              1.148
 Vibration    18          0.747              1.521              1.054
 Vibration    19          0.767              1.467              0.958
 Vibration    20          0.789              1.411              0.868
 Vibration    21          0.823              1.326              0.749
 Vibration    22          0.826              1.320              0.742
 Vibration    23          0.853              1.256              0.665
 Vibration    24          0.855              1.250              0.659
 Vibration    25          0.864              1.230              0.636
 Vibration    26          0.909              1.132              0.537
 Vibration    27          0.935              1.078              0.489
 Vibration    28          0.971              1.007              0.430

 Optimization completed.
    -- Stationary point found.
 Normal termination of Gaussian 16 at Fri Dec 11 23:30:02 2020.

 ----------------------------------------------------------------------
 # B3LYP/6-311++G(d,p) empiricaldispersion=gd3bj scf=xqc pop=npa geom=c
 heck
 ----------------------------------------------------------------------

 ---------------------------------------
 CID_113580081_JID_8929_Energie_neutraal
 ---------------------------------------
 Structure from the checkpoint file:  "JID_8929.chk"
 Charge =  0 Multiplicity = 1

 SCF Done:  E(RB3LYP) =  -1217.84644170     A.U. after   15 cycles
 Normal termination of Gaussian 16 at Fri Dec 11 23:36:43 2020.

 ----------------------------------------------------------------------
 # B3LYP/6-311++G(d,p) empiricaldispersion=gd3bj scf=xqc pop=npa geom=c
 heck
 ----------------------------------------------------------------------

 -------------------------------------
 CID_113580081_JID_8929_Energie_kation
 -------------------------------------
 Structure from the checkpoint file:  "JID_8929.chk"
 Charge =  1 Multiplicity = 2

 SCF Done:  E(UB3LYP) =  -1217.57063791     A.U. after   26 cycles
 Normal termination of Gaussian 16 at Fri Dec 11 23:53:21 2020.
 Gaussian 16:  ES64L-G16RevA.03 25-Dec-2016

 ----------------------------------------------------------------------
 # B3LYP/6-311++G(d,p) empiricaldispersion=gd3bj scf=xqc pop=npa geom=c
 heck
 ----------------------------------------------------------------------

 ------------------------------------
 CID_113580081_JID_8929_Energie_anion
 ------------------------------------
 Structure from the checkpoint file:  "JID_8929.chk"
 Charge = -1 Multiplicity = 2

                         Standard orientation:
 ---------------------------------------------------------------------
 Center     Atomic      Atomic             Coordinates (Angstroms)
 Number     Number       Type             X           Y           Z
 ---------------------------------------------------------------------
      1          6           0        1.726476    2.999377    0.671340
      2          6           0        2.684867    2.197563   -0.208297
      3          7           0        3.345779    1.111353    0.524557
      4          6           0        4.483608    0.524883   -0.189885
      5          6           0        4.061305   -0.433745   -1.306361
      6          8           0        3.207197   -1.452888   -0.791851
      7          6           0        2.044341   -0.903160   -0.173824
      8          6           0        2.452052    0.037569    0.965584
      9          6           0        1.223506   -2.104968    0.297076
     10          7           0        0.006542   -1.727426    1.008200
     11          6           0       -1.035363   -1.138717    0.372178
     12          7           0       -1.114814   -1.029202   -0.940475
     13          6           0       -2.284454   -0.421035   -1.289883
     14          6           0       -3.122484   -0.042387   -0.272117
     15         16           0       -2.406170   -0.484499    1.274337
     16          6           0       -4.412868    0.622672   -0.314460
     17          8           0       -5.081319    0.919967    0.659238
     18          8           0       -4.813051    0.889989   -1.588267
     19          1           0        0.835080    2.425526    0.946187
     20          1           0        1.383242    3.890578    0.135097
     21          1           0        2.229509    3.314757    1.591083
     22          1           0        2.147227    1.857444   -1.111423
     23          1           0        3.482642    2.863007   -0.559166
     24          1           0        5.084108   -0.037067    0.538147
     25          1           0        5.109993    1.330338   -0.590534
     26          1           0        3.546934    0.109736   -2.115210
     27          1           0        4.926908   -0.947661   -1.735878
     28          1           0        1.456687   -0.351940   -0.922248
     29          1           0        2.984070   -0.552600    1.726431
     30          1           0        1.568392    0.471897    1.440667
     31          1           0        0.953600   -2.716068   -0.567284
     32          1           0        1.827741   -2.716503    0.973654
     33          1           0        0.056104   -1.630027    2.011192
     34          1           0       -2.506007   -0.256405   -2.337954
     35          1           0       -5.678609    1.329049   -1.499195
 ---------------------------------------------------------------------

 SCF Done:  E(UB3LYP) =  -1217.85155589     A.U. after   33 cycles
 SCF Done:  E(UB3LYP) =  -1217.85155589     a.u. after    1 cycles

 The electronic state is 2-A.
 Alpha  occ. eigenvalues --  -88.74454 -19.03708 -19.03363 -18.96314 -14.23035
 Alpha  occ. eigenvalues --  -14.21558 -14.17620 -10.15336 -10.13170 -10.12639
 Alpha  occ. eigenvalues --  -10.11953 -10.10820 -10.10573 -10.10514 -10.09811
 Alpha  occ. eigenvalues --  -10.07062 -10.06253 -10.05708  -7.83085  -5.79396
 Alpha  occ. eigenvalues --   -5.79062  -5.78612  -0.97163  -0.95011  -0.87800
 Alpha  occ. eigenvalues --   -0.86567  -0.83326  -0.80022  -0.69367  -0.67095
 Alpha  occ. eigenvalues --   -0.66958  -0.62982  -0.59453  -0.58592  -0.54401
 Alpha  occ. eigenvalues --   -0.53484  -0.52078  -0.47100  -0.45693  -0.44193
 Alpha  occ. eigenvalues --   -0.41230  -0.40666  -0.39552  -0.38707  -0.37755
 Alpha  occ. eigenvalues --   -0.36997  -0.35934  -0.35271  -0.34887  -0.32598
 Alpha  occ. eigenvalues --   -0.32176  -0.31757  -0.31133  -0.30264  -0.29514
 Alpha  occ. eigenvalues --   -0.28366  -0.28027  -0.27661  -0.26777  -0.26577
 Alpha  occ. eigenvalues --   -0.25852  -0.24984  -0.23190  -0.22846  -0.20014
 Alpha  occ. eigenvalues --   -0.19149  -0.18618  -0.16539  -0.15263  -0.13945
 Alpha  occ. eigenvalues --   -0.11681  -0.09184   0.04000
 Alpha virt. eigenvalues --    0.05580   0.06823   0.07303   0.08328   0.08619
 Alpha virt. eigenvalues --    0.09125   0.09601   0.10290   0.10774   0.10948
 Alpha virt. eigenvalues --    0.11959   0.12549   0.12951   0.13226   0.13472

  Beta  occ. eigenvalues --  -88.74433 -19.03667 -19.03362 -18.96095 -14.22966
  Beta  occ. eigenvalues --  -14.21559 -14.17766 -10.15104 -10.12817 -10.12628
  Beta  occ. eigenvalues --  -10.11946 -10.10820 -10.10560 -10.10504 -10.09797
  Beta  occ. eigenvalues --  -10.07054 -10.05930 -10.05643  -7.83066  -5.79393
  Beta  occ. eigenvalues --   -5.79057  -5.78534  -0.96937  -0.95003  -0.87475
  Beta  occ. eigenvalues --   -0.86299  -0.83317  -0.79885  -0.69321  -0.67039
  Beta  occ. eigenvalues --   -0.66868  -0.62723  -0.59215  -0.58536  -0.54289
  Beta  occ. eigenvalues --   -0.53117  -0.51935  -0.47005  -0.45577  -0.43950
  Beta  occ. eigenvalues --   -0.41170  -0.40569  -0.39378  -0.38676  -0.37697
  Beta  occ. eigenvalues --   -0.36964  -0.35869  -0.35065  -0.34800  -0.32272
  Beta  occ. eigenvalues --   -0.31820  -0.31306  -0.30808  -0.30106  -0.29376
  Beta  occ. eigenvalues --   -0.28242  -0.27803  -0.27436  -0.26592  -0.26506
  Beta  occ. eigenvalues --   -0.25808  -0.24943  -0.23002  -0.22814  -0.19310
  Beta  occ. eigenvalues --   -0.18972  -0.17836  -0.16493  -0.14883  -0.13845
  Beta  occ. eigenvalues --   -0.11661  -0.08119
  Beta virt. eigenvalues --    0.05994   0.07018   0.07447   0.08294   0.08623
  Beta virt. eigenvalues --    0.09055   0.09379   0.09683   0.10336   0.10674
  Beta virt. eigenvalues --    0.10954   0.12054   0.12538   0.12931   0.13305

 Mulliken charges and spin densities:
               1          2
     1  C   -0.018021  -0.444567
     2  C   -0.247978   0.000761
     3  N    0.093084   0.087531
     4  C    0.013444  -0.217563
     5  C    0.152325  -0.192699
     6  O   -0.061718   0.012384
     7  C   -0.123799   0.126340
     8  C   -0.291313  -0.387865
     9  C   -0.626128  -0.127865
    10  N   -0.002417   0.019858
    11  C   -0.094175   0.120450
    12  N   -0.060892  -0.078791
    13  C   -0.387907   0.317119
    14  C   -0.187676  -0.061642
    15  S   -0.129362   0.012456
    16  C    0.200581   0.160039
    17  O   -0.420210   0.076366
    18  O   -0.218888   0.009251
    19  H    0.045585   0.084827
    20  H    0.078593   0.044057
    21  H    0.064310   0.073428
    22  H    0.076336   0.036077
    23  H   -0.069297   0.229506
    24  H    0.082809   0.055084
    25  H   -0.215055   0.361327
    26  H    0.131578  -0.023341
    27  H   -0.208941   0.414390
    28  H    0.314226  -0.004950
    29  H   -0.004756   0.189078
    30  H    0.163745  -0.006896
    31  H    0.218284   0.012148
    32  H    0.120679   0.043339
    33  H    0.193387   0.077078
    34  H    0.158764  -0.016200
    35  H    0.260801  -0.000515
 Sum of Mulliken charges =  -1.00000   1.00000

 Dipole moment (field-independent basis, Debye):
    X=              4.0445    Y=             -0.5155    Z=              0.0673  Tot=              4.0778
 Quadrupole moment (field-independent basis, Debye-Ang):
   XX=           -203.8658   YY=           -137.6645   ZZ=           -134.7085
   XY=             -0.3418   XZ=             10.5421   YZ=             -6.9673

 Summary of Natural Population Analysis:

                                       Natural Population
                Natural  -----------------------------------------------
    Atom  No    Charge         Core      Valence    Rydberg      Total
 -----------------------------------------------------------------------
      C    1   -0.29042      0.99966     2.28614    0.00462     3.29042
      C    2   -0.08723      0.99962     2.07651    0.01111     3.08723
      N    3   -0.28132      0.99974     2.76697    0.01462     3.78132
      C    4   -0.09788      0.99961     2.08683    0.01144     3.09788
      C    5   -0.01962      0.99958     2.00764    0.01240     3.01962
      O    6   -0.30543      0.99988     3.29630    0.00924     4.30543
      C    7    0.04472      0.99954     1.94261    0.01313     2.95528
      C    8   -0.10188      0.99958     2.09027    0.01203     3.10188
      C    9   -0.09000      0.99960     2.07618    0.01422     3.09000
      N   10   -0.30876      0.99964     2.79851    0.01060     3.80876
      C   11    0.19305      0.99962     1.78500    0.02234     2.80695
      N   12   -0.31415      0.99966     2.80400    0.01050     3.81415
      C   13    0.08269      0.99951     1.90495    0.01285     2.91731
      C   14   -0.18007      0.99943     2.16578    0.01486     3.18007
      S   15    0.16736      4.99946     2.81295    0.02024     7.83264
      C   16    0.40579      0.99959     1.57129    0.02334     2.59421
      O   17   -0.31313      0.99987     3.30663    0.00663     4.31313
      O   18   -0.35247      0.99988     3.34698    0.00562     4.35247
      H   19    0.10169      0.00000     0.39705    0.00125     0.39831
      H   20    0.09943      0.00000     0.39987    0.00070     0.40057
      H   21    0.09822      0.00000     0.40035    0.00143     0.40178
      H   22    0.08259      0.00000     0.41584    0.00157     0.41741
      H   23    0.09193      0.00000     0.40666    0.00141     0.40807
      H   24    0.09421      0.00000     0.40462    0.00117     0.40579
      H   25    0.09737      0.00000     0.40133    0.00130     0.40263
      H   26    0.07876      0.00000     0.42002    0.00122     0.42124
      H   27    0.09046      0.00000     0.40820    0.00134     0.40954
      H   28    0.09369      0.00000     0.40411    0.00220     0.40631
      H   29    0.09345      0.00000     0.40519    0.00136     0.40655
      H   30    0.10467      0.00000     0.39402    0.00131     0.39533
      H   31    0.10826      0.00000     0.39048    0.00127     0.39174
      H   32    0.09560      0.00000     0.40338    0.00102     0.40440
      H   33    0.19126      0.00000     0.30701    0.00174     0.30874
      H   34    0.09527      0.00000     0.40382    0.00092     0.40473
      H   35    0.23189      0.00000     0.26530    0.00281     0.26811
 =======================================================================
   * Total *    0.00000     21.99345    49.75277    0.25378    72.00000

 Normal termination of Gaussian 16 at Sat Dec 12 00:14:27 2020.
