 Gaussian 16, Revision A.03,

 -----------------------------------------------------------
 # opt freq B3LYP/6-31G(d) empiricaldispersion=gd3bj scf=xqc
 -----------------------------------------------------------

 -------------------------------
 CID_108097644_JID_8243_neutraal
 -------------------------------
 Symbolic Z-matrix:
 Charge =  0 Multiplicity = 1

 SCF Done:  E(RB3LYP) =  -858.675808844     A.U. after   15 cycles
 SCF Done:  E(RB3LYP) =  -858.676988717     A.U. after   14 cycles
 SCF Done:  E(RB3LYP) =  -858.684016882     A.U. after   14 cycles
 SCF Done:  E(RB3LYP) =  -858.683624309     A.U. after   13 cycles
 SCF Done:  E(RB3LYP) =  -858.684881978     A.U. after   12 cycles
 SCF Done:  E(RB3LYP) =  -858.685572314     A.U. after   13 cycles
 SCF Done:  E(RB3LYP) =  -858.685760523     A.U. after   12 cycles
 SCF Done:  E(RB3LYP) =  -858.685962424     A.U. after   11 cycles
 SCF Done:  E(RB3LYP) =  -858.686118368     A.U. after   12 cycles
 SCF Done:  E(RB3LYP) =  -858.686243968     A.U. after   12 cycles
 SCF Done:  E(RB3LYP) =  -858.686449508     A.U. after   11 cycles
 SCF Done:  E(RB3LYP) =  -858.686453811     A.U. after    9 cycles
 SCF Done:  E(RB3LYP) =  -858.686457561     A.U. after    9 cycles
 SCF Done:  E(RB3LYP) =  -858.686458307     A.U. after    9 cycles
 SCF Done:  E(RB3LYP) =  -858.686458471     A.U. after    7 cycles
 Optimization completed.
    -- Stationary point found.
 Normal termination of Gaussian 16 at Fri Dec 11 19:47:47 2020.

 --------------------------------------------------------------------
 #N Geom=AllCheck Guess=TCheck SCRF=Check GenChk RB3LYP/6-31G(d) Freq
 --------------------------------------------------------------------

 Structure from the checkpoint file:  "JID_8243.chk"
 -------------------------------
 CID_108097644_JID_8243_neutraal
 -------------------------------
 Charge =  0 Multiplicity = 1

 SCF Done:  E(RB3LYP) =  -858.686458471     A.U. after    1 cycles

  Exact polarizability: 181.095 -11.664 176.516 -11.646   8.121 104.001
 Approx polarizability: 238.695 -24.910 285.690 -24.582  17.224 173.280

                      1                      2                      3
                      A                      A                      A
 Frequencies --     29.4245                39.5831                43.8720
 Red. masses --      5.6541                 5.2472                 3.3658
 Frc consts  --      0.0029                 0.0048                 0.0038
 IR Inten    --      5.6272                 6.7817                 0.9751

                      4                      5                      6
                      A                      A                      A
 Frequencies --     70.9932                80.1796                98.7821
 Red. masses --      3.5507                 4.8324                 4.1672
 Frc consts  --      0.0105                 0.0183                 0.0240
 IR Inten    --      2.5819                 0.3210                 1.3484

                      7                      8                      9
                      A                      A                      A
 Frequencies --    108.9596               129.4596               143.7670
 Red. masses --      3.4829                 3.2567                 4.0066
 Frc consts  --      0.0244                 0.0322                 0.0488
 IR Inten    --      3.9322                 8.3615                 1.2741

                     10                     11                     12
                      A                      A                      A
 Frequencies --    178.5475               200.8763               208.2236
 Red. masses --      4.9061                 2.8914                 4.3508
 Frc consts  --      0.0921                 0.0687                 0.1111
 IR Inten    --      1.7879                 1.7039                 6.8596

                     13                     14                     15
                      A                      A                      A
 Frequencies --    255.9973               261.1506               291.6665
 Red. masses --      2.3497                 1.5802                 2.7150
 Frc consts  --      0.0907                 0.0635                 0.1361
 IR Inten    --      4.6626                 5.0931                13.2395

                     16                     17                     18
                      A                      A                      A
 Frequencies --    311.4085               325.2256               327.3536
 Red. masses --      3.6582                 2.5199                 1.3449
 Frc consts  --      0.2090                 0.1570                 0.0849
 IR Inten    --      4.2647                17.4247                39.8947

                     19                     20                     21
                      A                      A                      A
 Frequencies --    368.4986               399.8330               426.4775
 Red. masses --      3.3244                 2.7545                 2.6708
 Frc consts  --      0.2660                 0.2595                 0.2862
 IR Inten    --      0.6556                 7.7327                 1.8268

                     22                     23                     24
                      A                      A                      A
 Frequencies --    452.5096               460.5979               480.8806
 Red. masses --      2.1610                 2.4017                 3.4269
 Frc consts  --      0.2607                 0.3002                 0.4669
 IR Inten    --     24.0772                31.7982                 7.0903

                     25                     26                     27
                      A                      A                      A
 Frequencies --    490.8228               519.4999               553.0272
 Red. masses --      3.5876                 2.3801                 3.1846
 Frc consts  --      0.5092                 0.3785                 0.5739
 IR Inten    --      2.0038                17.9641                32.4128

                     28                     29                     30
                      A                      A                      A
 Frequencies --    570.1672               592.7265               642.6979
 Red. masses --      2.1174                 3.0820                 4.9361
 Frc consts  --      0.4056                 0.6379                 1.2013
 IR Inten    --     30.7740                 8.4783                12.9938

                     31                     32                     33
                      A                      A                      A
 Frequencies --    685.9430               728.4845               778.2761
 Red. masses --      3.8315                 4.4815                 2.6129
 Frc consts  --      1.0622                 1.4013                 0.9325
 IR Inten    --      2.7518                 8.1603                 4.3147

                     34                     35                     36
                      A                      A                      A
 Frequencies --    813.3383               831.8172               843.0487
 Red. masses --      1.8047                 3.0615                 2.5068
 Frc consts  --      0.7034                 1.2481                 1.0497
 IR Inten    --      2.2405                 6.9432                14.6465

                     37                     38                     39
                      A                      A                      A
 Frequencies --    846.1505               874.7243               909.2429
 Red. masses --      2.5757                 2.5313                 3.8707
 Frc consts  --      1.0865                 1.1411                 1.8854
 IR Inten    --     21.3650                 2.1070                 7.7921

                     40                     41                     42
                      A                      A                      A
 Frequencies --    911.5066               933.6529               957.7520
 Red. masses --      1.5119                 1.7241                 1.2388
 Frc consts  --      0.7401                 0.8855                 0.6695
 IR Inten    --     10.7991               105.3706                 0.3242

                     43                     44                     45
                      A                      A                      A
 Frequencies --    990.4649              1008.0668              1025.1227
 Red. masses --      2.3532                 1.8171                 2.0557
 Frc consts  --      1.3601                 1.0879                 1.2728
 IR Inten    --      5.7815                52.6089                 2.8990

                     46                     47                     48
                      A                      A                      A
 Frequencies --   1041.7176              1054.5403              1076.5569
 Red. masses --      2.4939                 1.9891                 2.5309
 Frc consts  --      1.5945                 1.3033                 1.7282
 IR Inten    --     55.5027                13.1860                 8.0009

                     49                     50                     51
                      A                      A                      A
 Frequencies --   1089.3505              1132.7422              1149.1836
 Red. masses --      2.5001                 3.3976                 1.9980
 Frc consts  --      1.7480                 2.5685                 1.5546
 IR Inten    --     45.8922                 4.3910                15.0617

                     52                     53                     54
                      A                      A                      A
 Frequencies --   1166.6065              1173.6445              1198.4009
 Red. masses --      2.0898                 1.9709                 1.7215
 Frc consts  --      1.6757                 1.5996                 1.4567
 IR Inten    --     95.0738                 6.4492                17.6676

                     55                     56                     57
                      A                      A                      A
 Frequencies --   1205.7423              1214.1366              1237.0879
 Red. masses --      1.4323                 1.3791                 1.4225
 Frc consts  --      1.2268                 1.1978                 1.2827
 IR Inten    --      8.6934                 9.9282                34.3510

                     58                     59                     60
                      A                      A                      A
 Frequencies --   1255.8503              1276.8133              1282.9025
 Red. masses --      1.9682                 1.6201                 1.3812
 Frc consts  --      1.8289                 1.5561                 1.3394
 IR Inten    --     23.1169                12.4391                12.0731

                     61                     62                     63
                      A                      A                      A
 Frequencies --   1320.3348              1327.4699              1356.4753
 Red. masses --      1.5497                 1.3886                 1.1678
 Frc consts  --      1.5917                 1.4417                 1.2660
 IR Inten    --     58.6606                51.3526                 9.2129

                     64                     65                     66
                      A                      A                      A
 Frequencies --   1384.9505              1397.9969              1402.9308
 Red. masses --      1.1893                 1.6987                 1.4789
 Frc consts  --      1.3441                 1.9561                 1.7150
 IR Inten    --      4.4651                11.9639                 4.0965

                     67                     68                     69
                      A                      A                      A
 Frequencies --   1408.1941              1418.5596              1435.0993
 Red. masses --      1.4599                 1.3544                 1.2927
 Frc consts  --      1.7057                 1.6058                 1.5686
 IR Inten    --     20.1177                14.0753                16.1395

                     70                     71                     72
                      A                      A                      A
 Frequencies --   1438.2066              1454.7587              1473.5624
 Red. masses --      1.7539                 1.4079                 2.5641
 Frc consts  --      2.1374                 1.7556                 3.2804
 IR Inten    --      1.0016                 4.6158               135.2795

                     73                     74                     75
                      A                      A                      A
 Frequencies --   1496.6586              1499.1054              1511.0411
 Red. masses --      1.1143                 1.1194                 1.0999
 Frc consts  --      1.4706                 1.4822                 1.4797
 IR Inten    --     16.8197                 5.1662                 4.8610

                     76                     77                     78
                      A                      A                      A
 Frequencies --   1519.8821              1523.3850              1527.5305
 Red. masses --      1.0938                 1.1109                 1.0889
 Frc consts  --      1.4888                 1.5189                 1.4970
 IR Inten    --     10.8115                 4.9731                 2.7463

                     79                     80                     81
                      A                      A                      A
 Frequencies --   1528.0208              1557.8741              1560.8568
 Red. masses --      1.0904                 1.0726                 3.8833
 Frc consts  --      1.5000                 1.5337                 5.5741
 IR Inten    --      2.2685                16.8435               116.5832

                     82                     83                     84
                      A                      A                      A
 Frequencies --   1630.3552              1678.8360              1707.4730
 Red. masses --      2.9142                 6.5058                 6.6006
 Frc consts  --      4.5639                10.8037                11.3382
 IR Inten    --      3.0454                59.5769               188.9609

                     85                     86                     87
                      A                      A                      A
 Frequencies --   1720.9917              1732.5317              2975.7575
 Red. masses --      1.9557                 2.0146                 1.0709
 Frc consts  --      3.4128                 3.5629                 5.5871
 IR Inten    --    277.0887               311.7010                54.5378

                     88                     89                     90
                      A                      A                      A
 Frequencies --   2985.6545              2995.0472              3016.5598
 Red. masses --      1.0512                 1.0682                 1.0744
 Frc consts  --      5.5212                 5.6458                 5.7604
 IR Inten    --     36.2974                59.0313                54.7741

                     91                     92                     93
                      A                      A                      A
 Frequencies --   3053.5297              3069.3806              3074.8669
 Red. masses --      1.0696                 1.0836                 1.0721
 Frc consts  --      5.8761                 6.0147                 5.9722
 IR Inten    --     30.6891                40.2983                52.7732

                     94                     95                     96
                      A                      A                      A
 Frequencies --   3084.6829              3096.8639              3098.3315
 Red. masses --      1.0846                 1.0942                 1.0975
 Frc consts  --      6.0804                 6.1827                 6.2073
 IR Inten    --     37.4818                24.9678                57.9539

                     97                     98                     99
                      A                      A                      A
 Frequencies --   3125.4090              3169.0783              3190.7457
 Red. masses --      1.1038                 1.0942                 1.0864
 Frc consts  --      6.3529                 6.4745                 6.5165
 IR Inten    --     37.5946                 3.1264                10.8653

                    100                    101                    102
                      A                      A                      A
 Frequencies --   3225.7730              3238.4062              3242.8748
 Red. masses --      1.0886                 1.0932                 1.0980
 Frc consts  --      6.6743                 6.7545                 6.8029
 IR Inten    --      3.1276                 1.0728                 5.2602

                    103                    104                    105
                      A                      A                      A
 Frequencies --   3459.5828              3539.0046              3643.7940
 Red. masses --      1.0505                 1.0911                 1.0789
 Frc consts  --      7.4081                 8.0515                 8.4402
 IR Inten    --     81.2903                51.2369                99.8924

 - Thermochemistry -
 -------------------
 Temperature   298.150 Kelvin.  Pressure   1.00000 Atm.
 Atom     1 has atomic number  6 and mass  12.00000

 Molecular mass:   253.14264 amu.
 Principal axes and moments of inertia in atomic units:
                           1         2         3
     Eigenvalues --  3585.079675259.649677930.50545
           X            0.99980  -0.02008  -0.00029
           Y            0.02009   0.99974   0.01085
           Z            0.00007  -0.01086   0.99994
 This molecule is an asymmetric top.
 Rotational symmetry number  1.
 Warning -- assumption of classical behavior for rotation
           may cause significant error
 Rotational temperatures (Kelvin)      0.02416     0.01647     0.01092
 Rotational constants (GHZ):           0.50340     0.34313     0.22757
 Zero-point vibrational energy     831730.6 (Joules/Mol)
                                  198.78839 (Kcal/Mol)
 Warning -- explicit consideration of  29 degrees of freedom as
           vibrations may cause significant error
 Vibrational temperatures:     42.34    56.95    63.12   102.14   115.36
          (Kelvin)            142.13   156.77   186.26   206.85   256.89
                              289.02   299.59   368.32   375.74   419.64
                              448.05   467.93   470.99   530.19   575.27
                              613.61   651.06   662.70   691.88   706.18
                              747.44   795.68   820.34   852.80   924.70
                              986.92  1048.13  1119.77  1170.21  1196.80
                             1212.96  1217.42  1258.53  1308.20  1311.45
                             1343.32  1377.99  1425.06  1450.38  1474.92
                             1498.80  1517.25  1548.93  1567.33  1629.76
                             1653.42  1678.49  1688.61  1724.23  1734.79
                             1746.87  1779.89  1806.89  1837.05  1845.81
                             1899.67  1909.93  1951.67  1992.63  2011.41
                             2018.50  2026.08  2040.99  2064.79  2069.26
                             2093.07  2120.13  2153.36  2156.88  2174.05
                             2186.77  2191.81  2197.78  2198.48  2241.43
                             2245.72  2345.72  2415.47  2456.67  2476.12
                             2492.73  4281.45  4295.69  4309.20  4340.16
                             4393.35  4416.15  4424.05  4438.17  4455.70
                             4457.81  4496.77  4559.60  4590.77  4641.17
                             4659.34  4665.77  4977.57  5091.84  5242.61

 Zero-point correction=                           0.316789 (Hartree/Particle)
 Thermal correction to Energy=                    0.335003
 Thermal correction to Enthalpy=                  0.335947
 Thermal correction to Gibbs Free Energy=         0.269561
 Sum of electronic and zero-point Energies=           -858.369669
 Sum of electronic and thermal Energies=              -858.351455
 Sum of electronic and thermal Enthalpies=            -858.350511
 Sum of electronic and thermal Free Energies=         -858.416898

                     E (Thermal)             CV                S
                      KCal/Mol        Cal/Mol-Kelvin    Cal/Mol-Kelvin
 Total                  210.218             68.036            139.723
 Electronic               0.000              0.000              0.000
 Translational            0.889              2.981             42.487
 Rotational               0.889              2.981             33.369
 Vibrational            208.440             62.074             63.867
 Vibration     1          0.593              1.984              5.868
 Vibration     2          0.594              1.981              5.280
 Vibration     3          0.595              1.980              5.076
 Vibration     4          0.598              1.968              4.126
 Vibration     5          0.600              1.963              3.886
 Vibration     6          0.604              1.950              3.478
 Vibration     7          0.606              1.942              3.287
 Vibration     8          0.612              1.924              2.954
 Vibration     9          0.616              1.909              2.753
 Vibration    10          0.629              1.869              2.344
 Vibration    11          0.638              1.839              2.125
 Vibration    12          0.642              1.828              2.059
 Vibration    13          0.666              1.753              1.689
 Vibration    14          0.669              1.744              1.654
 Vibration    15          0.687              1.689              1.464
 Vibration    16          0.700              1.652              1.355
 Vibration    17          0.709              1.625              1.284
 Vibration    18          0.711              1.621              1.273
 Vibration    19          0.741              1.537              1.086
 Vibration    20          0.766              1.470              0.963
 Vibration    21          0.788              1.413              0.870
 Vibration    22          0.811              1.355              0.788
 Vibration    23          0.818              1.337              0.764
 Vibration    24          0.837              1.292              0.708
 Vibration    25          0.847              1.270              0.681
 Vibration    26          0.874              1.207              0.611
 Vibration    27          0.908              1.133              0.538
 Vibration    28          0.926              1.096              0.504
 Vibration    29          0.950              1.047              0.462

                           ! Non-Optimized Parameters !
 Normal termination of Gaussian 16 at Fri Dec 11 20:04:24 2020.

 ----------------------------------------------------------------------
 # B3LYP/6-311++G(d,p) empiricaldispersion=gd3bj scf=xqc pop=npa geom=c
 heck
 ----------------------------------------------------------------------

 ---------------------------------------
 CID_108097644_JID_8243_Energie_neutraal
 ---------------------------------------
 Structure from the checkpoint file:  "JID_8243.chk"
 Charge =  0 Multiplicity = 1

 SCF Done:  E(RB3LYP) =  -858.943702072     A.U. after   17 cycles
 Normal termination of Gaussian 16 at Fri Dec 11 20:11:27 2020.

 ----------------------------------------------------------------------
 # B3LYP/6-311++G(d,p) empiricaldispersion=gd3bj scf=xqc pop=npa geom=c
 heck
 ----------------------------------------------------------------------

 -------------------------------------
 CID_108097644_JID_8243_Energie_kation
 -------------------------------------
 Structure from the checkpoint file:  "JID_8243.chk"
 Charge =  1 Multiplicity = 2

 SCF Done:  E(UB3LYP) =  -858.653503649     A.U. after   31 cycles
 Normal termination of Gaussian 16 at Fri Dec 11 20:29:22 2020.
 Gaussian 16:  ES64L-G16RevA.03 25-Dec-2016

 ----------------------------------------------------------------------
 # B3LYP/6-311++G(d,p) empiricaldispersion=gd3bj scf=xqc pop=npa geom=c
 heck
 ----------------------------------------------------------------------

 ------------------------------------
 CID_108097644_JID_8243_Energie_anion
 ------------------------------------
 Structure from the checkpoint file:  "JID_8243.chk"
 Charge = -1 Multiplicity = 2

                         Standard orientation:
 ---------------------------------------------------------------------
 Center     Atomic      Atomic             Coordinates (Angstroms)
 Number     Number       Type             X           Y           Z
 ---------------------------------------------------------------------
      1          6           0       -2.485464   -2.633471   -0.734895
      2          8           0       -3.568214   -1.923496   -0.164479
      3          6           0       -3.414025   -0.520544   -0.137550
      4          6           0       -2.333448    0.019016    0.815892
      5          7           0       -0.974206    0.086260    0.269757
      6          6           0       -0.747785    0.900126   -0.934386
      7          6           0       -1.467593    2.253589   -0.932167
      8          6           0       -0.992564    3.249863    0.130809
      9          7           0        0.310504    3.817657   -0.231515
     10          6           0       -0.048509   -0.785544    0.767606
     11          8           0       -0.324811   -1.653223    1.601294
     12          6           0        1.362701   -0.742180    0.239121
     13          6           0        1.882104   -1.934404   -0.169336
     14          7           0        3.180294   -2.055545   -0.574090
     15          6           0        4.032470   -0.981187   -0.537881
     16          6           0        3.600191    0.226453   -0.097505
     17          6           0        2.227948    0.437748    0.351983
     18          8           0        1.834952    1.524643    0.801510
     19          1           0       -1.638498   -2.704061   -0.042398
     20          1           0       -2.150054   -2.168451   -1.677240
     21          1           0       -2.851166   -3.640968   -0.954607
     22          1           0       -3.253294   -0.138399   -1.159179
     23          1           0       -4.380733   -0.137591    0.206230
     24          1           0       -2.623193    1.026834    1.131399
     25          1           0       -2.291935   -0.615746    1.700737
     26          1           0        0.321066    1.070968   -1.037227
     27          1           0       -1.072473    0.329667   -1.816833
     28          1           0       -1.294346    2.708255   -1.914253
     29          1           0       -2.550023    2.102777   -0.844084
     30          1           0       -1.719622    4.070109    0.171490
     31          1           0       -1.001008    2.762376    1.121123
     32          1           0        0.488053    4.629335    0.358294
     33          1           0        1.034008    3.142053    0.016526
     34          1           0        1.289608   -2.841851   -0.177224
     35          1           0        3.522899   -2.956209   -0.874633
     36          1           0        5.045637   -1.169641   -0.874555
     37          1           0        4.277355    1.071761   -0.059371
 ---------------------------------------------------------------------

 SCF Done:  E(UB3LYP) =  -858.949326073     A.U. after   33 cycles
 SCF Done:  E(UB3LYP) =  -858.949326073     a.u. after    1 cycles

 The electronic state is 2-A.
 Alpha  occ. eigenvalues --  -19.04200 -18.98843 -18.97754 -14.27529 -14.25137
 Alpha  occ. eigenvalues --  -14.19068 -10.17572 -10.14471 -10.14046 -10.12759
 Alpha  occ. eigenvalues --  -10.12581 -10.11948 -10.11730 -10.11603 -10.10403
 Alpha  occ. eigenvalues --  -10.08596 -10.08044 -10.07319  -0.95531  -0.94119
 Alpha  occ. eigenvalues --   -0.91344  -0.88533  -0.84452  -0.78642  -0.70067
 Alpha  occ. eigenvalues --   -0.68648  -0.68506  -0.67128  -0.61181  -0.58806
 Alpha  occ. eigenvalues --   -0.56079  -0.52758  -0.52505  -0.50484  -0.48752
 Alpha  occ. eigenvalues --   -0.45896  -0.42679  -0.41574  -0.41028  -0.40186
 Alpha  occ. eigenvalues --   -0.39482  -0.38468  -0.37500  -0.36821  -0.36084
 Alpha  occ. eigenvalues --   -0.35116  -0.34374  -0.33256  -0.32602  -0.32428
 Alpha  occ. eigenvalues --   -0.31810  -0.30413  -0.29598  -0.29530  -0.28798
 Alpha  occ. eigenvalues --   -0.28195  -0.27526  -0.27156  -0.25553  -0.25344
 Alpha  occ. eigenvalues --   -0.23551  -0.19127  -0.18360  -0.16257  -0.15267
 Alpha  occ. eigenvalues --   -0.14867  -0.14249  -0.12983   0.03529
 Alpha virt. eigenvalues --    0.05804   0.06444   0.06945   0.07248   0.07889
 Alpha virt. eigenvalues --    0.08022   0.08576   0.09801   0.09919   0.10364
 Alpha virt. eigenvalues --    0.10755   0.11501   0.11857   0.12280   0.12449

  Beta  occ. eigenvalues --  -19.04197 -18.98824 -18.97754 -14.27434 -14.25130
  Beta  occ. eigenvalues --  -14.19067 -10.17548 -10.14464 -10.14044 -10.12722
  Beta  occ. eigenvalues --  -10.12480 -10.11936 -10.11728 -10.11603 -10.10403
  Beta  occ. eigenvalues --  -10.08595 -10.08011 -10.07278  -0.95524  -0.94077
  Beta  occ. eigenvalues --   -0.91330  -0.88359  -0.84434  -0.78640  -0.69941
  Beta  occ. eigenvalues --   -0.68542  -0.68461  -0.67098  -0.61155  -0.58784
  Beta  occ. eigenvalues --   -0.55969  -0.52709  -0.52360  -0.50464  -0.48570
  Beta  occ. eigenvalues --   -0.45863  -0.42633  -0.41510  -0.40981  -0.40165
  Beta  occ. eigenvalues --   -0.39446  -0.38447  -0.37481  -0.36756  -0.36023
  Beta  occ. eigenvalues --   -0.35036  -0.34342  -0.33104  -0.32561  -0.32412
  Beta  occ. eigenvalues --   -0.31761  -0.30343  -0.29556  -0.29513  -0.28769
  Beta  occ. eigenvalues --   -0.28129  -0.27480  -0.27146  -0.25531  -0.25322
  Beta  occ. eigenvalues --   -0.23537  -0.18894  -0.18337  -0.16139  -0.15239
  Beta  occ. eigenvalues --   -0.14833  -0.14220  -0.12816
  Beta virt. eigenvalues --    0.05750   0.06738   0.07086   0.07378   0.07534
  Beta virt. eigenvalues --    0.07965   0.08322   0.09175   0.09813   0.10230
  Beta virt. eigenvalues --    0.10503   0.11011   0.11508   0.11991   0.12373

 Mulliken charges and spin densities:
               1          2
     1  C   -0.160338  -0.155200
     2  O   -0.122133   0.004817
     3  C   -0.431281  -0.056228
     4  C   -0.219593   0.010712
     5  N    0.213514   0.046597
     6  C   -0.312665  -0.019490
     7  C   -0.281441  -0.055005
     8  C   -0.440414   0.004406
     9  N   -0.392590  -0.000377
    10  C    0.294002  -1.710960
    11  O   -0.263117   0.018131
    12  C    1.519082  -0.304704
    13  C   -0.392761   0.380493
    14  N   -0.160344   0.069291
    15  C    0.303436  -0.663592
    16  C    0.486368  -0.342041
    17  C   -0.157888   0.120642
    18  O   -0.404597  -0.002853
    19  H    0.216196  -0.014192
    20  H   -0.014230   0.113905
    21  H    0.060090   0.105549
    22  H    0.167034  -0.003491
    23  H    0.141868   0.028480
    24  H    0.098643   0.018600
    25  H    0.273871  -0.011667
    26  H    0.144514  -0.009935
    27  H    0.126754   0.037607
    28  H    0.175614   0.020921
    29  H    0.110858  -0.001858
    30  H    0.125281   0.011217
    31  H    0.144410   0.004956
    32  H    0.210493   0.004740
    33  H    0.296649  -0.002996
    34  H   -0.393847   0.631992
    35  H   -0.956530   1.328944
    36  H   -1.069181   1.271486
    37  H    0.064271   0.121102
 Sum of Mulliken charges =  -1.00000   1.00000

 Dipole moment (field-independent basis, Debye):
    X=            -10.4263    Y=              8.1933    Z=              1.1195  Tot=             13.3076
 Quadrupole moment (field-independent basis, Debye-Ang):
   XX=           -185.5615   YY=           -172.2080   ZZ=           -137.2775
   XY=             21.6140   XZ=             12.9851   YZ=             -3.4843

 Summary of Natural Population Analysis:

                                       Natural Population
                Natural  -----------------------------------------------
    Atom  No    Charge         Core      Valence    Rydberg      Total
 -----------------------------------------------------------------------
      C    1   -0.10716      0.99961     2.09687    0.01067     3.10716
      O    2   -0.29803      0.99989     3.28895    0.00919     4.29803
      C    3   -0.01337      0.99958     2.00184    0.01194     3.01337
      C    4   -0.10890      0.99960     2.09994    0.00935     3.10890
      N    5   -0.25232      0.99963     2.74209    0.01060     3.75232
      C    6   -0.08879      0.99959     2.07732    0.01188     3.08879
      C    7   -0.20070      0.99962     2.19284    0.00824     3.20070
      C    8   -0.09027      0.99964     2.08140    0.00922     3.09027
      N    9   -0.43507      0.99976     2.92545    0.00985     3.93507
      C   10    0.34894      0.99959     1.62703    0.02444     2.65106
      O   11   -0.32813      0.99988     3.32359    0.00466     4.32813
      C   12   -0.11761      0.99942     2.10623    0.01196     3.11761
      C   13    0.06979      0.99950     1.91733    0.01338     2.93021
      N   14   -0.25617      0.99968     2.74473    0.01177     3.75617
      C   15    0.03428      0.99954     1.95260    0.01357     2.96572
      C   16   -0.14982      0.99953     2.13985    0.01044     3.14982
      C   17    0.22492      0.99954     1.75406    0.02147     2.77508
      O   18   -0.35397      0.99987     3.34744    0.00666     4.35397
      H   19    0.09481      0.00000     0.40363    0.00156     0.40519
      H   20    0.07559      0.00000     0.42326    0.00116     0.42441
      H   21    0.08720      0.00000     0.41190    0.00091     0.41280
      H   22    0.07723      0.00000     0.42149    0.00128     0.42277
      H   23    0.08916      0.00000     0.40972    0.00112     0.41084
      H   24    0.09520      0.00000     0.40318    0.00162     0.40480
      H   25    0.12282      0.00000     0.37576    0.00142     0.37718
      H   26    0.11459      0.00000     0.38352    0.00188     0.38541
      H   27    0.08953      0.00000     0.40918    0.00130     0.41047
      H   28    0.10547      0.00000     0.39300    0.00153     0.39453
      H   29    0.09253      0.00000     0.40613    0.00133     0.40747
      H   30    0.08341      0.00000     0.41550    0.00109     0.41659
      H   31    0.08428      0.00000     0.41449    0.00123     0.41572
      H   32    0.16834      0.00000     0.33006    0.00159     0.33166
      H   33    0.19698      0.00000     0.30090    0.00211     0.30302
      H   34    0.10896      0.00000     0.38940    0.00164     0.39104
      H   35    0.22149      0.00000     0.21506    0.06345     0.27851
      H   36    0.10735      0.00000     0.38920    0.00345     0.39265
      H   37    0.10741      0.00000     0.39168    0.00091     0.39259
 =======================================================================
   * Total *   -0.00000     17.99349    49.70661    0.29989    68.00000

 Normal termination of Gaussian 16 at Fri Dec 11 20:48:15 2020.
