 Gaussian 16, Revision A.03,

 -----------------------------------------------------------
 # opt freq B3LYP/6-31G(d) empiricaldispersion=gd3bj scf=xqc
 -----------------------------------------------------------

 -------------------------------
 CID_117342330_JID_7188_neutraal
 -------------------------------
 Symbolic Z-matrix:
 Charge =  0 Multiplicity = 1

 SCF Done:  E(RB3LYP) =  -786.064951470     A.U. after   15 cycles
 SCF Done:  E(RB3LYP) =  -786.076601054     A.U. after   15 cycles
 SCF Done:  E(RB3LYP) =  -786.077337802     A.U. after   13 cycles
 SCF Done:  E(RB3LYP) =  -786.079537130     A.U. after   13 cycles
 SCF Done:  E(RB3LYP) =  -786.080879469     A.U. after   13 cycles
 SCF Done:  E(RB3LYP) =  -786.082044810     A.U. after   15 cycles
 SCF Done:  E(RB3LYP) =  -786.083042322     A.U. after   12 cycles
 SCF Done:  E(RB3LYP) =  -786.083619373     A.U. after   12 cycles
 SCF Done:  E(RB3LYP) =  -786.084226884     A.U. after   13 cycles
 SCF Done:  E(RB3LYP) =  -786.084656733     A.U. after   12 cycles
 SCF Done:  E(RB3LYP) =  -786.085063654     A.U. after   10 cycles
 SCF Done:  E(RB3LYP) =  -786.085066227     A.U. after   10 cycles
 SCF Done:  E(RB3LYP) =  -786.085067321     A.U. after   10 cycles
 SCF Done:  E(RB3LYP) =  -786.085067477     A.U. after    8 cycles
 SCF Done:  E(RB3LYP) =  -786.085067568     A.U. after    7 cycles
 Optimization completed.
    -- Stationary point found.
 Normal termination of Gaussian 16 at Mon Dec 14 13:30:01 2020.

 --------------------------------------------------------------------
 #N Geom=AllCheck Guess=TCheck SCRF=Check GenChk RB3LYP/6-31G(d) Freq
 --------------------------------------------------------------------

 Structure from the checkpoint file:  "JID_7188.chk"
 -------------------------------
 CID_117342330_JID_7188_neutraal
 -------------------------------
 Charge =  0 Multiplicity = 1

 SCF Done:  E(RB3LYP) =  -786.085067568     A.U. after    1 cycles

  Exact polarizability: 188.199 -10.621 162.823  -1.629   7.068  99.315
 Approx polarizability: 276.234 -20.085 240.384  -6.210  15.216 153.168

                      1                      2                      3
                      A                      A                      A
 Frequencies --     12.7732                31.0662                35.1520
 Red. masses --      5.5268                 7.3605                 2.9922
 Frc consts  --      0.0005                 0.0042                 0.0022
 IR Inten    --      0.7163                 0.0456                 0.0531

                      4                      5                      6
                      A                      A                      A
 Frequencies --     65.2401                77.6753                87.7180
 Red. masses --      3.1108                 2.5824                 2.8638
 Frc consts  --      0.0078                 0.0092                 0.0130
 IR Inten    --      0.8189                 4.8765                 2.8284

                      7                      8                      9
                      A                      A                      A
 Frequencies --    123.3302               128.6653               150.8387
 Red. masses --      4.9355                 4.1934                 2.0814
 Frc consts  --      0.0442                 0.0409                 0.0279
 IR Inten    --      6.2390                 0.3887                 3.6041

                     10                     11                     12
                      A                      A                      A
 Frequencies --    156.7172               182.4479               206.4163
 Red. masses --      1.5703                 3.2642                 2.8150
 Frc consts  --      0.0227                 0.0640                 0.0707
 IR Inten    --      2.0612                 1.5641                 2.5184

                     13                     14                     15
                      A                      A                      A
 Frequencies --    217.9244               238.8286               252.9676
 Red. masses --      2.0200                 1.0754                 1.5202
 Frc consts  --      0.0565                 0.0361                 0.0573
 IR Inten    --      0.7075                 0.1161                 0.9820

                     16                     17                     18
                      A                      A                      A
 Frequencies --    271.0890               276.5376               302.2005
 Red. masses --      1.6288                 2.1846                 2.5526
 Frc consts  --      0.0705                 0.0984                 0.1373
 IR Inten    --      1.5520                 1.0618                 2.5575

                     19                     20                     21
                      A                      A                      A
 Frequencies --    330.1883               348.8105               361.0686
 Red. masses --      3.6245                 6.1301                 3.8316
 Frc consts  --      0.2328                 0.4394                 0.2943
 IR Inten    --      1.0066                 3.8486                 6.3594

                     22                     23                     24
                      A                      A                      A
 Frequencies --    434.3423               476.8348               510.8180
 Red. masses --      3.7364                 3.5380                 4.0461
 Frc consts  --      0.4153                 0.4740                 0.6220
 IR Inten    --      1.0778                 4.3684                 2.0646

                     25                     26                     27
                      A                      A                      A
 Frequencies --    552.0039               558.3075               568.4735
 Red. masses --      5.0172                 4.8360                12.0497
 Frc consts  --      0.9007                 0.8881                 2.2943
 IR Inten    --      5.5881                 1.0555                28.4328

                     28                     29                     30
                      A                      A                      A
 Frequencies --    607.9447               632.5739               668.1825
 Red. masses --      5.9705                 3.9382                 3.8812
 Frc consts  --      1.3001                 0.9285                 1.0210
 IR Inten    --      3.5735                13.9250                 4.2805

                     31                     32                     33
                      A                      A                      A
 Frequencies --    688.9094               739.0313               784.1947
 Red. masses --      4.9455                 4.8167                 4.8872
 Frc consts  --      1.3829                 1.5500                 1.7708
 IR Inten    --     19.8331                 1.1252                12.0952

                     34                     35                     36
                      A                      A                      A
 Frequencies --    860.4415               874.8764               878.7528
 Red. masses --      1.4702                 2.9637                 1.4331
 Frc consts  --      0.6413                 1.3365                 0.6520
 IR Inten    --     14.6024                 0.5623                16.0791

                     37                     38                     39
                      A                      A                      A
 Frequencies --    894.5592               943.7296               974.7573
 Red. masses --      5.5964                 1.1752                 1.7976
 Frc consts  --      2.6386                 0.6167                 1.0063
 IR Inten    --     53.6550                 0.6683                 4.4816

                     40                     41                     42
                      A                      A                      A
 Frequencies --    975.6356               978.0654              1009.0183
 Red. masses --      3.1002                 2.9290                 1.8589
 Frc consts  --      1.7387                 1.6508                 1.1151
 IR Inten    --      8.7715                14.4457                 2.6931

                     43                     44                     45
                      A                      A                      A
 Frequencies --   1049.6680              1113.4644              1126.2911
 Red. masses --      7.7709                 1.6481                 5.0696
 Frc consts  --      5.0446                 1.2039                 3.7890
 IR Inten    --     68.3188                 6.6360                99.3002

                     46                     47                     48
                      A                      A                      A
 Frequencies --   1135.3665              1179.1205              1185.9597
 Red. masses --      2.2902                 2.0377                 1.2612
 Frc consts  --      1.7394                 1.6692                 1.0451
 IR Inten    --      0.7623                45.5281                 2.0361

                     49                     50                     51
                      A                      A                      A
 Frequencies --   1186.8780              1207.7816              1221.9709
 Red. masses --      1.2606                 1.8182                 1.3366
 Frc consts  --      1.0462                 1.5627                 1.1759
 IR Inten    --      1.7796                42.5663                 2.3277

                     52                     53                     54
                      A                      A                      A
 Frequencies --   1229.5736              1267.4399              1280.3861
 Red. masses --      1.6678                 2.2704                 1.2964
 Frc consts  --      1.4856                 2.1488                 1.2522
 IR Inten    --     33.6150               100.5389                12.2813

                     55                     56                     57
                      A                      A                      A
 Frequencies --   1289.9440              1328.9381              1361.6714
 Red. masses --      1.2819                 3.5391                 1.3797
 Frc consts  --      1.2567                 3.6826                 1.5073
 IR Inten    --      0.3650                58.9488                 9.3880

                     58                     59                     60
                      A                      A                      A
 Frequencies --   1362.4968              1380.0289              1399.7664
 Red. masses --      3.6917                 1.9695                 1.7807
 Frc consts  --      4.0378                 2.2099                 2.0557
 IR Inten    --    115.8041                27.3369                38.0111

                     61                     62                     63
                      A                      A                      A
 Frequencies --   1427.7771              1448.4564              1480.2630
 Red. masses --      1.2273                 1.2346                 1.8797
 Frc consts  --      1.4741                 1.5262                 2.4267
 IR Inten    --      3.1241                 0.2046                31.4048

                     64                     65                     66
                      A                      A                      A
 Frequencies --   1488.4548              1491.0900              1510.0600
 Red. masses --      1.4801                 2.9201                 1.1979
 Frc consts  --      1.9320                 3.8252                 1.6094
 IR Inten    --     58.6095                 5.4653                18.1107

                     67                     68                     69
                      A                      A                      A
 Frequencies --   1516.3162              1517.2455              1520.8503
 Red. masses --      1.2940                 1.0441                 1.0482
 Frc consts  --      1.7530                 1.4162                 1.4285
 IR Inten    --      1.8398                 0.1012                 5.6479

                     70                     71                     72
                      A                      A                      A
 Frequencies --   1521.6215              1530.4234              1532.1001
 Red. masses --      1.0487                 1.2764                 1.2399
 Frc consts  --      1.4306                 1.7614                 1.7147
 IR Inten    --      2.1322                11.4382                87.5683

                     73                     74                     75
                      A                      A                      A
 Frequencies --   1533.4460              1538.3034              1543.1252
 Red. masses --      1.0933                 1.0895                 1.0577
 Frc consts  --      1.5147                 1.5190                 1.4839
 IR Inten    --     12.0137                 0.1552                14.2601

                     76                     77                     78
                      A                      A                      A
 Frequencies --   1546.1314              1646.2183              1661.8059
 Red. masses --      1.8136                 7.1048                 5.8625
 Frc consts  --      2.5544                11.3442                 9.5389
 IR Inten    --     62.4477                51.7400                 7.6042

                     79                     80                     81
                      A                      A                      A
 Frequencies --   2377.0268              3028.9272              3031.4024
 Red. masses --     12.4379                 1.0352                 1.0836
 Frc consts  --     41.4064                 5.5954                 5.8669
 IR Inten    --    859.5577                46.3438                29.3288

                     82                     83                     84
                      A                      A                      A
 Frequencies --   3035.4295              3045.7143              3049.7927
 Red. masses --      1.0400                 1.0346                 1.0352
 Frc consts  --      5.6457                 5.6545                 5.6732
 IR Inten    --     58.5372                26.2651                27.7889

                     85                     86                     87
                      A                      A                      A
 Frequencies --   3066.9890              3089.2565              3098.1855
 Red. masses --      1.0612                 1.1066                 1.1026
 Frc consts  --      5.8815                 6.2221                 6.2356
 IR Inten    --     26.6753                38.4818                 8.2978

                     88                     89                     90
                      A                      A                      A
 Frequencies --   3111.7015              3117.6438              3118.2676
 Red. masses --      1.1027                 1.1018                 1.0946
 Frc consts  --      6.2907                 6.3098                 6.2708
 IR Inten    --      0.5868                87.7487                31.7806

                     91                     92                     93
                      A                      A                      A
 Frequencies --   3120.9069              3123.5144              3156.9513
 Red. masses --      1.1030                 1.1024                 1.1062
 Frc consts  --      6.3296                 6.3369                 6.4958
 IR Inten    --     24.9564                29.6305                23.9082

                     94                     95                     96
                      A                      A                      A
 Frequencies --   3160.9991              3215.9519              3216.7669
 Red. masses --      1.1002                 1.0888                 1.0887
 Frc consts  --      6.4769                 6.6346                 6.6373
 IR Inten    --     25.6041                11.9091                 4.5931

 - Thermochemistry -
 -------------------
 Temperature   298.150 Kelvin.  Pressure   1.00000 Atm.
 Atom     1 has atomic number  6 and mass  12.00000

 Molecular mass:   235.12084 amu.
 Principal axes and moments of inertia in atomic units:
                           1         2         3
     Eigenvalues --  3493.113134883.074507582.89170
           X            0.99630  -0.08589   0.00335
           Y            0.08585   0.99627   0.00917
           Z           -0.00412  -0.00885   0.99995
 This molecule is an asymmetric top.
 Rotational symmetry number  1.
 Warning -- assumption of classical behavior for rotation
           may cause significant error
 Rotational temperatures (Kelvin)      0.02480     0.01774     0.01142
 Rotational constants (GHZ):           0.51666     0.36959     0.23800
 Zero-point vibrational energy     744047.2 (Joules/Mol)
                                  177.83154 (Kcal/Mol)
 Warning -- explicit consideration of  28 degrees of freedom as
           vibrations may cause significant error
 Vibrational temperatures:     18.38    44.70    50.58    93.87   111.76
          (Kelvin)            126.21   177.44   185.12   217.02   225.48
                              262.50   296.99   313.54   343.62   363.96
                              390.04   397.88   434.80   475.07   501.86
                              519.50   624.92   686.06   734.95   794.21
                              803.28   817.91   874.70   910.13   961.37
                              991.19  1063.30  1128.28  1237.98  1258.75
                             1264.33  1287.07  1357.82  1402.46  1403.72
                             1407.22  1451.75  1510.24  1602.03  1620.48
                             1633.54  1696.49  1706.33  1707.65  1737.73
                             1758.14  1769.08  1823.56  1842.19  1855.94
                             1912.05  1959.14  1960.33  1985.55  2013.95
                             2054.25  2084.01  2129.77  2141.55  2145.35
                             2172.64  2181.64  2182.98  2188.16  2189.27
                             2201.94  2204.35  2206.29  2213.28  2220.21
                             2224.54  2368.54  2390.97  3420.01  4357.95
                             4361.51  4367.31  4382.10  4387.97  4412.71
                             4444.75  4457.60  4477.04  4485.59  4486.49
                             4490.29  4494.04  4542.15  4547.97  4627.04
                             4628.21

 Zero-point correction=                           0.283393 (Hartree/Particle)
 Thermal correction to Energy=                    0.301753
 Thermal correction to Enthalpy=                  0.302697
 Thermal correction to Gibbs Free Energy=         0.234638
 Sum of electronic and zero-point Energies=           -785.801675
 Sum of electronic and thermal Energies=              -785.783315
 Sum of electronic and thermal Enthalpies=            -785.782371
 Sum of electronic and thermal Free Energies=         -785.850429

                     E (Thermal)             CV                S
                      KCal/Mol        Cal/Mol-Kelvin    Cal/Mol-Kelvin
 Total                  189.353             65.606            143.241
 Electronic               0.000              0.000              0.000
 Translational            0.889              2.981             42.266
 Rotational               0.889              2.981             33.225
 Vibrational            187.575             59.644             67.750
 Vibration     1          0.593              1.987              7.525
 Vibration     2          0.594              1.983              5.760
 Vibration     3          0.594              1.982              5.515
 Vibration     4          0.597              1.971              4.292
 Vibration     5          0.599              1.964              3.949
 Vibration     6          0.601              1.958              3.710
 Vibration     7          0.610              1.930              3.048
 Vibration     8          0.611              1.925              2.966
 Vibration     9          0.618              1.902              2.662
 Vibration    10          0.620              1.895              2.589
 Vibration    11          0.630              1.864              2.303
 Vibration    12          0.641              1.831              2.075
 Vibration    13          0.646              1.814              1.976
 Vibration    14          0.657              1.781              1.812
 Vibration    15          0.664              1.758              1.710
 Vibration    16          0.675              1.726              1.589
 Vibration    17          0.678              1.717              1.555
 Vibration    18          0.694              1.670              1.405
 Vibration    19          0.713              1.615              1.259
 Vibration    20          0.726              1.578              1.172
 Vibration    21          0.735              1.552              1.117
 Vibration    22          0.795              1.395              0.845
 Vibration    23          0.833              1.301              0.719
 Vibration    24          0.866              1.226              0.632
 Vibration    25          0.907              1.135              0.540
 Vibration    26          0.914              1.122              0.527
 Vibration    27          0.924              1.099              0.507
 Vibration    28          0.967              1.015              0.436

                           ! Non-Optimized Parameters !
 Normal termination of Gaussian 16 at Mon Dec 14 13:42:11 2020.

 ----------------------------------------------------------------------
 # B3LYP/6-311++G(d,p) empiricaldispersion=gd3bj scf=xqc pop=npa geom=c
 heck
 ----------------------------------------------------------------------

 ---------------------------------------
 CID_117342330_JID_7188_Energie_neutraal
 ---------------------------------------
 Structure from the checkpoint file:  "JID_7188.chk"
 Charge =  0 Multiplicity = 1

 SCF Done:  E(RB3LYP) =  -786.305318372     A.U. after   16 cycles
 Normal termination of Gaussian 16 at Mon Dec 14 13:48:45 2020.

 ----------------------------------------------------------------------
 # B3LYP/6-311++G(d,p) empiricaldispersion=gd3bj scf=xqc pop=npa geom=c
 heck
 ----------------------------------------------------------------------

 -------------------------------------
 CID_117342330_JID_7188_Energie_kation
 -------------------------------------
 Structure from the checkpoint file:  "JID_7188.chk"
 Charge =  1 Multiplicity = 2

 SCF Done:  E(UB3LYP) =  -786.015527057     A.U. after   23 cycles
 Normal termination of Gaussian 16 at Mon Dec 14 14:02:41 2020.
 Gaussian 16:  ES64L-G16RevA.03 25-Dec-2016

 ----------------------------------------------------------------------
 # B3LYP/6-311++G(d,p) empiricaldispersion=gd3bj scf=xqc pop=npa geom=c
 heck
 ----------------------------------------------------------------------

 ------------------------------------
 CID_117342330_JID_7188_Energie_anion
 ------------------------------------
 Structure from the checkpoint file:  "JID_7188.chk"
 Charge = -1 Multiplicity = 2

                         Standard orientation:
 ---------------------------------------------------------------------
 Center     Atomic      Atomic             Coordinates (Angstroms)
 Number     Number       Type             X           Y           Z
 ---------------------------------------------------------------------
      1          6           0       -1.936728    2.762537   -1.616776
      2          6           0       -1.315184    2.624121   -0.216927
      3          6           0       -2.402882    2.598217    0.870600
      4          6           0       -0.413131    1.404646   -0.125256
      5          6           0       -0.934489    0.119554   -0.289121
      6          6           0       -0.118203   -1.008075   -0.195099
      7          6           0        1.248352   -0.851993    0.053030
      8          6           0        1.787857    0.435427    0.230544
      9          6           0        0.953072    1.552373    0.134840
     10          8           0        3.125519    0.488553    0.499929
     11          6           0        3.705468    1.762500    0.727795
     12          8           0        2.026944   -1.979850    0.185825
     13          6           0        2.998632   -2.174604   -0.844840
     14          6           0       -0.647070   -2.424128   -0.349828
     15          7           0       -2.084396   -2.543006   -0.267929
     16          6           0       -2.973576   -2.119320    0.430155
     17          8           0       -3.939641   -1.774443    1.015978
     18          1           0       -2.591119    1.912815   -1.842422
     19          1           0       -1.162493    2.803163   -2.390354
     20          1           0       -2.539947    3.675301   -1.683754
     21          1           0       -0.688389    3.508980   -0.042108
     22          1           0       -3.065351    1.733939    0.746959
     23          1           0       -1.958727    2.535888    1.869621
     24          1           0       -3.019524    3.503241    0.822956
     25          1           0       -1.990325   -0.003783   -0.501273
     26          1           0        1.357013    2.549221    0.270857
     27          1           0        3.620733    2.408143   -0.156084
     28          1           0        3.242478    2.265011    1.586555
     29          1           0        4.759234    1.576507    0.941289
     30          1           0        2.520024   -2.196653   -1.832902
     31          1           0        3.758518   -1.388430   -0.824184
     32          1           0        3.462625   -3.142813   -0.644548
     33          1           0       -0.343088   -2.833142   -1.319712
     34          1           0       -0.186164   -3.067952    0.406051
 ---------------------------------------------------------------------

 SCF Done:  E(UB3LYP) =  -786.295190070     A.U. after   33 cycles
 SCF Done:  E(UB3LYP) =  -786.295190070     a.u. after    1 cycles

 The electronic state is 2-A.
 Alpha  occ. eigenvalues --  -19.08307 -19.06291 -19.04974 -14.25474 -10.22062
 Alpha  occ. eigenvalues --  -10.14388 -10.14369 -10.13262 -10.12529 -10.12167
 Alpha  occ. eigenvalues --  -10.09768 -10.08945 -10.08816 -10.07816 -10.07683
 Alpha  occ. eigenvalues --  -10.07046 -10.07012  -1.01796  -0.98374  -0.95916
 Alpha  occ. eigenvalues --   -0.87402  -0.77195  -0.71814  -0.69016  -0.65571
 Alpha  occ. eigenvalues --   -0.63328  -0.61470  -0.59595  -0.58561  -0.52630
 Alpha  occ. eigenvalues --   -0.51641  -0.47626  -0.45114  -0.43366  -0.42369
 Alpha  occ. eigenvalues --   -0.41366  -0.40078  -0.39633  -0.38697  -0.38098
 Alpha  occ. eigenvalues --   -0.36784  -0.36535  -0.35291  -0.34593  -0.34396
 Alpha  occ. eigenvalues --   -0.34132  -0.32637  -0.32547  -0.31605  -0.29922
 Alpha  occ. eigenvalues --   -0.28602  -0.28143  -0.26576  -0.25954  -0.25497
 Alpha  occ. eigenvalues --   -0.24147  -0.23237  -0.22510  -0.21797  -0.20381
 Alpha  occ. eigenvalues --   -0.19149  -0.15050  -0.12796   0.03962
 Alpha virt. eigenvalues --    0.05890   0.06274   0.07373   0.08020   0.08141
 Alpha virt. eigenvalues --    0.08316   0.08453   0.09194   0.09572   0.09780
 Alpha virt. eigenvalues --    0.10025   0.10565   0.10925   0.11388   0.12118

  Beta  occ. eigenvalues --  -19.08296 -19.06283 -19.04974 -14.25471 -10.22053
  Beta  occ. eigenvalues --  -10.14371 -10.14370 -10.13251 -10.12473 -10.12132
  Beta  occ. eigenvalues --  -10.09759 -10.08935 -10.08806 -10.07796 -10.07678
  Beta  occ. eigenvalues --  -10.07034 -10.06990  -1.01773  -0.98359  -0.95905
  Beta  occ. eigenvalues --   -0.87380  -0.77172  -0.71786  -0.68986  -0.65537
  Beta  occ. eigenvalues --   -0.63289  -0.61411  -0.59560  -0.58509  -0.52594
  Beta  occ. eigenvalues --   -0.51594  -0.47585  -0.45084  -0.43336  -0.42350
  Beta  occ. eigenvalues --   -0.41323  -0.40044  -0.39605  -0.38674  -0.38063
  Beta  occ. eigenvalues --   -0.36756  -0.36501  -0.35261  -0.34558  -0.34363
  Beta  occ. eigenvalues --   -0.34092  -0.32598  -0.32514  -0.31581  -0.29903
  Beta  occ. eigenvalues --   -0.28577  -0.28104  -0.26535  -0.25925  -0.25472
  Beta  occ. eigenvalues --   -0.24116  -0.23206  -0.22475  -0.21769  -0.20367
  Beta  occ. eigenvalues --   -0.19130  -0.14990  -0.12756
  Beta virt. eigenvalues --    0.05977   0.06614   0.07053   0.07726   0.08264
  Beta virt. eigenvalues --    0.08434   0.08525   0.08895   0.09416   0.09876
  Beta virt. eigenvalues --    0.10091   0.10308   0.10769   0.11434   0.11708

 Mulliken charges and spin densities:
               1          2
     1  C    0.292400  -0.984698
     2  C   -1.278669   1.545412
     3  C   -0.150965  -0.534758
     4  C    1.055962  -0.218856
     5  C   -0.490739  -0.113567
     6  C    1.838816  -0.617556
     7  C   -0.641594  -0.367479
     8  C   -1.109253   0.509623
     9  C   -0.216136   0.183731
    10  O   -0.235578   0.072134
    11  C    1.173494  -1.516003
    12  O   -0.196668   0.043876
    13  C    0.535057  -0.822516
    14  C    0.227588  -0.748206
    15  N   -0.073215   0.029208
    16  C    0.272092   0.036342
    17  O   -0.280862  -0.003338
    18  H   -0.033139   0.181870
    19  H   -0.020902   0.162179
    20  H   -0.147045   0.287274
    21  H   -0.600706   0.791225
    22  H    0.086495   0.064039
    23  H    0.050677   0.084528
    24  H   -0.043049   0.178910
    25  H    0.270065  -0.163304
    26  H    0.483795  -0.308964
    27  H   -0.491056   0.664055
    28  H   -0.405696   0.566766
    29  H   -0.539786   0.716953
    30  H   -0.186328   0.311309
    31  H   -0.070883   0.247654
    32  H   -0.115742   0.260296
    33  H   -0.113164   0.362842
    34  H    0.154732   0.099019
 Sum of Mulliken charges =  -1.00000   1.00000

 Dipole moment (field-independent basis, Debye):
    X=             -4.4764    Y=             -3.6932    Z=              0.0939  Tot=              5.8040
 Quadrupole moment (field-independent basis, Debye-Ang):
   XX=           -181.6544   YY=           -164.6150   ZZ=           -135.6658
   XY=             -8.6878   XZ=             -0.3833   YZ=             -1.8903

 Summary of Natural Population Analysis:

                                       Natural Population
                Natural  -----------------------------------------------
    Atom  No    Charge         Core      Valence    Rydberg      Total
 -----------------------------------------------------------------------
      C    1   -0.27853      0.99965     2.27414    0.00474     3.27853
      C    2   -0.11945      0.99958     2.10832    0.01155     3.11945
      C    3   -0.27944      0.99965     2.27508    0.00471     3.27944
      C    4    0.00092      0.99951     1.98721    0.01235     2.99908
      C    5   -0.11803      0.99947     2.11101    0.00756     3.11803
      C    6   -0.02990      0.99947     2.02105    0.00938     3.02990
      C    7    0.13370      0.99929     1.85218    0.01483     2.86630
      C    8    0.15278      0.99935     1.83445    0.01342     2.84722
      C    9   -0.13674      0.99947     2.12849    0.00878     3.13674
      O   10   -0.27219      0.99986     3.26141    0.01092     4.27219
      C   11   -0.10005      0.99960     2.09127    0.00918     3.10005
      O   12   -0.29000      0.99986     3.28047    0.00967     4.29000
      C   13   -0.09509      0.99959     2.08774    0.00776     3.09509
      C   14   -0.09507      0.99954     2.08397    0.01157     3.09507
      N   15   -0.27331      0.99951     2.76534    0.00846     3.77331
      C   16    0.41973      0.99956     1.56285    0.01786     2.58027
      O   17   -0.26796      0.99987     3.26053    0.00756     4.26796
      H   18    0.09562      0.00000     0.40336    0.00103     0.40438
      H   19    0.10258      0.00000     0.39640    0.00103     0.39742
      H   20    0.09759      0.00000     0.40141    0.00100     0.40241
      H   21    0.09830      0.00000     0.39931    0.00239     0.40170
      H   22    0.09778      0.00000     0.40117    0.00105     0.40222
      H   23    0.10166      0.00000     0.39743    0.00091     0.39834
      H   24    0.09679      0.00000     0.40235    0.00085     0.40321
      H   25    0.10148      0.00000     0.39680    0.00172     0.39852
      H   26    0.10852      0.00000     0.38935    0.00213     0.39148
      H   27    0.08697      0.00000     0.41067    0.00236     0.41303
      H   28    0.08680      0.00000     0.41118    0.00203     0.41320
      H   29    0.09579      0.00000     0.40264    0.00157     0.40421
      H   30    0.08013      0.00000     0.41798    0.00189     0.41987
      H   31    0.09231      0.00000     0.40555    0.00213     0.40769
      H   32    0.08778      0.00000     0.41080    0.00142     0.41222
      H   33    0.10768      0.00000     0.39073    0.00159     0.39232
      H   34    0.11084      0.00000     0.38783    0.00133     0.38916
 =======================================================================
   * Total *    0.00000     16.99282    45.81045    0.19673    63.00000

 Normal termination of Gaussian 16 at Mon Dec 14 14:21:23 2020.
