 Gaussian 16, Revision A.03,

 -----------------------------------------------------------
 # opt freq B3LYP/6-31G(d) empiricaldispersion=gd3bj scf=xqc
 -----------------------------------------------------------

 ------------------------------
 CID_90507319_JID_6368_neutraal
 ------------------------------
 Symbolic Z-matrix:
 Charge =  0 Multiplicity = 1

 SCF Done:  E(RB3LYP) =  -689.549483805     A.U. after   14 cycles
 SCF Done:  E(RB3LYP) =  -689.557215739     A.U. after   12 cycles
 SCF Done:  E(RB3LYP) =  -689.557983267     A.U. after   12 cycles
 SCF Done:  E(RB3LYP) =  -689.561357333     A.U. after   12 cycles
 SCF Done:  E(RB3LYP) =  -689.563399622     A.U. after   12 cycles
 SCF Done:  E(RB3LYP) =  -689.564611142     A.U. after   12 cycles
 SCF Done:  E(RB3LYP) =  -689.565192400     A.U. after   12 cycles
 SCF Done:  E(RB3LYP) =  -689.565656977     A.U. after   12 cycles
 SCF Done:  E(RB3LYP) =  -689.565909337     A.U. after   12 cycles
 SCF Done:  E(RB3LYP) =  -689.566073375     A.U. after   11 cycles
 SCF Done:  E(RB3LYP) =  -689.576203279     A.U. after   10 cycles
 SCF Done:  E(RB3LYP) =  -689.576204761     A.U. after   10 cycles
 SCF Done:  E(RB3LYP) =  -689.576205254     A.U. after    9 cycles
 SCF Done:  E(RB3LYP) =  -689.576205408     A.U. after    8 cycles
 SCF Done:  E(RB3LYP) =  -689.576205410     A.U. after    7 cycles
 Optimization completed.
    -- Stationary point found.
 Normal termination of Gaussian 16 at Thu Dec 10 22:59:10 2020.

 --------------------------------------------------------------------
 #N Geom=AllCheck Guess=TCheck SCRF=Check GenChk RB3LYP/6-31G(d) Freq
 --------------------------------------------------------------------

 Structure from the checkpoint file:  "JID_6368.chk"
 ------------------------------
 CID_90507319_JID_6368_neutraal
 ------------------------------
 Charge =  0 Multiplicity = 1

 SCF Done:  E(RB3LYP) =  -689.576205410     A.U. after    1 cycles

  Exact polarizability: 183.428  -5.885 150.125   2.152  -2.041 115.364
 Approx polarizability: 233.304  -7.408 225.188   5.332  -4.744 174.002

                      1                      2                      3
                      A                      A                      A
 Frequencies --     10.7678                36.5145                46.5540
 Red. masses --      2.7954                 3.7098                 2.6668
 Frc consts  --      0.0002                 0.0029                 0.0034
 IR Inten    --      0.2580                 0.0300                 0.0411

                      4                      5                      6
                      A                      A                      A
 Frequencies --     91.5560                96.9473               121.2713
 Red. masses --      3.5648                 3.8174                 1.2512
 Frc consts  --      0.0176                 0.0211                 0.0108
 IR Inten    --      0.1735                 0.0753                 0.6607

                      7                      8                      9
                      A                      A                      A
 Frequencies --    142.7837               159.5190               169.3839
 Red. masses --      1.0810                 1.7314                 2.2950
 Frc consts  --      0.0130                 0.0260                 0.0388
 IR Inten    --      0.0326                 0.8757                 1.6097

                     10                     11                     12
                      A                      A                      A
 Frequencies --    190.9113               215.1446               248.4092
 Red. masses --      1.7460                 2.4923                 1.9843
 Frc consts  --      0.0375                 0.0680                 0.0721
 IR Inten    --      0.7371                 1.6589                 0.4713

                     13                     14                     15
                      A                      A                      A
 Frequencies --    256.0072               273.3743               315.5646
 Red. masses --      2.6120                 1.8640                 3.4557
 Frc consts  --      0.1009                 0.0821                 0.2027
 IR Inten    --      0.9001                 0.4064                 1.3732

                     16                     17                     18
                      A                      A                      A
 Frequencies --    326.5230               340.6052               357.6850
 Red. masses --      3.9228                 2.5582                 2.0014
 Frc consts  --      0.2464                 0.1749                 0.1509
 IR Inten    --      0.0254                 7.1931                 3.8078

                     19                     20                     21
                      A                      A                      A
 Frequencies --    423.6220               429.3413               455.4082
 Red. masses --      1.9722                 4.0922                 1.4203
 Frc consts  --      0.2085                 0.4444                 0.1736
 IR Inten    --      0.9250                 3.0530                62.8359

                     22                     23                     24
                      A                      A                      A
 Frequencies --    495.2159               505.3612               520.6437
 Red. masses --      2.6562                 2.9153                 3.2261
 Frc consts  --      0.3838                 0.4387                 0.5152
 IR Inten    --      0.1171                 1.0614                 2.8091

                     25                     26                     27
                      A                      A                      A
 Frequencies --    557.9070               611.6965               682.2983
 Red. masses --      2.8861                 3.3786                 2.8947
 Frc consts  --      0.5293                 0.7448                 0.7940
 IR Inten    --      1.8114                 0.1232                22.2304

                     28                     29                     30
                      A                      A                      A
 Frequencies --    729.9263               744.4305               761.2674
 Red. masses --      2.9240                 5.3837                 1.5535
 Frc consts  --      0.9179                 1.7578                 0.5304
 IR Inten    --      8.3016                 3.6244                 9.8911

                     31                     32                     33
                      A                      A                      A
 Frequencies --    785.4763               830.4122               876.2188
 Red. masses --      4.9715                 1.7825                 1.5725
 Frc consts  --      1.8072                 0.7242                 0.7113
 IR Inten    --      5.5360                 5.3601                 0.0567

                     34                     35                     36
                      A                      A                      A
 Frequencies --    887.3011               919.2914               947.9956
 Red. masses --      2.6031                 1.4805                 2.9653
 Frc consts  --      1.2075                 0.7372                 1.5701
 IR Inten    --      0.1846                 0.3000                 8.1194

                     37                     38                     39
                      A                      A                      A
 Frequencies --    973.6303               999.4602              1013.1909
 Red. masses --      1.7886                 1.5746                 2.0577
 Frc consts  --      0.9989                 0.9267                 1.2446
 IR Inten    --      1.6695                 5.3599                41.9013

                     40                     41                     42
                      A                      A                      A
 Frequencies --   1023.5292              1049.9724              1069.1308
 Red. masses --      1.6948                 3.3153                 1.9450
 Frc consts  --      1.0461                 2.1534                 1.3098
 IR Inten    --     10.0508                13.1534                 5.5717

                     43                     44                     45
                      A                      A                      A
 Frequencies --   1079.2554              1080.4420              1081.3024
 Red. masses --      1.4560                 1.4815                 2.6816
 Frc consts  --      0.9992                 1.0189                 1.8473
 IR Inten    --      0.2271                 1.4304                 5.3325

                     46                     47                     48
                      A                      A                      A
 Frequencies --   1097.5863              1107.7695              1131.3728
 Red. masses --      1.6943                 2.1005                 1.9991
 Frc consts  --      1.2026                 1.5187                 1.5076
 IR Inten    --      0.2354                 7.4982                12.0148

                     49                     50                     51
                      A                      A                      A
 Frequencies --   1156.5286              1177.2248              1180.7404
 Red. masses --      2.3886                 3.7043                 2.9751
 Frc consts  --      1.8824                 3.0247                 2.4438
 IR Inten    --     21.6454                15.5417                24.0704

                     52                     53                     54
                      A                      A                      A
 Frequencies --   1186.4888              1234.3153              1248.0495
 Red. masses --      2.8850                 1.2437                 2.0385
 Frc consts  --      2.3929                 1.1164                 1.8708
 IR Inten    --     26.3008                 0.4345                 0.1136

                     55                     56                     57
                      A                      A                      A
 Frequencies --   1268.5340              1294.3361              1313.2340
 Red. masses --      2.2397                 1.3645                 1.5940
 Frc consts  --      2.1235                 1.3469                 1.6197
 IR Inten    --     64.0252                 8.4293                13.7602

                     58                     59                     60
                      A                      A                      A
 Frequencies --   1318.5453              1327.5517              1346.9741
 Red. masses --      1.2737                 1.5070                 1.5497
 Frc consts  --      1.3047                 1.5648                 1.6566
 IR Inten    --      3.9682                18.9349                30.8036

                     61                     62                     63
                      A                      A                      A
 Frequencies --   1369.1551              1376.8567              1396.2146
 Red. masses --      1.6888                 1.2873                 1.3804
 Frc consts  --      1.8653                 1.4378                 1.5854
 IR Inten    --     20.9204                 2.5409                18.7854

                     64                     65                     66
                      A                      A                      A
 Frequencies --   1402.6723              1414.5890              1426.4191
 Red. masses --      1.3594                 1.6238                 1.4421
 Frc consts  --      1.5758                 1.9145                 1.7288
 IR Inten    --     30.8485                 4.2970                25.2906

                     67                     68                     69
                      A                      A                      A
 Frequencies --   1434.6144              1437.2183              1444.5699
 Red. masses --      1.3520                 1.3522                 1.4725
 Frc consts  --      1.6394                 1.6456                 1.8104
 IR Inten    --      7.4443                 5.2379                 2.9119

                     70                     71                     72
                      A                      A                      A
 Frequencies --   1448.4186              1456.0928              1497.0721
 Red. masses --      1.7527                 1.4488                 1.5194
 Frc consts  --      2.1665                 1.8098                 2.0063
 IR Inten    --      8.2131                 6.2963                 5.8547

                     73                     74                     75
                      A                      A                      A
 Frequencies --   1510.2195              1511.9285              1513.6194
 Red. masses --      1.0858                 2.1017                 1.0550
 Frc consts  --      1.4591                 2.8306                 1.4241
 IR Inten    --      2.9829                16.8406                 6.0248

                     76                     77                     78
                      A                      A                      A
 Frequencies --   1515.8908              1517.3661              1522.2039
 Red. masses --      1.0836                 1.0754                 1.0568
 Frc consts  --      1.4671                 1.4588                 1.4427
 IR Inten    --      1.0944                 6.7600                 2.6492

                     79                     80                     81
                      A                      A                      A
 Frequencies --   1522.3860              1525.0932              1530.3242
 Red. masses --      1.0609                 1.0602                 1.2651
 Frc consts  --      1.4487                 1.4529                 1.7455
 IR Inten    --      4.7013                 5.5509                12.3942

                     82                     83                     84
                      A                      A                      A
 Frequencies --   1532.3720              1539.4650              1541.0575
 Red. masses --      1.4906                 1.1158                 1.0720
 Frc consts  --      2.0622                 1.5580                 1.5000
 IR Inten    --      5.0481                 4.9409                 7.0997

                     85                     86                     87
                      A                      A                      A
 Frequencies --   1543.9312              1643.3474              2917.0008
 Red. masses --      1.9951                 5.0872                 1.0732
 Frc consts  --      2.8020                 8.0945                 5.3802
 IR Inten    --      0.0937                15.8001                28.7681

                     88                     89                     90
                      A                      A                      A
 Frequencies --   2921.7051              2933.6432              2966.4965
 Red. masses --      1.0731                 1.0721                 1.0717
 Frc consts  --      5.3972                 5.4361                 5.5565
 IR Inten    --     31.1396               129.1076                22.0083

                     91                     92                     93
                      A                      A                      A
 Frequencies --   2972.4782              3040.9702              3044.0112
 Red. masses --      1.0706                 1.0383                 1.0622
 Frc consts  --      5.5735                 5.6570                 5.7991
 IR Inten    --    114.8693                46.3834                28.0713

                     94                     95                     96
                      A                      A                      A
 Frequencies --   3048.9989              3051.3581              3054.1165
 Red. masses --      1.0397                 1.0372                 1.0877
 Frc consts  --      5.6945                 5.6901                 5.9778
 IR Inten    --     22.5532                26.6551                16.1114

                     97                     98                     99
                      A                      A                      A
 Frequencies --   3074.7633              3079.6277              3090.5547
 Red. masses --      1.0971                 1.0899                 1.1017
 Frc consts  --      6.1111                 6.0902                 6.2000
 IR Inten    --     15.0287                80.3999                17.0141

                    100                    101                    102
                      A                      A                      A
 Frequencies --   3100.3833              3101.9762              3102.3327
 Red. masses --      1.0914                 1.0928                 1.0978
 Frc consts  --      6.1809                 6.1954                 6.2251
 IR Inten    --     23.7394                61.6656                 2.4328

                    103                    104                    105
                      A                      A                      A
 Frequencies --   3104.6705              3111.4684              3136.5508
 Red. masses --      1.0882                 1.1004                 1.1010
 Frc consts  --      6.1798                 6.2765                 6.3818
 IR Inten    --     10.8482                68.5637                37.8096

                    106                    107                    108
                      A                      A                      A
 Frequencies --   3141.6605              3142.4082              3664.9225
 Red. masses --      1.1008                 1.0984                 1.0810
 Frc consts  --      6.4016                 6.3907                 8.5551
 IR Inten    --     17.4985                 3.1335                68.6029

 - Thermochemistry -
 -------------------
 Temperature   298.150 Kelvin.  Pressure   1.00000 Atm.
 Atom     1 has atomic number  6 and mass  12.00000

 Molecular mass:   222.18445 amu.
 Principal axes and moments of inertia in atomic units:
                           1         2         3
     Eigenvalues --  1555.350887077.276077819.96015
           X            0.99995  -0.01004  -0.00197
           Y            0.01004   0.99994  -0.00348
           Z            0.00200   0.00346   0.99999
 This molecule is an asymmetric top.
 Rotational symmetry number  1.
 Warning -- assumption of classical behavior for rotation
           may cause significant error
 Rotational temperatures (Kelvin)      0.05569     0.01224     0.01108
 Rotational constants (GHZ):           1.16034     0.25501     0.23079
 Zero-point vibrational energy     895391.1 (Joules/Mol)
                                  214.00360 (Kcal/Mol)
 Warning -- explicit consideration of  26 degrees of freedom as
           vibrations may cause significant error
 Vibrational temperatures:     15.49    52.54    66.98   131.73   139.49
          (Kelvin)            174.48   205.43   229.51   243.71   274.68
                              309.55   357.41   368.34   393.32   454.03
                              469.79   490.05   514.63   609.50   617.73
                              655.23   712.51   727.10   749.09   802.70
                              880.09   981.68  1050.20  1071.07  1095.29
                             1130.13  1194.78  1260.68  1276.63  1322.66
                             1363.95  1400.84  1438.00  1457.76  1472.63
                             1510.68  1538.24  1552.81  1554.52  1555.75
                             1579.18  1593.83  1627.79  1663.99  1693.76
                             1698.82  1707.09  1775.90  1795.66  1825.14
                             1862.26  1889.45  1897.09  1910.05  1938.00
                             1969.91  1980.99  2008.84  2018.13  2035.28
                             2052.30  2064.09  2067.84  2078.41  2083.95
                             2094.99  2153.95  2172.87  2175.33  2177.76
                             2181.03  2183.15  2190.11  2190.37  2194.27
                             2201.80  2204.74  2214.95  2217.24  2221.37
                             2364.41  4196.91  4203.68  4220.86  4268.13
                             4276.73  4375.28  4379.65  4386.83  4390.22
                             4394.19  4423.90  4430.90  4446.62  4460.76
                             4463.05  4463.56  4466.93  4476.71  4512.80
                             4520.15  4521.22  5273.01

 Zero-point correction=                           0.341036 (Hartree/Particle)
 Thermal correction to Energy=                    0.357882
 Thermal correction to Enthalpy=                  0.358826
 Thermal correction to Gibbs Free Energy=         0.294949
 Sum of electronic and zero-point Energies=           -689.235169
 Sum of electronic and thermal Energies=              -689.218324
 Sum of electronic and thermal Enthalpies=            -689.217380
 Sum of electronic and thermal Free Energies=         -689.281257

                     E (Thermal)             CV                S
                      KCal/Mol        Cal/Mol-Kelvin    Cal/Mol-Kelvin
 Total                  224.574             63.158            134.440
 Electronic               0.000              0.000              0.000
 Translational            0.889              2.981             42.098
 Rotational               0.889              2.981             32.820
 Vibrational            222.797             57.196             59.522
 Vibration     1          0.593              1.987              7.864
 Vibration     2          0.594              1.982              5.440
 Vibration     3          0.595              1.979              4.959
 Vibration     4          0.602              1.955              3.627
 Vibration     5          0.603              1.951              3.515
 Vibration     6          0.609              1.931              3.080
 Vibration     7          0.616              1.910              2.766
 Vibration     8          0.621              1.892              2.555
 Vibration     9          0.625              1.880              2.442
 Vibration    10          0.634              1.852              2.219
 Vibration    11          0.645              1.818              2.000
 Vibration    12          0.662              1.765              1.742
 Vibration    13          0.666              1.753              1.689
 Vibration    14          0.676              1.722              1.575
 Vibration    15          0.703              1.644              1.333
 Vibration    16          0.710              1.622              1.277
 Vibration    17          0.720              1.594              1.209
 Vibration    18          0.733              1.559              1.132
 Vibration    19          0.786              1.419              0.880
 Vibration    20          0.791              1.406              0.861
 Vibration    21          0.814              1.349              0.780
 Vibration    22          0.851              1.261              0.670
 Vibration    23          0.861              1.238              0.645
 Vibration    24          0.876              1.204              0.608
 Vibration    25          0.913              1.122              0.528
 Vibration    26          0.971              1.007              0.430

 Optimization completed.
    -- Stationary point found.
 Normal termination of Gaussian 16 at Thu Dec 10 23:12:32 2020.

 ----------------------------------------------------------------------
 # B3LYP/6-311++G(d,p) empiricaldispersion=gd3bj scf=xqc pop=npa geom=c
 heck
 ----------------------------------------------------------------------

 --------------------------------------
 CID_90507319_JID_6368_Energie_neutraal
 --------------------------------------
 Structure from the checkpoint file:  "JID_6368.chk"
 Charge =  0 Multiplicity = 1

 SCF Done:  E(RB3LYP) =  -689.762634727     A.U. after   14 cycles
 Normal termination of Gaussian 16 at Thu Dec 10 23:18:20 2020.

 ----------------------------------------------------------------------
 # B3LYP/6-311++G(d,p) empiricaldispersion=gd3bj scf=xqc pop=npa geom=c
 heck
 ----------------------------------------------------------------------

 ------------------------------------
 CID_90507319_JID_6368_Energie_kation
 ------------------------------------
 Structure from the checkpoint file:  "JID_6368.chk"
 Charge =  1 Multiplicity = 2

 SCF Done:  E(UB3LYP) =  -689.480521974     A.U. after   29 cycles
 Normal termination of Gaussian 16 at Thu Dec 10 23:33:57 2020.
 Gaussian 16:  ES64L-G16RevA.03 25-Dec-2016

 ----------------------------------------------------------------------
 # B3LYP/6-311++G(d,p) empiricaldispersion=gd3bj scf=xqc pop=npa geom=c
 heck
 ----------------------------------------------------------------------

 -----------------------------------
 CID_90507319_JID_6368_Energie_anion
 -----------------------------------
 Structure from the checkpoint file:  "JID_6368.chk"
 Charge = -1 Multiplicity = 2

                         Standard orientation:
 ---------------------------------------------------------------------
 Center     Atomic      Atomic             Coordinates (Angstroms)
 Number     Number       Type             X           Y           Z
 ---------------------------------------------------------------------
      1          6           0       -4.704291    1.396934    0.285797
      2          6           0       -4.637026   -0.108360    0.549884
      3          6           0       -3.637939   -0.829106   -0.361945
      4          7           0       -2.282494   -0.289386   -0.282431
      5          6           0       -1.448707   -0.750357   -1.389022
      6          6           0       -0.081234   -0.076397   -1.343877
      7          7           0        0.565720   -0.362729   -0.063039
      8          6           0       -0.261346    0.088287    1.056230
      9          6           0       -1.630068   -0.582059    0.991455
     10          6           0        1.935380   -0.000903    0.015983
     11          6           0        2.967458   -0.916705    0.168568
     12          7           0        4.106256   -0.176225    0.201141
     13          7           0        3.890183    1.159314    0.080432
     14          6           0        2.567504    1.279557   -0.033277
     15          6           0        1.948864    2.634866   -0.187951
     16          6           0        2.913472   -2.401857    0.279546
     17          1           0       -3.722185    1.857152    0.427341
     18          1           0       -5.421500    1.887132    0.953368
     19          1           0       -5.013741    1.597954   -0.747294
     20          1           0       -4.390481   -0.291807    1.603351
     21          1           0       -5.622384   -0.565660    0.391162
     22          1           0       -3.652602   -1.916689   -0.145986
     23          1           0       -3.970358   -0.711345   -1.401324
     24          1           0       -1.307260   -1.849348   -1.363931
     25          1           0       -1.949210   -0.498244   -2.331064
     26          1           0       -0.216715    1.007486   -1.507485
     27          1           0        0.554435   -0.463574   -2.146004
     28          1           0       -0.404939    1.183633    1.051287
     29          1           0        0.243107   -0.181935    1.988881
     30          1           0       -2.249939   -0.202939    1.809394
     31          1           0       -1.506278   -1.673853    1.138172
     32          1           0        5.054064   -0.504923    0.302311
     33          1           0        1.395668    2.721884   -1.130293
     34          1           0        1.242951    2.852073    0.621988
     35          1           0        2.732497    3.397180   -0.176525
     36          1           0        3.319878   -2.760243    1.233622
     37          1           0        1.865666   -2.707181    0.214505
     38          1           0        3.469261   -2.896970   -0.526530
 ---------------------------------------------------------------------

 SCF Done:  E(UB3LYP) =  -689.749202940     A.U. after   33 cycles
 SCF Done:  E(UB3LYP) =  -689.749202940     a.u. after    1 cycles

 The electronic state is 2-A.
 Alpha  occ. eigenvalues --  -14.27958 -14.22817 -14.21737 -14.21373 -10.11251
 Alpha  occ. eigenvalues --  -10.10177 -10.10175 -10.10148 -10.10073 -10.09975
 Alpha  occ. eigenvalues --  -10.09853 -10.08936 -10.08013 -10.07726 -10.07504
 Alpha  occ. eigenvalues --  -10.06584  -0.94371  -0.85826  -0.81885  -0.73649
 Alpha  occ. eigenvalues --   -0.69910  -0.68288  -0.67355  -0.62907  -0.61791
 Alpha  occ. eigenvalues --   -0.59993  -0.56109  -0.55352  -0.50148  -0.48564
 Alpha  occ. eigenvalues --   -0.47468  -0.45880  -0.42715  -0.40463  -0.38272
 Alpha  occ. eigenvalues --   -0.37372  -0.37243  -0.36616  -0.35781  -0.35037
 Alpha  occ. eigenvalues --   -0.33823  -0.32750  -0.32701  -0.31819  -0.30878
 Alpha  occ. eigenvalues --   -0.30433  -0.30029  -0.29701  -0.29102  -0.27827
 Alpha  occ. eigenvalues --   -0.26763  -0.26210  -0.25864  -0.25460  -0.23957
 Alpha  occ. eigenvalues --   -0.23440  -0.20278  -0.15226  -0.14079  -0.13294
 Alpha  occ. eigenvalues --   -0.12920   0.04088
 Alpha virt. eigenvalues --    0.05355   0.06916   0.06992   0.07366   0.08203
 Alpha virt. eigenvalues --    0.08516   0.08815   0.09414   0.09618   0.10278
 Alpha virt. eigenvalues --    0.10710   0.10870   0.11269   0.12028   0.12503

  Beta  occ. eigenvalues --  -14.27926 -14.22812 -14.21731 -14.21361 -10.11251
  Beta  occ. eigenvalues --  -10.10170 -10.10168 -10.10135 -10.10063 -10.09962
  Beta  occ. eigenvalues --  -10.09854 -10.08933 -10.08009 -10.07708 -10.07453
  Beta  occ. eigenvalues --  -10.06563  -0.94346  -0.85809  -0.81867  -0.73620
  Beta  occ. eigenvalues --   -0.69885  -0.68258  -0.67336  -0.62884  -0.61747
  Beta  occ. eigenvalues --   -0.59942  -0.56072  -0.55323  -0.50106  -0.48522
  Beta  occ. eigenvalues --   -0.47432  -0.45849  -0.42678  -0.40420  -0.38251
  Beta  occ. eigenvalues --   -0.37350  -0.37217  -0.36593  -0.35761  -0.35016
  Beta  occ. eigenvalues --   -0.33786  -0.32725  -0.32679  -0.31793  -0.30848
  Beta  occ. eigenvalues --   -0.30407  -0.30008  -0.29668  -0.29074  -0.27796
  Beta  occ. eigenvalues --   -0.26732  -0.26187  -0.25838  -0.25434  -0.23932
  Beta  occ. eigenvalues --   -0.23411  -0.20254  -0.15212  -0.14069  -0.13233
  Beta  occ. eigenvalues --   -0.12885
  Beta virt. eigenvalues --    0.05966   0.06809   0.07071   0.07333   0.07974
  Beta virt. eigenvalues --    0.08497   0.09091   0.09315   0.09656   0.09942
  Beta virt. eigenvalues --    0.10378   0.10858   0.10997   0.11540   0.12229

 Mulliken charges and spin densities:
               1          2
     1  C    0.483295  -0.984025
     2  C   -0.443939   0.231802
     3  C   -0.026777  -0.223870
     4  N    0.099816   0.110804
     5  C    0.033191  -0.315149
     6  C    0.004479  -0.266521
     7  N    0.306552   0.006928
     8  C    0.403048  -0.626416
     9  C   -0.243894  -0.240367
    10  C   -1.489942   0.567959
    11  C    0.491986   0.209651
    12  N   -0.267110   0.014181
    13  N   -0.093933   0.078146
    14  C   -1.053228   0.887576
    15  C   -0.265061  -0.309802
    16  C    2.313730  -2.765985
    17  H    0.008826   0.154632
    18  H   -0.218331   0.345164
    19  H   -0.005471   0.128060
    20  H   -0.100094   0.227061
    21  H   -0.372211   0.523937
    22  H    0.059483   0.038449
    23  H   -0.198491   0.335148
    24  H    0.012330   0.105843
    25  H   -0.001924   0.169792
    26  H    0.206557  -0.104067
    27  H   -0.065125   0.250486
    28  H    0.214346  -0.113467
    29  H   -0.078597   0.270400
    30  H    0.159587  -0.000427
    31  H   -0.042506   0.164521
    32  H   -0.178145   0.522318
    33  H    0.073868   0.070257
    34  H    0.073503   0.066268
    35  H    0.135393   0.022079
    36  H   -0.487443   0.652144
    37  H    0.081141   0.103923
    38  H   -0.528909   0.692566
 Sum of Mulliken charges =  -1.00000   1.00000

 Dipole moment (field-independent basis, Debye):
    X=             -2.1770    Y=              3.4234    Z=             -0.7965  Tot=              4.1344
 Quadrupole moment (field-independent basis, Debye-Ang):
   XX=           -221.9220   YY=           -144.5854   ZZ=           -131.2877
   XY=             15.5553   XZ=             -1.1756   YZ=              0.3536

 Summary of Natural Population Analysis:

                                       Natural Population
                Natural  -----------------------------------------------
    Atom  No    Charge         Core      Valence    Rydberg      Total
 -----------------------------------------------------------------------
      C    1   -0.28808      0.99966     2.28195    0.00647     3.28808
      C    2   -0.19496      0.99964     2.18742    0.00790     3.19496
      C    3   -0.08018      0.99961     2.06892    0.01165     3.08018
      N    4   -0.28463      0.99970     2.77349    0.01144     3.78463
      C    5   -0.08565      0.99961     2.07468    0.01135     3.08565
      C    6   -0.08331      0.99960     2.07303    0.01069     3.08331
      N    7   -0.28196      0.99967     2.76915    0.01313     3.78196
      C    8   -0.08257      0.99960     2.07236    0.01061     3.08257
      C    9   -0.08877      0.99961     2.07808    0.01108     3.08877
      C   10    0.02178      0.99935     1.96483    0.01404     2.97822
      C   11    0.08883      0.99948     1.89987    0.01182     2.91117
      N   12   -0.16972      0.99965     2.65731    0.01276     3.66972
      N   13   -0.16608      0.99970     2.65357    0.01281     3.66608
      C   14    0.06757      0.99954     1.91886    0.01403     2.93243
      C   15   -0.29809      0.99963     2.29413    0.00433     3.29809
      C   16   -0.30412      0.99963     2.29832    0.00616     3.30412
      H   17    0.10248      0.00000     0.39612    0.00140     0.39752
      H   18    0.09674      0.00000     0.40240    0.00086     0.40326
      H   19    0.09530      0.00000     0.40373    0.00096     0.40470
      H   20    0.09312      0.00000     0.40561    0.00127     0.40688
      H   21    0.09768      0.00000     0.40107    0.00126     0.40232
      H   22    0.08229      0.00000     0.41633    0.00138     0.41771
      H   23    0.09350      0.00000     0.40513    0.00137     0.40650
      H   24    0.08248      0.00000     0.41583    0.00170     0.41752
      H   25    0.09669      0.00000     0.40218    0.00113     0.40331
      H   26    0.08136      0.00000     0.41697    0.00167     0.41864
      H   27    0.10078      0.00000     0.39824    0.00098     0.39922
      H   28    0.08119      0.00000     0.41717    0.00164     0.41881
      H   29    0.10086      0.00000     0.39817    0.00097     0.39914
      H   30    0.09784      0.00000     0.40085    0.00131     0.40216
      H   31    0.08288      0.00000     0.41533    0.00179     0.41712
      H   32    0.20000      0.00000     0.29483    0.00516     0.30000
      H   33    0.10223      0.00000     0.39657    0.00120     0.39777
      H   34    0.10238      0.00000     0.39641    0.00121     0.39762
      H   35    0.10744      0.00000     0.39159    0.00097     0.39256
      H   36    0.10854      0.00000     0.38946    0.00200     0.39146
      H   37    0.11549      0.00000     0.38265    0.00186     0.38451
      H   38    0.10866      0.00000     0.38925    0.00208     0.39134
 =======================================================================
   * Total *   -0.00000     15.99370    44.80186    0.20444    61.00000

 Normal termination of Gaussian 16 at Thu Dec 10 23:52:02 2020.
