 Gaussian 16, Revision A.03,

 -----------------------------------------------------------
 # opt freq B3LYP/6-31G(d) empiricaldispersion=gd3bj scf=xqc
 -----------------------------------------------------------

 ------------------------------
 CID_65970516_JID_4693_neutraal
 ------------------------------
 Symbolic Z-matrix:
 Charge =  0 Multiplicity = 1

 SCF Done:  E(RB3LYP) =  -653.075778938     A.U. after   14 cycles
 SCF Done:  E(RB3LYP) =  -653.085871626     A.U. after   12 cycles
 SCF Done:  E(RB3LYP) =  -653.086393291     A.U. after   12 cycles
 SCF Done:  E(RB3LYP) =  -653.086980954     A.U. after   11 cycles
 SCF Done:  E(RB3LYP) =  -653.087310589     A.U. after   11 cycles
 SCF Done:  E(RB3LYP) =  -653.087363501     A.U. after   11 cycles
 SCF Done:  E(RB3LYP) =  -653.087447873     A.U. after   10 cycles
 SCF Done:  E(RB3LYP) =  -653.087462349     A.U. after    9 cycles
 SCF Done:  E(RB3LYP) =  -653.087470663     A.U. after   10 cycles
 SCF Done:  E(RB3LYP) =  -653.087476370     A.U. after    8 cycles
 SCF Done:  E(RB3LYP) =  -653.087481357     A.U. after    8 cycles
 SCF Done:  E(RB3LYP) =  -653.087482039     A.U. after    8 cycles
 SCF Done:  E(RB3LYP) =  -653.087482338     A.U. after    7 cycles
 SCF Done:  E(RB3LYP) =  -653.087482514     A.U. after    8 cycles
 SCF Done:  E(RB3LYP) =  -653.087482546     A.U. after    7 cycles
 SCF Done:  E(RB3LYP) =  -653.087482560     A.U. after    7 cycles
 Optimization completed.
    -- Stationary point found.
 Normal termination of Gaussian 16 at Thu Dec 10 10:27:19 2020.

 --------------------------------------------------------------------
 #N Geom=AllCheck Guess=TCheck SCRF=Check GenChk RB3LYP/6-31G(d) Freq
 --------------------------------------------------------------------

 Structure from the checkpoint file:  "JID_4693.chk"
 ------------------------------
 CID_65970516_JID_4693_neutraal
 ------------------------------
 Charge =  0 Multiplicity = 1

 SCF Done:  E(RB3LYP) =  -653.087482560     A.U. after    1 cycles

  Exact polarizability: 140.672  -4.213 121.406   1.542   0.844 107.951
 Approx polarizability: 181.249 -12.023 165.236  -5.534   9.576 165.728

                      1                      2                      3
                      A                      A                      A
 Frequencies --     31.1642                44.3479                52.8500
 Red. masses --      3.2140                 3.2969                 3.1894
 Frc consts  --      0.0018                 0.0038                 0.0052
 IR Inten    --      0.4924                 0.7777                 0.2333

                      4                      5                      6
                      A                      A                      A
 Frequencies --     69.4457                79.8777                96.3970
 Red. masses --      5.0676                 5.0603                 1.9945
 Frc consts  --      0.0144                 0.0190                 0.0109
 IR Inten    --      1.4443                 0.6643                 0.0728

                      7                      8                      9
                      A                      A                      A
 Frequencies --    147.6502               180.3598               211.3446
 Red. masses --      3.8747                 3.4222                 1.0637
 Frc consts  --      0.0498                 0.0656                 0.0280
 IR Inten    --      0.4269                 0.0446                 0.2960

                     10                     11                     12
                      A                      A                      A
 Frequencies --    221.5858               273.8186               283.9003
 Red. masses --      1.7753                 2.2226                 2.3656
 Frc consts  --      0.0514                 0.0982                 0.1123
 IR Inten    --      0.9070                 3.2164                 2.7833

                     13                     14                     15
                      A                      A                      A
 Frequencies --    295.7678               312.9016               324.1470
 Red. masses --      1.4055                 1.7592                 2.7334
 Frc consts  --      0.0724                 0.1015                 0.1692
 IR Inten    --     34.3476                60.0510                14.2947

                     16                     17                     18
                      A                      A                      A
 Frequencies --    333.2614               361.4472               386.5849
 Red. masses --      2.2440                 1.7324                 2.9076
 Frc consts  --      0.1468                 0.1333                 0.2560
 IR Inten    --      8.1469                86.6301                 6.9004

                     19                     20                     21
                      A                      A                      A
 Frequencies --    407.1171               423.7488               435.0887
 Red. masses --      3.0182                 2.3888                 2.1519
 Frc consts  --      0.2947                 0.2527                 0.2400
 IR Inten    --      5.4709                 4.6916                 1.1744

                     22                     23                     24
                      A                      A                      A
 Frequencies --    473.9721               526.6735               620.2732
 Red. masses --      2.6015                 3.4974                 2.1264
 Frc consts  --      0.3443                 0.5716                 0.4820
 IR Inten    --      6.1331                27.8916                22.2070

                     25                     26                     27
                      A                      A                      A
 Frequencies --    650.4797               750.2079               762.6659
 Red. masses --      1.5799                 3.5521                 3.9361
 Frc consts  --      0.3939                 1.1779                 1.3489
 IR Inten    --     58.3542                18.5550                10.3491

                     28                     29                     30
                      A                      A                      A
 Frequencies --    794.9662               814.8420               849.3446
 Red. masses --      1.3628                 1.4761                 2.0692
 Frc consts  --      0.5075                 0.5775                 0.8795
 IR Inten    --      2.8829                 1.3703                13.7582

                     31                     32                     33
                      A                      A                      A
 Frequencies --    862.9252               870.5686               923.1868
 Red. masses --      2.5753                 2.3590                 1.8600
 Frc consts  --      1.1299                 1.0534                 0.9340
 IR Inten    --     27.8863                 6.4936                25.5675

                     34                     35                     36
                      A                      A                      A
 Frequencies --    929.1666               947.9724               980.4156
 Red. masses --      1.7607                 2.5292                 1.6580
 Frc consts  --      0.8956                 1.3391                 0.9390
 IR Inten    --     26.3313                39.4446                59.5579

                     37                     38                     39
                      A                      A                      A
 Frequencies --    984.5096               991.2798              1009.7242
 Red. masses --      2.8253                 1.6146                 2.3184
 Frc consts  --      1.6135                 0.9348                 1.3926
 IR Inten    --     14.3580                51.3418                14.6771

                     40                     41                     42
                      A                      A                      A
 Frequencies --   1025.5942              1053.2430              1075.4243
 Red. masses --      1.8413                 2.1886                 1.2566
 Frc consts  --      1.1411                 1.4305                 0.8563
 IR Inten    --     14.7690                14.2566                 4.4585

                     43                     44                     45
                      A                      A                      A
 Frequencies --   1092.0677              1129.4814              1142.7461
 Red. masses --      1.3706                 2.5837                 2.1655
 Frc consts  --      0.9631                 1.9420                 1.6661
 IR Inten    --      3.1485                14.0131                21.5355

                     46                     47                     48
                      A                      A                      A
 Frequencies --   1165.1471              1187.0472              1190.9873
 Red. masses --      2.1544                 1.5624                 1.6819
 Frc consts  --      1.7232                 1.2971                 1.4056
 IR Inten    --      0.1453                 1.2343                 7.6208

                     49                     50                     51
                      A                      A                      A
 Frequencies --   1211.9010              1243.1204              1246.2675
 Red. masses --      1.8765                 1.6587                 1.7509
 Frc consts  --      1.6238                 1.5102                 1.6023
 IR Inten    --     45.9064                 1.8657                27.3001

                     52                     53                     54
                      A                      A                      A
 Frequencies --   1254.5847              1272.0132              1277.0161
 Red. masses --      1.4041                 1.2490                 1.4918
 Frc consts  --      1.3021                 1.1907                 1.4333
 IR Inten    --     22.2962                12.6110                55.7160

                     55                     56                     57
                      A                      A                      A
 Frequencies --   1292.7191              1320.2332              1337.5224
 Red. masses --      1.5467                 1.2714                 1.4135
 Frc consts  --      1.5228                 1.3057                 1.4899
 IR Inten    --     35.9496                 3.1743                57.8953

                     58                     59                     60
                      A                      A                      A
 Frequencies --   1357.5969              1372.7383              1377.7988
 Red. masses --      1.3047                 1.2804                 1.8768
 Frc consts  --      1.4168                 1.4216                 2.0992
 IR Inten    --     20.2622                20.6132                63.3703

                     61                     62                     63
                      A                      A                      A
 Frequencies --   1397.2665              1407.6547              1427.0190
 Red. masses --      1.5764                 1.4478                 1.4174
 Frc consts  --      1.8133                 1.6903                 1.7006
 IR Inten    --     52.9049                 0.6498                10.4711

                     64                     65                     66
                      A                      A                      A
 Frequencies --   1430.9602              1441.7840              1449.9911
 Red. masses --      1.2961                 1.2391                 1.3672
 Frc consts  --      1.5637                 1.5176                 1.6936
 IR Inten    --      5.4620                 1.3017                15.3022

                     67                     68                     69
                      A                      A                      A
 Frequencies --   1488.8189              1508.5387              1516.0069
 Red. masses --      1.0939                 1.3841                 1.0699
 Frc consts  --      1.4286                 1.8558                 1.4488
 IR Inten    --      3.2585                29.1583                 1.3748

                     70                     71                     72
                      A                      A                      A
 Frequencies --   1522.2746              1523.3128              1531.2751
 Red. masses --      1.0892                 1.3461                 1.0428
 Frc consts  --      1.4871                 1.8404                 1.4407
 IR Inten    --     17.1352                22.8818                 5.8207

                     73                     74                     75
                      A                      A                      A
 Frequencies --   1539.0198              1546.7213              1705.1896
 Red. masses --      1.0712                 1.0447                 1.0864
 Frc consts  --      1.4949                 1.4725                 1.8611
 IR Inten    --      8.1709                 6.2240                32.0217

                     76                     77                     78
                      A                      A                      A
 Frequencies --   1764.6567              3016.4379              3026.5703
 Red. masses --      7.5225                 1.0729                 1.0731
 Frc consts  --     13.8017                 5.7519                 5.7914
 IR Inten    --    337.4708                12.9912                31.8046

                     79                     80                     81
                      A                      A                      A
 Frequencies --   3040.3093              3041.2014              3048.7561
 Red. masses --      1.0849                 1.0478                 1.0370
 Frc consts  --      5.9085                 5.7099                 5.6789
 IR Inten    --     72.4766                28.7152                32.1888

                     82                     83                     84
                      A                      A                      A
 Frequencies --   3065.8025              3075.2597              3079.6727
 Red. masses --      1.0599                 1.0941                 1.0639
 Frc consts  --      5.8696                 6.0965                 5.9453
 IR Inten    --     27.8325                13.3846                25.9249

                     85                     86                     87
                      A                      A                      A
 Frequencies --   3082.4842              3109.8648              3111.9575
 Red. masses --      1.0849                 1.1009                 1.0955
 Frc consts  --      6.0734                 6.2731                 6.2507
 IR Inten    --     38.1053                23.6426                59.5374

                     88                     89                     90
                      A                      A                      A
 Frequencies --   3122.2960              3126.4984              3142.0393
 Red. masses --      1.1072                 1.1000                 1.1050
 Frc consts  --      6.3598                 6.3350                 6.4274
 IR Inten    --     23.1117                41.2877                12.7476

                     91                     92                     93
                      A                      A                      A
 Frequencies --   3156.6382              3175.7849              3447.8781
 Red. masses --      1.0995                 1.0860                 1.0500
 Frc consts  --      6.4548                 6.4536                 7.3544
 IR Inten    --      8.3967                15.9388                 3.1582

                     94                     95                     96
                      A                      A                      A
 Frequencies --   3531.4771              3551.4213              3737.1577
 Red. masses --      1.0909                 1.0748                 1.0661
 Frc consts  --      8.0161                 7.9869                 8.7728
 IR Inten    --      2.8432                 8.8510                13.7046

 - Thermochemistry -
 -------------------
 Temperature   298.150 Kelvin.  Pressure   1.00000 Atm.
 Atom     1 has atomic number  6 and mass  12.00000

 Molecular mass:   200.15248 amu.
 Principal axes and moments of inertia in atomic units:
                           1         2         3
     Eigenvalues --  2073.869624466.137525287.72736
           X            0.99950   0.02935   0.01200
           Y           -0.02881   0.99864  -0.04339
           Z           -0.01325   0.04302   0.99899
 This molecule is an asymmetric top.
 Rotational symmetry number  1.
 Warning -- assumption of classical behavior for rotation
           may cause significant error
 Rotational temperatures (Kelvin)      0.04176     0.01939     0.01638
 Rotational constants (GHZ):           0.87023     0.40409     0.34131
 Zero-point vibrational energy     796899.7 (Joules/Mol)
                                  190.46360 (Kcal/Mol)
 Warning -- explicit consideration of  24 degrees of freedom as
           vibrations may cause significant error
 Vibrational temperatures:     44.84    63.81    76.04    99.92   114.93
          (Kelvin)            138.69   212.44   259.50   304.08   318.81
                              393.96   408.47   425.54   450.20   466.38
                              479.49   520.04   556.21   585.75   609.68
                              626.00   681.94   757.77   892.43   935.90
                             1079.38  1097.31  1143.78  1172.38  1222.02
                             1241.56  1252.55  1328.26  1336.86  1363.92
                             1410.60  1416.49  1426.23  1452.77  1475.60
                             1515.38  1547.30  1571.24  1625.07  1644.16
                             1676.39  1707.90  1713.57  1743.66  1788.57
                             1793.10  1805.07  1830.14  1837.34  1859.93
                             1899.52  1924.40  1953.28  1975.06  1982.35
                             2010.35  2025.30  2053.16  2058.83  2074.41
                             2086.21  2142.08  2170.45  2181.20  2190.21
                             2191.71  2203.16  2214.31  2225.39  2453.39
                             2538.95  4339.98  4354.56  4374.33  4375.61
                             4386.48  4411.01  4424.61  4430.96  4435.01
                             4474.40  4477.41  4492.29  4498.33  4520.69
                             4541.70  4569.25  4960.73  5081.01  5109.70
                             5376.94

 Zero-point correction=                           0.303523 (Hartree/Particle)
 Thermal correction to Energy=                    0.319546
 Thermal correction to Enthalpy=                  0.320491
 Thermal correction to Gibbs Free Energy=         0.259358
 Sum of electronic and zero-point Energies=           -652.783959
 Sum of electronic and thermal Energies=              -652.767936
 Sum of electronic and thermal Enthalpies=            -652.766992
 Sum of electronic and thermal Free Energies=         -652.828125

                     E (Thermal)             CV                S
                      KCal/Mol        Cal/Mol-Kelvin    Cal/Mol-Kelvin
 Total                  200.518             59.670            128.664
 Electronic               0.000              0.000              0.000
 Translational            0.889              2.981             41.786
 Rotational               0.889              2.981             32.260
 Vibrational            198.741             53.709             54.618
 Vibration     1          0.594              1.983              5.754
 Vibration     2          0.595              1.980              5.055
 Vibration     3          0.596              1.976              4.708
 Vibration     4          0.598              1.969              4.169
 Vibration     5          0.600              1.963              3.894
 Vibration     6          0.603              1.952              3.526
 Vibration     7          0.617              1.905              2.702
 Vibration     8          0.629              1.866              2.325
 Vibration     9          0.643              1.824              2.032
 Vibration    10          0.648              1.808              1.946
 Vibration    11          0.676              1.722              1.572
 Vibration    12          0.682              1.704              1.510
 Vibration    13          0.690              1.682              1.441
 Vibration    14          0.701              1.649              1.347
 Vibration    15          0.709              1.627              1.289
 Vibration    16          0.715              1.609              1.244
 Vibration    17          0.736              1.552              1.116
 Vibration    18          0.755              1.499              1.013
 Vibration    19          0.772              1.455              0.937
 Vibration    20          0.786              1.419              0.879
 Vibration    21          0.796              1.394              0.842
 Vibration    22          0.831              1.308              0.727
 Vibration    23          0.882              1.191              0.595
 Vibration    24          0.980              0.989              0.416

 Optimization completed.
    -- Stationary point found.
 Normal termination of Gaussian 16 at Thu Dec 10 10:36:57 2020.

 ----------------------------------------------------------------------
 # B3LYP/6-311++G(d,p) empiricaldispersion=gd3bj scf=xqc pop=npa geom=c
 heck
 ----------------------------------------------------------------------

 --------------------------------------
 CID_65970516_JID_4693_Energie_neutraal
 --------------------------------------
 Structure from the checkpoint file:  "JID_4693.chk"
 Charge =  0 Multiplicity = 1

 SCF Done:  E(RB3LYP) =  -653.295426626     A.U. after   14 cycles
 Normal termination of Gaussian 16 at Thu Dec 10 10:41:51 2020.

 ----------------------------------------------------------------------
 # B3LYP/6-311++G(d,p) empiricaldispersion=gd3bj scf=xqc pop=npa geom=c
 heck
 ----------------------------------------------------------------------

 ------------------------------------
 CID_65970516_JID_4693_Energie_kation
 ------------------------------------
 Structure from the checkpoint file:  "JID_4693.chk"
 Charge =  1 Multiplicity = 2

 SCF Done:  E(UB3LYP) =  -652.979493243     A.U. after   29 cycles
 Normal termination of Gaussian 16 at Thu Dec 10 10:58:45 2020.
 Gaussian 16:  ES64L-G16RevA.03 25-Dec-2016

 ----------------------------------------------------------------------
 # B3LYP/6-311++G(d,p) empiricaldispersion=gd3bj scf=xqc pop=npa geom=c
 heck
 ----------------------------------------------------------------------

 -----------------------------------
 CID_65970516_JID_4693_Energie_anion
 -----------------------------------
 Structure from the checkpoint file:  "JID_4693.chk"
 Charge = -1 Multiplicity = 2

                         Standard orientation:
 ---------------------------------------------------------------------
 Center     Atomic      Atomic             Coordinates (Angstroms)
 Number     Number       Type             X           Y           Z
 ---------------------------------------------------------------------
      1          6           0        2.069272    2.690163   -1.081989
      2          6           0        1.316806    1.473316   -0.536141
      3          6           0        2.216272    0.450119    0.179636
      4          6           0        2.936784    1.060037    1.386542
      5          6           0        1.427131   -0.811800    0.615636
      6          6           0        0.703333   -1.425114   -0.594937
      7          8           0        1.344302   -2.085210   -1.410300
      8          7           0       -0.648255   -1.264414   -0.744701
      9          6           0       -1.573127   -0.419973   -0.032903
     10          6           0       -2.976696   -0.989774    0.304432
     11          6           0       -3.562086    0.410657    0.026298
     12          6           0       -2.282328    0.740557   -0.788644
     13          8           0       -3.626534    1.113623    1.260105
     14          7           0        2.350963   -1.797137    1.190136
     15          1           0        2.508875    3.292785   -0.280970
     16          1           0        1.397597    3.339874   -1.654334
     17          1           0        2.881385    2.379126   -1.750200
     18          1           0        0.535449    1.811593    0.160667
     19          1           0        0.797351    0.984366   -1.368837
     20          1           0        2.967397    0.100530   -0.544161
     21          1           0        2.214141    1.519412    2.074940
     22          1           0        3.480483    0.284940    1.930270
     23          1           0        3.644962    1.835941    1.079660
     24          1           0        0.721636   -0.525715    1.402340
     25          1           0       -0.995924   -1.707349   -1.589757
     26          1           0       -1.097220   -0.040100    0.868266
     27          1           0       -3.144313   -1.399324    1.303634
     28          1           0       -3.301025   -1.714830   -0.449918
     29          1           0       -4.519927    0.456739   -0.508231
     30          1           0       -2.405644    0.499996   -1.850719
     31          1           0       -1.863713    1.747547   -0.693850
     32          1           0       -3.774943    2.050380    1.056596
     33          1           0        1.811240   -2.543170    1.628215
     34          1           0        2.828917   -2.238314    0.402319
 ---------------------------------------------------------------------

 SCF Done:  E(UB3LYP) =  -653.286546681     A.U. after   31 cycles

 The electronic state is 2-A.
 Alpha  occ. eigenvalues --  -19.01852 -18.99812 -14.24751 -14.21064 -10.18061
 Alpha  occ. eigenvalues --  -10.12062 -10.12052 -10.11996 -10.08725 -10.07392
 Alpha  occ. eigenvalues --  -10.07368 -10.06802 -10.06759 -10.06476  -0.95010
 Alpha  occ. eigenvalues --   -0.92244  -0.83644  -0.80742  -0.73445  -0.71468
 Alpha  occ. eigenvalues --   -0.63906  -0.60454  -0.57420  -0.56887  -0.54117
 Alpha  occ. eigenvalues --   -0.50134  -0.47366  -0.46584  -0.43586  -0.41591
 Alpha  occ. eigenvalues --   -0.40056  -0.39174  -0.37183  -0.36436  -0.35399
 Alpha  occ. eigenvalues --   -0.34640  -0.33057  -0.32613  -0.31608  -0.29962
 Alpha  occ. eigenvalues --   -0.29454  -0.28966  -0.28726  -0.27752  -0.27016
 Alpha  occ. eigenvalues --   -0.26054  -0.24817  -0.23796  -0.23418  -0.23259
 Alpha  occ. eigenvalues --   -0.21142  -0.18456  -0.17103  -0.16029  -0.15620
 Alpha  occ. eigenvalues --    0.04250
 Alpha virt. eigenvalues --    0.06516   0.06867   0.07430   0.08492   0.08628
 Alpha virt. eigenvalues --    0.09259   0.09703   0.10146   0.10315   0.11099
 Alpha virt. eigenvalues --    0.11539   0.11868   0.12232   0.12995   0.13301

  Beta  occ. eigenvalues --  -19.01800 -18.99809 -14.24736 -14.21059 -10.18059
  Beta  occ. eigenvalues --  -10.12060 -10.12023 -10.11993 -10.08723 -10.07385
  Beta  occ. eigenvalues --  -10.07349 -10.06763 -10.06737 -10.06466  -0.95002
  Beta  occ. eigenvalues --   -0.92136  -0.83620  -0.80733  -0.73395  -0.71453
  Beta  occ. eigenvalues --   -0.63882  -0.60435  -0.57352  -0.56832  -0.54081
  Beta  occ. eigenvalues --   -0.50101  -0.47271  -0.46563  -0.43541  -0.41538
  Beta  occ. eigenvalues --   -0.39974  -0.39137  -0.37170  -0.36412  -0.35361
  Beta  occ. eigenvalues --   -0.34622  -0.33031  -0.32594  -0.31566  -0.29936
  Beta  occ. eigenvalues --   -0.29427  -0.28943  -0.28700  -0.27715  -0.26984
  Beta  occ. eigenvalues --   -0.26029  -0.24772  -0.23783  -0.23397  -0.23241
  Beta  occ. eigenvalues --   -0.21083  -0.18442  -0.17049  -0.16016  -0.15597
  Beta virt. eigenvalues --    0.06365   0.07138   0.07534   0.08141   0.08863
  Beta virt. eigenvalues --    0.09048   0.09565   0.10006   0.10267   0.10773
  Beta virt. eigenvalues --    0.11410   0.11749   0.12136   0.12505   0.13159

 Mulliken charges and spin densities:
               1          2
     1  C    0.343744  -1.111659
     2  C   -0.842212   0.752016
     3  C    0.182345   0.180937
     4  C   -0.077479  -0.569320
     5  C    0.173130  -0.640284
     6  C   -0.319811   0.129681
     7  O   -0.336317   0.011659
     8  N    0.083057  -0.080362
     9  C   -1.204958   1.324552
    10  C    0.347008  -0.932130
    11  C   -0.141635   0.086557
    12  C    1.418425  -2.030895
    13  O   -0.211604   0.001728
    14  N   -0.269131   0.048546
    15  H   -0.038062   0.180787
    16  H   -0.290923   0.444439
    17  H    0.025220   0.112598
    18  H    0.151991   0.015349
    19  H    0.121140   0.060006
    20  H    0.145829   0.040745
    21  H   -0.009419   0.146538
    22  H    0.187790  -0.000301
    23  H    0.063377   0.066454
    24  H   -0.023883   0.225783
    25  H    0.115926   0.188412
    26  H    0.569361  -0.404002
    27  H    0.077448   0.113875
    28  H   -0.239136   0.359859
    29  H   -0.656428   0.869348
    30  H   -0.311141   0.445561
    31  H   -0.164403   0.344347
    32  H   -0.268905   0.534685
    33  H    0.164448   0.061279
    34  H    0.235205   0.023210
 Sum of Mulliken charges =  -1.00000   1.00000

 Dipole moment (field-independent basis, Debye):
    X=              6.9708    Y=             -4.2083    Z=              2.3372  Tot=              8.4714
 Quadrupole moment (field-independent basis, Debye-Ang):
   XX=           -166.8545   YY=           -135.6942   ZZ=           -125.6438
   XY=             12.1700   XZ=             -2.1085   YZ=             -3.9097

 Summary of Natural Population Analysis:

                                       Natural Population
                Natural  -----------------------------------------------
    Atom  No    Charge         Core      Valence    Rydberg      Total
 -----------------------------------------------------------------------
      C    1   -0.28400      0.99967     2.27912    0.00521     3.28400
      C    2   -0.19401      0.99962     2.18598    0.00841     3.19401
      C    3   -0.10962      0.99959     2.09877    0.01126     3.10962
      C    4   -0.28950      0.99965     2.28489    0.00496     3.28950
      C    5   -0.04744      0.99954     2.03670    0.01121     3.04744
      C    6    0.34077      0.99964     1.63548    0.02411     2.65923
      O    7   -0.33731      0.99988     3.33140    0.00603     4.33731
      N    8   -0.30994      0.99964     2.79975    0.01055     3.80994
      C    9   -0.01634      0.99956     2.00381    0.01297     3.01634
      C   10   -0.19215      0.99961     2.18298    0.00957     3.19215
      C   11    0.06330      0.99958     1.92143    0.01568     2.93670
      C   12   -0.20052      0.99961     2.19066    0.01025     3.20052
      O   13   -0.37527      0.99989     3.36844    0.00694     4.37527
      N   14   -0.41717      0.99978     2.90852    0.00888     3.91717
      H   15    0.09613      0.00000     0.40302    0.00085     0.40387
      H   16    0.10319      0.00000     0.39596    0.00085     0.39681
      H   17    0.09440      0.00000     0.40479    0.00080     0.40560
      H   18    0.09544      0.00000     0.40242    0.00214     0.40456
      H   19    0.09968      0.00000     0.39829    0.00203     0.40032
      H   20    0.09642      0.00000     0.40190    0.00168     0.40358
      H   21    0.09559      0.00000     0.40353    0.00088     0.40441
      H   22    0.11053      0.00000     0.38828    0.00119     0.38947
      H   23    0.09821      0.00000     0.40102    0.00078     0.40179
      H   24    0.09621      0.00000     0.40184    0.00195     0.40379
      H   25    0.19336      0.00000     0.30389    0.00274     0.30664
      H   26    0.10315      0.00000     0.39447    0.00238     0.39685
      H   27    0.10288      0.00000     0.39613    0.00100     0.39712
      H   28    0.10151      0.00000     0.39674    0.00174     0.39849
      H   29    0.08260      0.00000     0.41353    0.00387     0.41740
      H   30    0.10323      0.00000     0.39364    0.00313     0.39677
      H   31    0.10549      0.00000     0.39211    0.00239     0.39451
      H   32    0.23637      0.00000     0.25467    0.00896     0.26363
      H   33    0.17321      0.00000     0.32539    0.00140     0.32679
      H   34    0.18161      0.00000     0.31645    0.00194     0.31839
 =======================================================================
   * Total *    0.00000     13.99525    40.81601    0.18874    55.00000

 Normal termination of Gaussian 16 at Thu Dec 10 11:17:05 2020.
