 Gaussian 16, Revision A.03,

 -----------------------------------------------------------
 # opt freq B3LYP/6-31G(d) empiricaldispersion=gd3bj scf=xqc
 -----------------------------------------------------------

 -------------------------------
 CID_137797095_JID_3235_neutraal
 -------------------------------
 Symbolic Z-matrix:
 Charge =  0 Multiplicity = 1

 SCF Done:  E(RB3LYP) =  -654.722738720     A.U. after   14 cycles
 SCF Done:  E(RB3LYP) =  -654.727119474     A.U. after   12 cycles
 SCF Done:  E(RB3LYP) =  -654.727787204     A.U. after   12 cycles
 SCF Done:  E(RB3LYP) =  -654.727382016     A.U. after   12 cycles
 SCF Done:  E(RB3LYP) =  -654.727979258     A.U. after   11 cycles
 SCF Done:  E(RB3LYP) =  -654.728239959     A.U. after   12 cycles
 SCF Done:  E(RB3LYP) =  -654.728372202     A.U. after   10 cycles
 SCF Done:  E(RB3LYP) =  -654.728404751     A.U. after   10 cycles
 SCF Done:  E(RB3LYP) =  -654.728428348     A.U. after   10 cycles
 SCF Done:  E(RB3LYP) =  -654.728438579     A.U. after    9 cycles
 SCF Done:  E(RB3LYP) =  -654.728451852     A.U. after    9 cycles
 SCF Done:  E(RB3LYP) =  -654.728452424     A.U. after    8 cycles
 SCF Done:  E(RB3LYP) =  -654.728452765     A.U. after    8 cycles
 SCF Done:  E(RB3LYP) =  -654.728452924     A.U. after    8 cycles
 SCF Done:  E(RB3LYP) =  -654.728452942     A.U. after    6 cycles
 Optimization completed.
    -- Stationary point found.

 1\1\GINC-NODE106\FOpt\RB3LYP\6-31G(d)\C9H18O4\VSC10255\09-Dec-2020\0\\
 # opt freq B3LYP/6-31G(d) empiricaldispersion=gd3bj scf=xqc\\CID_13779
 7095_JID_3235_neutraal\\0,1\C,1.2814630188,-0.0689253715,0.044593749\C
 ,-0.0510419208,-0.3431783614,-0.6576325882\C,-0.3197616128,-1.82145081
 55,-0.9345491844\O,0.6255181857,-2.3673427015,-1.8511170909\C,1.612823
 3934,-3.2087938727,-1.287714706\C,2.8145957077,-3.2252120822,-2.213564
 1288\O,3.4829502869,-1.9750264909,-2.1311356017\C,3.7472148198,-1.2677
 868077,-3.3353580585\C,4.7246352641,-2.0447294342,-4.2323509166\C,2.45

 Normal termination of Gaussian 16 at Wed Dec  9 22:33:47 2020.

 --------------------------------------------------------------------
 #N Geom=AllCheck Guess=TCheck SCRF=Check GenChk RB3LYP/6-31G(d) Freq
 --------------------------------------------------------------------

 Structure from the checkpoint file:  "JID_3235.chk"
 -------------------------------
 CID_137797095_JID_3235_neutraal
 -------------------------------
 Charge =  0 Multiplicity = 1

 SCF Done:  E(RB3LYP) =  -654.728452942     A.U. after    1 cycles

  Exact polarizability: 118.115  -0.887 109.727  -3.896   1.149  94.813
 Approx polarizability: 147.319  -0.268 147.569 -11.623  -4.703 144.804

                      1                      2                      3
                      A                      A                      A
 Frequencies --     29.9742                41.3637                53.2465
 Red. masses --      4.3560                 4.9406                 2.9574
 Frc consts  --      0.0023                 0.0050                 0.0049
 IR Inten    --      0.7396                 0.3292                 0.4202

                      4                      5                      6
                      A                      A                      A
 Frequencies --     56.5753                71.2998               138.6281
 Red. masses --      4.8776                 5.0524                 2.3478
 Frc consts  --      0.0092                 0.0151                 0.0266
 IR Inten    --      0.4175                 4.2843                 0.6425

                      7                      8                      9
                      A                      A                      A
 Frequencies --    152.4884               180.2968               204.4060
 Red. masses --      2.7222                 2.2026                 1.8195
 Frc consts  --      0.0373                 0.0422                 0.0448
 IR Inten    --      4.4827                 0.7121                 0.8435

                     10                     11                     12
                      A                      A                      A
 Frequencies --    244.3836               255.5960               262.5508
 Red. masses --      1.6491                 1.5696                 1.4771
 Frc consts  --      0.0580                 0.0604                 0.0600
 IR Inten    --      0.8495                 2.0868                 1.0125

                     13                     14                     15
                      A                      A                      A
 Frequencies --    281.2560               300.5950               323.1440
 Red. masses --      1.9938                 1.5364                 2.6304
 Frc consts  --      0.0929                 0.0818                 0.1618
 IR Inten    --      0.3368                 0.2205                 0.4313

                     16                     17                     18
                      A                      A                      A
 Frequencies --    346.2754               357.0860               401.1568
 Red. masses --      2.5594                 2.5201                 3.5878
 Frc consts  --      0.1808                 0.1893                 0.3402
 IR Inten    --      2.3473                 1.0245                11.3059

                     19                     20                     21
                      A                      A                      A
 Frequencies --    428.1607               454.0770               498.6840
 Red. masses --      3.5742                 2.6657                 2.8930
 Frc consts  --      0.3860                 0.3238                 0.4239
 IR Inten    --      3.0609                 4.9935                 1.9874

                     22                     23                     24
                      A                      A                      A
 Frequencies --    563.9014               612.8143               620.9640
 Red. masses --      2.7019                 1.2515                 2.9264
 Frc consts  --      0.5062                 0.2769                 0.6649
 IR Inten    --      1.9126                88.0966                30.0468

                     25                     26                     27
                      A                      A                      A
 Frequencies --    732.5502               779.8382               783.0900
 Red. masses --      3.5343                 4.7420                 1.3856
 Frc consts  --      1.1174                 1.6991                 0.5006
 IR Inten    --     16.7418                31.5752                 1.0624

                     28                     29                     30
                      A                      A                      A
 Frequencies --    840.9552               852.2925               883.7235
 Red. masses --      2.2386                 2.2928                 2.4337
 Frc consts  --      0.9328                 0.9813                 1.1198
 IR Inten    --      7.5255                11.7172                 5.1611

                     31                     32                     33
                      A                      A                      A
 Frequencies --    925.8705               935.5700               944.8094
 Red. masses --      1.3014                 1.7476                 1.6797
 Frc consts  --      0.6573                 0.9012                 0.8834
 IR Inten    --      1.2532                 0.4206                 0.9097

                     34                     35                     36
                      A                      A                      A
 Frequencies --    996.1963              1003.1015              1036.1902
 Red. masses --      2.2342                 2.0860                 1.3109
 Frc consts  --      1.3064                 1.2366                 0.8293
 IR Inten    --     48.6617                23.5173                 0.7041

                     37                     38                     39
                      A                      A                      A
 Frequencies --   1075.4747              1115.1148              1116.6539
 Red. masses --      2.2979                 2.2692                 2.7708
 Frc consts  --      1.5660                 1.6625                 2.0356
 IR Inten    --      9.3377                21.5527                19.2008

                     40                     41                     42
                      A                      A                      A
 Frequencies --   1144.8991              1159.4442              1176.6060
 Red. masses --      2.1158                 3.7821                 2.8945
 Frc consts  --      1.6340                 2.9956                 2.3609
 IR Inten    --     41.1750               462.1201                87.2283

                     43                     44                     45
                      A                      A                      A
 Frequencies --   1199.7276              1206.7276              1236.1927
 Red. masses --      3.3908                 2.2907                 2.4146
 Frc consts  --      2.8755                 1.9654                 2.1740
 IR Inten    --     12.2370                37.2660                42.0153

                     46                     47                     48
                      A                      A                      A
 Frequencies --   1266.4589              1283.6456              1306.3084
 Red. masses --      1.9290                 1.1995                 1.1879
 Frc consts  --      1.8229                 1.1645                 1.1943
 IR Inten    --      8.2493                12.0218                 3.4678

                     49                     50                     51
                      A                      A                      A
 Frequencies --   1319.5149              1335.5613              1375.1036
 Red. masses --      1.1602                 1.2176                 2.3884
 Frc consts  --      1.1902                 1.2797                 2.6609
 IR Inten    --      3.6179                19.6697                16.2670

                     52                     53                     54
                      A                      A                      A
 Frequencies --   1402.1404              1409.8395              1421.8784
 Red. masses --      1.3486                 1.3013                 1.2360
 Frc consts  --      1.5621                 1.5239                 1.4722
 IR Inten    --      3.1824                33.1782                 9.6522

                     55                     56                     57
                      A                      A                      A
 Frequencies --   1429.6886              1444.0704              1451.3588
 Red. masses --      1.3072                 1.2838                 1.2923
 Frc consts  --      1.5743                 1.5773                 1.6038
 IR Inten    --     10.8181                 8.1730                 5.2202

                     58                     59                     60
                      A                      A                      A
 Frequencies --   1457.4853              1506.7341              1507.6982
 Red. masses --      1.3413                 1.0588                 1.0652
 Frc consts  --      1.6788                 1.4162                 1.4266
 IR Inten    --      2.6693                 2.0061                 0.5937

                     61                     62                     63
                      A                      A                      A
 Frequencies --   1510.2548              1525.3079              1525.9121
 Red. masses --      1.0670                 1.0688                 1.0620
 Frc consts  --      1.4338                 1.4651                 1.4569
 IR Inten    --      3.5465                 4.6525                 3.3509

                     64                     65                     66
                      A                      A                      A
 Frequencies --   1531.0570              1533.5911              1539.4763
 Red. masses --      1.0615                 1.0609                 1.0821
 Frc consts  --      1.4661                 1.4701                 1.5110
 IR Inten    --     10.5688                 1.0864                10.1805

                     67                     68                     69
                      A                      A                      A
 Frequencies --   1542.9790              1557.0933              1860.8380
 Red. masses --      1.0806                 1.0582                10.2587
 Frc consts  --      1.5157                 1.5117                20.9295
 IR Inten    --      7.7805                 5.6741               257.7925

                     70                     71                     72
                      A                      A                      A
 Frequencies --   2980.0753              3013.3301              3028.7984
 Red. masses --      1.0672                 1.0632                 1.0629
 Frc consts  --      5.5840                 5.6881                 5.7452
 IR Inten    --     56.6741                53.4832                36.7836

                     73                     74                     75
                      A                      A                      A
 Frequencies --   3032.3042              3043.0770              3061.9024
 Red. masses --      1.0648                 1.0459                 1.0927
 Frc consts  --      5.7686                 5.7063                 6.0355
 IR Inten    --     71.3155                19.2600                15.0754

                     76                     77                     78
                      A                      A                      A
 Frequencies --   3063.3954              3065.6787              3072.9542
 Red. masses --      1.0970                 1.0365                 1.1010
 Frc consts  --      6.0656                 5.7394                 6.1257
 IR Inten    --     62.7551                15.7780                65.5494

                     79                     80                     81
                      A                      A                      A
 Frequencies --   3078.5802              3095.7802              3106.2405
 Red. masses --      1.0384                 1.0948                 1.0987
 Frc consts  --      5.7986                 6.1819                 6.2458
 IR Inten    --      1.5798                39.9730                44.9018

                     82                     83                     84
                      A                      A                      A
 Frequencies --   3133.3038              3149.7163              3151.3739
 Red. masses --      1.1029                 1.1024                 1.0993
 Frc consts  --      6.3798                 6.4436                 6.4323
 IR Inten    --     22.4391                15.5180                 4.8963

                     85                     86                     87
                      A                      A                      A
 Frequencies --   3158.7120              3166.9935              3689.7268
 Red. masses --      1.1016                 1.1035                 1.0641
 Frc consts  --      6.4757                 6.5209                 8.5355
 IR Inten    --     17.8282                14.1932                52.9177

 - Thermochemistry -
 -------------------
 Temperature   298.150 Kelvin.  Pressure   1.00000 Atm.
 Atom     1 has atomic number  6 and mass  12.00000

 Molecular mass:   190.12051 amu.
 Principal axes and moments of inertia in atomic units:
                           1         2         3
     Eigenvalues --  1583.401163517.584774254.05328
           X            0.99924   0.03792  -0.00951
           Y           -0.03780   0.99920   0.01270
           Z            0.00998  -0.01233   0.99987
 This molecule is an asymmetric top.
 Rotational symmetry number  1.
 Warning -- assumption of classical behavior for rotation
           may cause significant error
 Rotational temperatures (Kelvin)      0.05470     0.02462     0.02036
 Rotational constants (GHZ):           1.13979     0.51306     0.42424
 Zero-point vibrational energy     712734.4 (Joules/Mol)
                                  170.34762 (Kcal/Mol)
 Warning -- explicit consideration of  23 degrees of freedom as
           vibrations may cause significant error
 Vibrational temperatures:     43.13    59.51    76.61    81.40   102.58
          (Kelvin)            199.45   219.40   259.41   294.09   351.61
                              367.75   377.75   404.66   432.49   464.93
                              498.21   513.77   577.18   616.03   653.32
                              717.50   811.33   881.70   893.43  1053.98
                             1122.01  1126.69  1209.95  1226.26  1271.48
                             1332.12  1346.08  1359.37  1433.30  1443.24
                             1490.85  1547.37  1604.40  1606.62  1647.25
                             1668.18  1692.87  1726.14  1736.21  1778.61
                             1822.15  1846.88  1879.49  1898.49  1921.57
                             1978.47  2017.37  2028.44  2045.77  2057.00
                             2077.70  2088.18  2097.00  2167.85  2169.24
                             2172.92  2194.58  2195.45  2202.85  2206.50
                             2214.96  2220.00  2240.31  2677.33  4287.66
                             4335.51  4357.77  4362.81  4378.31  4405.39
                             4407.54  4410.83  4421.30  4429.39  4454.14
                             4469.19  4508.13  4531.74  4534.12  4544.68
                             4556.60  5308.69

 Zero-point correction=                           0.271466 (Hartree/Particle)
 Thermal correction to Energy=                    0.286935
 Thermal correction to Enthalpy=                  0.287879
 Thermal correction to Gibbs Free Energy=         0.227817
 Sum of electronic and zero-point Energies=           -654.456987
 Sum of electronic and thermal Energies=              -654.441518
 Sum of electronic and thermal Enthalpies=            -654.440574
 Sum of electronic and thermal Free Energies=         -654.500636

                     E (Thermal)             CV                S
                      KCal/Mol        Cal/Mol-Kelvin    Cal/Mol-Kelvin
 Total                  180.054             55.969            126.412
 Electronic               0.000              0.000              0.000
 Translational            0.889              2.981             41.633
 Rotational               0.889              2.981             31.539
 Vibrational            178.277             50.008             53.240
 Vibration     1          0.594              1.984              5.831
 Vibration     2          0.594              1.981              5.193
 Vibration     3          0.596              1.976              4.693
 Vibration     4          0.596              1.975              4.573
 Vibration     5          0.598              1.968              4.117
 Vibration     6          0.614              1.915              2.823
 Vibration     7          0.619              1.900              2.641
 Vibration     8          0.629              1.866              2.325
 Vibration     9          0.640              1.834              2.093
 Vibration    10          0.660              1.772              1.771
 Vibration    11          0.666              1.753              1.692
 Vibration    12          0.670              1.741              1.645
 Vibration    13          0.681              1.708              1.526
 Vibration    14          0.693              1.673              1.414
 Vibration    15          0.708              1.629              1.294
 Vibration    16          0.724              1.583              1.183
 Vibration    17          0.732              1.561              1.135
 Vibration    18          0.767              1.468              0.958
 Vibration    19          0.790              1.409              0.865
 Vibration    20          0.813              1.352              0.784
 Vibration    21          0.854              1.253              0.661
 Vibration    22          0.920              1.109              0.516
 Vibration    23          0.972              1.005              0.428

 Optimization completed.
    -- Stationary point found.

 1\1\GINC-NODE106\Freq\RB3LYP\6-31G(d)\C9H18O4\VSC10255\09-Dec-2020\0\\
 #N Geom=AllCheck Guess=TCheck SCRF=Check GenChk RB3LYP/6-31G(d) Freq\\
 CID_137797095_JID_3235_neutraal\\0,1\C,1.2814630188,-0.0689253715,0.04
 4593749\C,-0.0510419208,-0.3431783614,-0.6576325882\C,-0.3197616128,-1
 .8214508155,-0.9345491844\O,0.6255181857,-2.3673427015,-1.8511170909\C
 ,1.6128233934,-3.2087938727,-1.287714706\C,2.8145957077,-3.2252120822,
 -2.2135641288\O,3.4829502869,-1.9750264909,-2.1311356017\C,3.747214819
 8,-1.2677868077,-3.3353580585\C,4.7246352641,-2.0447294342,-4.23235091

 Normal termination of Gaussian 16 at Wed Dec  9 22:42:59 2020.

 ----------------------------------------------------------------------
 # B3LYP/6-311++G(d,p) empiricaldispersion=gd3bj scf=xqc pop=npa geom=c
 heck
 ----------------------------------------------------------------------

 ---------------------------------------
 CID_137797095_JID_3235_Energie_neutraal
 ---------------------------------------
 Structure from the checkpoint file:  "JID_3235.chk"
 Charge =  0 Multiplicity = 1

 SCF Done:  E(RB3LYP) =  -654.931172243     A.U. after   14 cycles
 Normal termination of Gaussian 16 at Wed Dec  9 22:47:11 2020.

 ----------------------------------------------------------------------
 # B3LYP/6-311++G(d,p) empiricaldispersion=gd3bj scf=xqc pop=npa geom=c
 heck
 ----------------------------------------------------------------------

 -------------------------------------
 CID_137797095_JID_3235_Energie_kation
 -------------------------------------
 Structure from the checkpoint file:  "JID_3235.chk"
 Charge =  1 Multiplicity = 2

 SCF Done:  E(UB3LYP) =  -654.603929916     A.U. after   25 cycles
 Normal termination of Gaussian 16 at Wed Dec  9 22:58:18 2020.
 Gaussian 16:  ES64L-G16RevA.03 25-Dec-2016

 ------------------------------------
 CID_137797095_JID_3235_Energie_anion
 ------------------------------------
 Structure from the checkpoint file:  "JID_3235.chk"
 Charge = -1 Multiplicity = 2

                         Standard orientation:
 ---------------------------------------------------------------------
 Center     Atomic      Atomic             Coordinates (Angstroms)
 Number     Number       Type             X           Y           Z
 ---------------------------------------------------------------------
      1          6           0        2.056447    1.904898   -0.661888
      2          6           0        2.817503    1.421104    0.575303
      3          6           0        3.199935   -0.057542    0.536131
      4          8           0        2.050524   -0.900454    0.536722
      5          6           0        1.731910   -1.506374   -0.700848
      6          6           0        0.256442   -1.859501   -0.696513
      7          8           0       -0.507884   -0.667567   -0.804007
      8          6           0       -1.525710   -0.426747    0.158391
      9          6           0       -2.641560   -1.479886    0.061620
     10          6           0       -0.965645   -0.316381    1.588862
     11          6           0       -2.073512    0.953390   -0.229914
     12          8           0       -1.598143    1.716493   -1.034507
     13          8           0       -3.188443    1.255003    0.488816
     14          1           0        2.652013    1.755711   -1.572030
     15          1           0        1.832518    2.974745   -0.587700
     16          1           0        1.107609    1.376291   -0.785485
     17          1           0        3.741066    2.003530    0.705093
     18          1           0        2.212606    1.592176    1.475721
     19          1           0        3.827903   -0.268508   -0.342336
     20          1           0        3.786195   -0.317165    1.426882
     21          1           0        1.929263   -0.828599   -1.541390
     22          1           0        2.328467   -2.422555   -0.852560
     23          1           0        0.031834   -2.507107   -1.555801
     24          1           0        0.026863   -2.420898    0.215484
     25          1           0       -2.249642   -2.465438    0.332454
     26          1           0       -3.465865   -1.240755    0.736985
     27          1           0       -3.025334   -1.530012   -0.962188
     28          1           0       -0.149335    0.408555    1.614975
     29          1           0       -1.754955   -0.009557    2.280010
     30          1           0       -0.566701   -1.277423    1.923694
     31          1           0       -3.447802    2.151441    0.205134
 ---------------------------------------------------------------------

 SCF Done:  E(UB3LYP) =  -654.915322645     A.U. after   33 cycles
 SCF Done:  E(UB3LYP) =  -654.915322645     a.u. after    1 cycles

 The electronic state is 2-A.
 Alpha  occ. eigenvalues --  -19.06766 -19.02420 -19.02402 -19.01504 -10.20327
 Alpha  occ. eigenvalues --  -10.14894 -10.11946 -10.11938 -10.11804 -10.07076
 Alpha  occ. eigenvalues --  -10.06677 -10.06452 -10.05315  -1.01021  -0.94835
 Alpha  occ. eigenvalues --   -0.93274  -0.91783  -0.71064  -0.68588  -0.64310
 Alpha  occ. eigenvalues --   -0.60068  -0.58197  -0.56054  -0.52061  -0.49016
 Alpha  occ. eigenvalues --   -0.46968  -0.41894  -0.39945  -0.39144  -0.38641
 Alpha  occ. eigenvalues --   -0.37690  -0.36932  -0.36054  -0.33334  -0.32897
 Alpha  occ. eigenvalues --   -0.32397  -0.31931  -0.30729  -0.30051  -0.29042
 Alpha  occ. eigenvalues --   -0.28846  -0.28198  -0.26303  -0.26078  -0.24667
 Alpha  occ. eigenvalues --   -0.24576  -0.22511  -0.22205  -0.21328  -0.17909
 Alpha  occ. eigenvalues --   -0.16391  -0.15998   0.04513
 Alpha virt. eigenvalues --    0.06135   0.06677   0.07732   0.08313   0.09188
 Alpha virt. eigenvalues --    0.09367   0.09737   0.10069   0.10883   0.11114
 Alpha virt. eigenvalues --    0.11799   0.12274   0.12434   0.13261   0.14379

  Beta  occ. eigenvalues --  -19.06714 -19.02420 -19.02392 -19.01487 -10.20325
  Beta  occ. eigenvalues --  -10.14885 -10.11932 -10.11914 -10.11786 -10.07065
  Beta  occ. eigenvalues --  -10.06643 -10.06435 -10.05306  -1.00961  -0.94819
  Beta  occ. eigenvalues --   -0.93254  -0.91734  -0.71034  -0.68563  -0.64280
  Beta  occ. eigenvalues --   -0.60021  -0.58161  -0.55984  -0.51990  -0.48974
  Beta  occ. eigenvalues --   -0.46901  -0.41855  -0.39906  -0.39097  -0.38608
  Beta  occ. eigenvalues --   -0.37657  -0.36900  -0.36013  -0.33300  -0.32877
  Beta  occ. eigenvalues --   -0.32369  -0.31896  -0.30696  -0.30023  -0.29014
  Beta  occ. eigenvalues --   -0.28812  -0.28159  -0.26277  -0.26056  -0.24650
  Beta  occ. eigenvalues --   -0.24545  -0.22470  -0.22166  -0.21302  -0.17842
  Beta  occ. eigenvalues --   -0.16376  -0.15966
  Beta virt. eigenvalues --    0.06583   0.07296   0.07648   0.08280   0.08908
  Beta virt. eigenvalues --    0.09461   0.09722   0.09894   0.10494   0.11121
  Beta virt. eigenvalues --    0.11569   0.12090   0.12534   0.12713   0.13417

 Mulliken charges and spin densities:
               1          2
     1  C    0.059755  -0.578356
     2  C   -0.633219   0.525724
     3  C    0.540539  -0.864720
     4  O   -0.093673   0.031128
     5  C   -0.000011  -0.410721
     6  C    0.405013  -0.478716
     7  O   -0.006295   0.030810
     8  C   -0.728021   0.489337
     9  C    0.633777  -1.120995
    10  C    0.500781  -0.976007
    11  C    0.022024   0.074097
    12  O   -0.234952  -0.012849
    13  O   -0.218136   0.084923
    14  H   -0.019060   0.135421
    15  H    0.029161   0.105400
    16  H    0.404416  -0.222577
    17  H   -0.130608   0.256939
    18  H    0.032390   0.113511
    19  H   -0.079182   0.212902
    20  H   -0.129386   0.271510
    21  H    0.140937   0.017800
    22  H   -0.623909   0.774347
    23  H   -0.227252   0.390796
    24  H    0.193658  -0.025071
    25  H   -0.365814   0.506722
    26  H   -0.127985   0.305310
    27  H   -0.079734   0.260511
    28  H    0.318008  -0.104767
    29  H    0.021977   0.152749
    30  H   -0.131943   0.277342
    31  H   -0.473253   0.777499
 Sum of Mulliken charges =  -1.00000   1.00000

 Dipole moment (field-independent basis, Debye):
    X=              2.7939    Y=              0.3017    Z=              0.3962  Tot=              2.8379
 Quadrupole moment (field-independent basis, Debye-Ang):
   XX=           -149.8711   YY=           -131.5705   ZZ=           -111.2367
   XY=             10.7716   XZ=              1.7670   YZ=             -0.9338

 Summary of Natural Population Analysis:

                                       Natural Population
                Natural  -----------------------------------------------
    Atom  No    Charge         Core      Valence    Rydberg      Total
 -----------------------------------------------------------------------
      C    1   -0.29407      0.99966     2.28954    0.00488     3.29407
      C    2   -0.20160      0.99964     2.19416    0.00781     3.20160
      C    3   -0.00386      0.99957     1.99218    0.01211     3.00386
      O    4   -0.30971      0.99988     3.29822    0.01161     4.30971
      C    5   -0.01436      0.99956     2.00222    0.01258     3.01436
      C    6   -0.01978      0.99955     2.00662    0.01361     3.01978
      O    7   -0.30477      0.99986     3.29343    0.01148     4.30477
      C    8    0.09894      0.99950     1.88500    0.01656     2.90106
      C    9   -0.29680      0.99962     2.29017    0.00701     3.29680
      C   10   -0.29688      0.99961     2.29020    0.00707     3.29688
      C   11    0.40683      0.99964     1.56624    0.02729     2.59317
      O   12   -0.29384      0.99986     3.28746    0.00652     4.29384
      O   13   -0.34941      0.99988     3.34209    0.00744     4.34941
      H   14    0.09069      0.00000     0.40829    0.00103     0.40931
      H   15    0.09788      0.00000     0.40129    0.00084     0.40212
      H   16    0.11561      0.00000     0.38235    0.00204     0.38439
      H   17    0.09247      0.00000     0.40631    0.00122     0.40753
      H   18    0.09581      0.00000     0.40294    0.00125     0.40419
      H   19    0.07766      0.00000     0.42085    0.00150     0.42234
      H   20    0.08605      0.00000     0.41278    0.00118     0.41395
      H   21    0.08524      0.00000     0.41304    0.00172     0.41476
      H   22    0.08060      0.00000     0.41769    0.00171     0.41940
      H   23    0.08771      0.00000     0.41096    0.00133     0.41229
      H   24    0.08769      0.00000     0.41031    0.00200     0.41231
      H   25    0.10146      0.00000     0.39720    0.00134     0.39854
      H   26    0.11073      0.00000     0.38778    0.00148     0.38927
      H   27    0.10516      0.00000     0.39364    0.00120     0.39484
      H   28    0.10935      0.00000     0.38888    0.00177     0.39065
      H   29    0.10717      0.00000     0.39159    0.00124     0.39283
      H   30    0.10351      0.00000     0.39523    0.00126     0.39649
      H   31    0.24453      0.00000     0.23808    0.01739     0.25547
 =======================================================================
   * Total *    0.00000     12.99583    38.81673    0.18744    52.00000

 Normal termination of Gaussian 16 at Wed Dec  9 23:12:25 2020.
