 Gaussian 16, Revision A.03,

 -----------------------------------------------------------
 # opt freq B3LYP/6-31G(d) empiricaldispersion=gd3bj scf=xqc
 -----------------------------------------------------------

 ------------------------------
 CID_79848207_JID_6201_neutraal
 ------------------------------
 Symbolic Z-matrix:
 Charge =  0 Multiplicity = 1

 SCF Done:  E(RB3LYP) =  -715.724737287     A.U. after   14 cycles
 SCF Done:  E(RB3LYP) =  -715.727949215     A.U. after   12 cycles
 SCF Done:  E(RB3LYP) =  -715.720666630     A.U. after   13 cycles
 SCF Done:  E(RB3LYP) =  -715.727901778     A.U. after   12 cycles
 SCF Done:  E(RB3LYP) =  -715.729613065     A.U. after    9 cycles
 SCF Done:  E(RB3LYP) =  -715.729980229     A.U. after   12 cycles
 SCF Done:  E(RB3LYP) =  -715.730108072     A.U. after   12 cycles
 SCF Done:  E(RB3LYP) =  -715.730355661     A.U. after   12 cycles
 SCF Done:  E(RB3LYP) =  -715.730454512     A.U. after   10 cycles
 SCF Done:  E(RB3LYP) =  -715.730483615     A.U. after    9 cycles
 SCF Done:  E(RB3LYP) =  -715.730489019     A.U. after    9 cycles
 SCF Done:  E(RB3LYP) =  -715.730489528     A.U. after    8 cycles
 SCF Done:  E(RB3LYP) =  -715.730489689     A.U. after    8 cycles
 SCF Done:  E(RB3LYP) =  -715.730489721     A.U. after    7 cycles
 SCF Done:  E(RB3LYP) =  -715.730489723     A.U. after    7 cycles
 Optimization completed.
    -- Stationary point found.
 Normal termination of Gaussian 16 at Thu Dec 10 21:27:49 2020.

 --------------------------------------------------------------------
 #N Geom=AllCheck Guess=TCheck SCRF=Check GenChk RB3LYP/6-31G(d) Freq
 --------------------------------------------------------------------

 Structure from the checkpoint file:  "JID_6201.chk"
 ------------------------------
 CID_79848207_JID_6201_neutraal
 ------------------------------
 Charge =  0 Multiplicity = 1

 SCF Done:  E(RB3LYP) =  -715.730489723     A.U. after    1 cycles

  Exact polarizability: 153.378   6.612 142.556   1.124  -1.383 136.969
 Approx polarizability: 206.334   7.301 197.588   1.786  -5.603 204.057

                      1                      2                      3
                      A                      A                      A
 Frequencies --     18.5527                58.4085                65.7661
 Red. masses --      3.6086                 2.8136                 3.7053
 Frc consts  --      0.0007                 0.0057                 0.0094
 IR Inten    --      0.4519                 0.2221                 0.7791

                      4                      5                      6
                      A                      A                      A
 Frequencies --     99.2752               111.6811               134.6083
 Red. masses --      2.9771                 3.2949                 3.9174
 Frc consts  --      0.0173                 0.0242                 0.0418
 IR Inten    --      1.3422                 0.6019                 0.3197

                      7                      8                      9
                      A                      A                      A
 Frequencies --    158.7480               188.2746               235.4160
 Red. masses --      2.7309                 3.2557                 1.6574
 Frc consts  --      0.0405                 0.0680                 0.0541
 IR Inten    --      0.1260                 5.3182                 2.7758

                     10                     11                     12
                      A                      A                      A
 Frequencies --    243.3731               254.4048               268.1588
 Red. masses --      1.4887                 1.8339                 1.1101
 Frc consts  --      0.0520                 0.0699                 0.0470
 IR Inten    --      2.4346                 0.5432                 0.2113

                     13                     14                     15
                      A                      A                      A
 Frequencies --    270.2810               287.9274               291.1789
 Red. masses --      1.4393                 1.7474                 1.9603
 Frc consts  --      0.0620                 0.0854                 0.0979
 IR Inten    --      1.5381                 0.6010                 2.7068

                     16                     17                     18
                      A                      A                      A
 Frequencies --    313.4308               317.5837               337.4817
 Red. masses --      2.1188                 1.8752                 1.8667
 Frc consts  --      0.1226                 0.1114                 0.1253
 IR Inten    --      0.9377                 1.5191                23.4876

                     19                     20                     21
                      A                      A                      A
 Frequencies --    340.5344               351.7915               371.6694
 Red. masses --      1.4037                 2.5439                 2.2547
 Frc consts  --      0.0959                 0.1855                 0.1835
 IR Inten    --     25.9907                 4.1664                 0.5701

                     22                     23                     24
                      A                      A                      A
 Frequencies --    402.4772               425.2764               449.0631
 Red. masses --      2.4220                 2.4839                 2.5277
 Frc consts  --      0.2312                 0.2647                 0.3003
 IR Inten    --      0.3221                 3.8019                 3.5081

                     25                     26                     27
                      A                      A                      A
 Frequencies --    464.1498               474.0239               485.1734
 Red. masses --      2.4606                 3.1958                 2.4259
 Frc consts  --      0.3123                 0.4231                 0.3365
 IR Inten    --      2.9773                 3.6135                 3.8916

                     28                     29                     30
                      A                      A                      A
 Frequencies --    500.1591               538.5594               651.6397
 Red. masses --      2.3736                 2.9194                 3.7005
 Frc consts  --      0.3498                 0.4989                 0.9258
 IR Inten    --      2.0655                 0.8707                15.7809

                     31                     32                     33
                      A                      A                      A
 Frequencies --    740.2647               791.8907               808.3458
 Red. masses --      3.0571                 2.6852                 2.2313
 Frc consts  --      0.9870                 0.9921                 0.8590
 IR Inten    --      6.2640                 7.5330                 2.0628

                     34                     35                     36
                      A                      A                      A
 Frequencies --    825.0137               857.5518               860.4357
 Red. masses --      1.9889                 1.8017                 2.2244
 Frc consts  --      0.7976                 0.7806                 0.9703
 IR Inten    --      5.8132                 1.8735                 9.3370

                     37                     38                     39
                      A                      A                      A
 Frequencies --    868.0243               894.1786               921.4251
 Red. masses --      2.4229                 2.3903                 2.1538
 Frc consts  --      1.0756                 1.1260                 1.0774
 IR Inten    --      1.6879                49.5201                13.4393

                     40                     41                     42
                      A                      A                      A
 Frequencies --    934.7119               949.6979               954.9813
 Red. masses --      1.8170                 1.9292                 1.9172
 Frc consts  --      0.9353                 1.0252                 1.0301
 IR Inten    --     34.2570                14.7620                23.7881

                     43                     44                     45
                      A                      A                      A
 Frequencies --    955.2418               964.3112               982.8525
 Red. masses --      1.9915                 1.6135                 1.8844
 Frc consts  --      1.0707                 0.8840                 1.0725
 IR Inten    --     16.0290                 5.6372                13.6658

                     46                     47                     48
                      A                      A                      A
 Frequencies --   1006.5950              1027.1990              1044.7424
 Red. masses --      1.6294                 1.5107                 1.7117
 Frc consts  --      0.9727                 0.9392                 1.1008
 IR Inten    --      1.0003                 1.8350                 9.6816

                     49                     50                     51
                      A                      A                      A
 Frequencies --   1062.4226              1073.6998              1096.6257
 Red. masses --      3.0553                 1.6489                 1.9838
 Frc consts  --      2.0319                 1.1200                 1.4056
 IR Inten    --     15.2916                 3.3285                 4.2503

                     52                     53                     54
                      A                      A                      A
 Frequencies --   1112.6756              1128.7897              1133.9396
 Red. masses --      2.6280                 2.0515                 2.0633
 Frc consts  --      1.9170                 1.5401                 1.5632
 IR Inten    --      8.1728                18.7374                66.1270

                     55                     56                     57
                      A                      A                      A
 Frequencies --   1181.7671              1184.6456              1203.5609
 Red. masses --      2.0037                 1.7566                 1.5999
 Frc consts  --      1.6487                 1.4524                 1.3655
 IR Inten    --      4.9642               115.8657                 2.7343

                     58                     59                     60
                      A                      A                      A
 Frequencies --   1210.1262              1242.4920              1256.3763
 Red. masses --      1.7180                 2.8779                 1.7200
 Frc consts  --      1.4823                 2.6176                 1.5996
 IR Inten    --     15.8698               126.2568                 6.2671

                     61                     62                     63
                      A                      A                      A
 Frequencies --   1266.8833              1286.3788              1310.7193
 Red. masses --      1.9580                 1.7591                 1.4651
 Frc consts  --      1.8516                 1.7151                 1.4829
 IR Inten    --     11.2342                53.8423                 1.7466

                     64                     65                     66
                      A                      A                      A
 Frequencies --   1329.1020              1343.2209              1346.4520
 Red. masses --      1.3612                 1.2784                 1.1496
 Frc consts  --      1.4167                 1.3589                 1.2280
 IR Inten    --      4.9910                 7.7958                16.9846

                     67                     68                     69
                      A                      A                      A
 Frequencies --   1353.2003              1379.6506              1383.0118
 Red. masses --      1.4820                 1.6847                 1.4305
 Frc consts  --      1.5989                 1.8894                 1.6121
 IR Inten    --      2.0494                59.6000                13.6198

                     70                     71                     72
                      A                      A                      A
 Frequencies --   1409.1622              1415.7056              1422.0504
 Red. masses --      1.4955                 1.3576                 1.3448
 Frc consts  --      1.7497                 1.6032                 1.6023
 IR Inten    --     11.4163                 0.5260                 9.6654

                     73                     74                     75
                      A                      A                      A
 Frequencies --   1423.8307              1430.5800              1437.8854
 Red. masses --      1.4775                 1.2378                 1.2401
 Frc consts  --      1.7648                 1.4925                 1.5106
 IR Inten    --     10.7047                 3.6487                 3.1453

                     76                     77                     78
                      A                      A                      A
 Frequencies --   1444.9823              1454.2456              1488.3537
 Red. masses --      1.3270                 1.2286                 1.0923
 Frc consts  --      1.6325                 1.5309                 1.4256
 IR Inten    --      5.4666                 4.7840                 6.3898

                     79                     80                     81
                      A                      A                      A
 Frequencies --   1513.8675              1514.4394              1517.5966
 Red. masses --      1.0688                 1.0598                 1.0813
 Frc consts  --      1.4432                 1.4321                 1.4672
 IR Inten    --      1.1034                 9.1416                 1.6376

                     82                     83                     84
                      A                      A                      A
 Frequencies --   1518.5456              1522.4217              1525.6317
 Red. masses --      1.0686                 1.0485                 1.0684
 Frc consts  --      1.4518                 1.4319                 1.4651
 IR Inten    --      5.8295                 1.2930                 4.1610

                     85                     86                     87
                      A                      A                      A
 Frequencies --   1528.9425              1532.2678              1535.4547
 Red. masses --      1.0575                 1.0614                 1.0555
 Frc consts  --      1.4565                 1.4682                 1.4661
 IR Inten    --      0.6179                11.4289                 5.9522

                     88                     89                     90
                      A                      A                      A
 Frequencies --   1538.4084              1542.1431              1548.2926
 Red. masses --      1.0590                 1.0721                 1.0538
 Frc consts  --      1.4767                 1.5022                 1.4883
 IR Inten    --      6.1485                 1.3711                 6.1715

                     91                     92                     93
                      A                      A                      A
 Frequencies --   1695.6548              1801.8644              3007.3105
 Red. masses --      1.0885                10.5294                 1.0821
 Frc consts  --      1.8439                20.1418                 5.7661
 IR Inten    --     30.1254               164.8927                11.9786

                     94                     95                     96
                      A                      A                      A
 Frequencies --   3018.4550              3035.8637              3037.4838
 Red. masses --      1.0680                 1.0381                 1.0476
 Frc consts  --      5.7334                 5.6369                 5.6948
 IR Inten    --     30.6180                22.3667                 2.4434

                     97                     98                     99
                      A                      A                      A
 Frequencies --   3039.7321              3043.1160              3046.9661
 Red. masses --      1.0484                 1.0577                 1.0607
 Frc consts  --      5.7073                 5.7710                 5.8019
 IR Inten    --     43.3745                77.4665                44.0501

                    100                    101                    102
                      A                      A                      A
 Frequencies --   3050.3647              3064.1906              3081.8630
 Red. masses --      1.0690                 1.0373                 1.0951
 Frc consts  --      5.8602                 5.7386                 6.1281
 IR Inten    --      8.1249                15.2664                14.3279

                    103                    104                    105
                      A                      A                      A
 Frequencies --   3094.7405              3095.2762              3102.8573
 Red. masses --      1.0590                 1.1011                 1.1023
 Frc consts  --      5.9757                 6.2152                 6.2526
 IR Inten    --     30.0964                17.6900                30.8150

                    106                    107                    108
                      A                      A                      A
 Frequencies --   3105.1966              3107.2251              3112.2448
 Red. masses --      1.1015                 1.1021                 1.1004
 Frc consts  --      6.2575                 6.2693                 6.2797
 IR Inten    --     52.3532                50.9159                10.5366

                    109                    110                    111
                      A                      A                      A
 Frequencies --   3116.1002              3121.4858              3131.1613
 Red. masses --      1.0940                 1.0917                 1.1003
 Frc consts  --      6.2585                 6.2670                 6.3560
 IR Inten    --      1.3118                67.0707                26.3369

                    112                    113                    114
                      A                      A                      A
 Frequencies --   3141.8174              3143.8187              3157.0806
 Red. masses --      1.1051                 1.0935                 1.0957
 Frc consts  --      6.4272                 6.3679                 6.4346
 IR Inten    --      4.3795                10.6887                 6.9512

                    115                    116                    117
                      A                      A                      A
 Frequencies --   3163.1036              3436.9498              3523.9887
 Red. masses --      1.1063                 1.0499                 1.0914
 Frc consts  --      6.5213                 7.3074                 7.9854
 IR Inten    --     25.3452                 3.6962                 2.9984

 - Thermochemistry -
 -------------------
 Temperature   298.150 Kelvin.  Pressure   1.00000 Atm.
 Atom     1 has atomic number  6 and mass  12.00000

 Molecular mass:   227.18853 amu.
 Principal axes and moments of inertia in atomic units:
                           1         2         3
     Eigenvalues --  2912.870254257.034964569.03179
           X            0.99975   0.02237  -0.00029
           Y           -0.02237   0.99940  -0.02649
           Z           -0.00030   0.02649   0.99965
 This molecule is an asymmetric top.
 Rotational symmetry number  1.
 Warning -- assumption of classical behavior for rotation
           may cause significant error
 Rotational temperatures (Kelvin)      0.02973     0.02035     0.01896
 Rotational constants (GHZ):           0.61957     0.42394     0.39499
 Zero-point vibrational energy     981673.5 (Joules/Mol)
                                  234.62559 (Kcal/Mol)
 Warning -- explicit consideration of  29 degrees of freedom as
           vibrations may cause significant error
 Vibrational temperatures:     26.69    84.04    94.62   142.83   160.68
          (Kelvin)            193.67   228.40   270.89   338.71   350.16
                              366.03   385.82   388.87   414.26   418.94
                              450.96   456.93   485.56   489.95   506.15
                              534.75   579.07   611.88   646.10   667.81
                              682.01   698.06   719.62   774.87   937.56
                             1065.08  1139.35  1163.03  1187.01  1233.83
                             1237.98  1248.89  1286.52  1325.73  1344.84
                             1366.40  1374.01  1374.38  1387.43  1414.11
                             1448.27  1477.91  1503.15  1528.59  1544.81
                             1577.80  1600.89  1624.08  1631.49  1700.30
                             1704.44  1731.66  1741.10  1787.67  1807.65
                             1822.76  1850.81  1885.83  1912.28  1932.60
                             1937.24  1946.95  1985.01  1989.85  2027.47
                             2036.88  2046.01  2048.57  2058.29  2068.80
                             2079.01  2092.34  2141.41  2178.12  2178.94
                             2183.48  2184.85  2190.43  2195.04  2199.81
                             2204.59  2209.18  2213.43  2218.80  2227.65
                             2439.67  2592.48  4326.85  4342.88  4367.93
                             4370.26  4373.50  4378.37  4383.90  4388.79
                             4408.69  4434.11  4452.64  4453.41  4464.32
                             4467.69  4470.60  4477.83  4483.37  4491.12
                             4505.04  4520.37  4523.25  4542.33  4551.00
                             4945.00  5070.23

 Zero-point correction=                           0.373900 (Hartree/Particle)
 Thermal correction to Energy=                    0.391669
 Thermal correction to Enthalpy=                  0.392613
 Thermal correction to Gibbs Free Energy=         0.329240
 Sum of electronic and zero-point Energies=           -715.356590
 Sum of electronic and thermal Energies=              -715.338821
 Sum of electronic and thermal Enthalpies=            -715.337877
 Sum of electronic and thermal Free Energies=         -715.401250

                     E (Thermal)             CV                S
                      KCal/Mol        Cal/Mol-Kelvin    Cal/Mol-Kelvin
 Total                  245.776             69.403            133.380
 Electronic               0.000              0.000              0.000
 Translational            0.889              2.981             42.164
 Rotational               0.889              2.981             32.405
 Vibrational            243.998             63.441             58.811
 Vibration     1          0.593              1.986              6.783
 Vibration     2          0.596              1.974              4.510
 Vibration     3          0.597              1.971              4.276
 Vibration     4          0.604              1.950              3.468
 Vibration     5          0.607              1.940              3.239
 Vibration     6          0.613              1.919              2.879
 Vibration     7          0.621              1.893              2.565
 Vibration     8          0.633              1.856              2.245
 Vibration     9          0.655              1.787              1.837
 Vibration    10          0.659              1.774              1.778
 Vibration    11          0.665              1.755              1.700
 Vibration    12          0.673              1.732              1.608
 Vibration    13          0.674              1.728              1.594
 Vibration    14          0.685              1.696              1.486
 Vibration    15          0.687              1.690              1.467
 Vibration    16          0.701              1.648              1.344
 Vibration    17          0.704              1.640              1.323
 Vibration    18          0.718              1.601              1.224
 Vibration    19          0.720              1.594              1.210
 Vibration    20          0.728              1.572              1.158
 Vibration    21          0.743              1.530              1.073
 Vibration    22          0.768              1.465              0.954
 Vibration    23          0.787              1.415              0.874
 Vibration    24          0.808              1.363              0.799
 Vibration    25          0.822              1.330              0.754
 Vibration    26          0.831              1.308              0.726
 Vibration    27          0.841              1.283              0.696
 Vibration    28          0.856              1.250              0.658
 Vibration    29          0.894              1.165              0.568

                           ! Non-Optimized Parameters !
 Normal termination of Gaussian 16 at Thu Dec 10 21:47:32 2020.

 ----------------------------------------------------------------------
 # B3LYP/6-311++G(d,p) empiricaldispersion=gd3bj scf=xqc pop=npa geom=c
 heck
 ----------------------------------------------------------------------

 --------------------------------------
 CID_79848207_JID_6201_Energie_neutraal
 --------------------------------------
 Structure from the checkpoint file:  "JID_6201.chk"
 Charge =  0 Multiplicity = 1

 SCF Done:  E(RB3LYP) =  -715.939449253     A.U. after   14 cycles
 Normal termination of Gaussian 16 at Thu Dec 10 21:57:09 2020.

 ----------------------------------------------------------------------
 # B3LYP/6-311++G(d,p) empiricaldispersion=gd3bj scf=xqc pop=npa geom=c
 heck
 ----------------------------------------------------------------------

 ------------------------------------
 CID_79848207_JID_6201_Energie_kation
 ------------------------------------
 Structure from the checkpoint file:  "JID_6201.chk"
 Charge =  1 Multiplicity = 2

 SCF Done:  E(UB3LYP) =  -715.616491281     A.U. after   24 cycles
 Normal termination of Gaussian 16 at Thu Dec 10 22:20:40 2020.
 Gaussian 16:  ES64L-G16RevA.03 25-Dec-2016

 ----------------------------------------------------------------------
 # B3LYP/6-311++G(d,p) empiricaldispersion=gd3bj scf=xqc pop=npa geom=c
 heck
 ----------------------------------------------------------------------

 -----------------------------------
 CID_79848207_JID_6201_Energie_anion
 -----------------------------------
 Structure from the checkpoint file:  "JID_6201.chk"
 Charge = -1 Multiplicity = 2

                         Standard orientation:
 ---------------------------------------------------------------------
 Center     Atomic      Atomic             Coordinates (Angstroms)
 Number     Number       Type             X           Y           Z
 ---------------------------------------------------------------------
      1          6           0        3.356678    1.344951    0.533319
      2          6           0        3.570927    0.051069   -0.235267
      3          8           0        2.367028   -0.376071   -0.917261
      4          6           0        1.473055   -1.079374   -0.184719
      5          8           0        1.642253   -1.343056    0.989761
      6          6           0        0.321584   -1.563083   -1.040722
      7          6           0       -1.154255   -1.247540   -0.634190
      8          6           0       -1.391995   -1.279807    0.903936
      9          6           0       -1.486931    0.105592    1.593259
     10          6           0       -0.666813    1.167656    0.852453
     11          6           0       -1.149948    1.405213   -0.598431
     12          6           0       -1.679064    0.081223   -1.215412
     13          6           0       -0.007048    1.989104   -1.445527
     14          6           0       -2.305685    2.423579   -0.591247
     15          6           0       -1.072952    0.004656    3.063781
     16          7           0       -1.911587   -2.304571   -1.347532
     17          1           0        2.971377    2.130098   -0.124220
     18          1           0        4.309691    1.683827    0.955299
     19          1           0        2.651898    1.194464    1.354613
     20          1           0        4.299166    0.179465   -1.039220
     21          1           0        3.898352   -0.752442    0.428749
     22          1           0        0.478253   -1.257463   -2.076423
     23          1           0        0.422483   -2.655988   -1.014327
     24          1           0       -2.333475   -1.814691    1.081801
     25          1           0       -0.601920   -1.867279    1.379493
     26          1           0       -2.538699    0.425599    1.560254
     27          1           0        0.384604    0.867540    0.859108
     28          1           0       -0.708589    2.117069    1.403258
     29          1           0       -1.524816    0.077073   -2.300546
     30          1           0       -2.768144    0.052916   -1.067490
     31          1           0       -0.365768    2.260596   -2.446036
     32          1           0        0.392129    2.897788   -0.976916
     33          1           0        0.819461    1.284720   -1.561701
     34          1           0       -3.116115    2.104981    0.075060
     35          1           0       -1.957196    3.406552   -0.252518
     36          1           0       -2.728291    2.544087   -1.596180
     37          1           0       -1.212411    0.959561    3.584676
     38          1           0       -1.661458   -0.755893    3.591062
     39          1           0       -0.016326   -0.277411    3.139822
     40          1           0       -1.723662   -3.202983   -0.899666
     41          1           0       -2.908998   -2.136616   -1.212626
 ---------------------------------------------------------------------

 SCF Done:  E(UB3LYP) =  -715.925379715     A.U. after   33 cycles
 SCF Done:  E(UB3LYP) =  -715.925379715     a.u. after    1 cycles

 The electronic state is 2-A.
 Alpha  occ. eigenvalues --  -19.07813 -19.02104 -14.19863 -10.21334 -10.13647
 Alpha  occ. eigenvalues --  -10.12191 -10.08969 -10.08613 -10.07306 -10.07276
 Alpha  occ. eigenvalues --  -10.06711 -10.06181 -10.06117 -10.05982 -10.05919
 Alpha  occ. eigenvalues --  -10.05722  -1.01771  -0.93050  -0.80662  -0.73887
 Alpha  occ. eigenvalues --   -0.69531  -0.68812  -0.65905  -0.61957  -0.58885
 Alpha  occ. eigenvalues --   -0.58278  -0.58078  -0.56232  -0.49586  -0.47429
 Alpha  occ. eigenvalues --   -0.46222  -0.43359  -0.40887  -0.40259  -0.39552
 Alpha  occ. eigenvalues --   -0.38427  -0.37113  -0.36699  -0.35344  -0.34249
 Alpha  occ. eigenvalues --   -0.33574  -0.32976  -0.32571  -0.31685  -0.30743
 Alpha  occ. eigenvalues --   -0.30573  -0.29990  -0.28679  -0.28098  -0.27749
 Alpha  occ. eigenvalues --   -0.26953  -0.26839  -0.25395  -0.25073  -0.24603
 Alpha  occ. eigenvalues --   -0.24075  -0.23642  -0.21704  -0.21283  -0.20560
 Alpha  occ. eigenvalues --   -0.20229  -0.18699  -0.15175   0.04189
 Alpha virt. eigenvalues --    0.05689   0.06780   0.07374   0.07775   0.08229
 Alpha virt. eigenvalues --    0.08720   0.09104   0.09294   0.09859   0.10497
 Alpha virt. eigenvalues --    0.10658   0.11249   0.11731   0.12000   0.12340

  Beta  occ. eigenvalues --  -19.07811 -19.02097 -14.19832 -10.21331 -10.13626
  Beta  occ. eigenvalues --  -10.12190 -10.08957 -10.08610 -10.07296 -10.07246
  Beta  occ. eigenvalues --  -10.06694 -10.06173 -10.06095 -10.05965 -10.05907
  Beta  occ. eigenvalues --  -10.05708  -1.01763  -0.93041  -0.80625  -0.73865
  Beta  occ. eigenvalues --   -0.69501  -0.68789  -0.65866  -0.61925  -0.58848
  Beta  occ. eigenvalues --   -0.58252  -0.58044  -0.56182  -0.49542  -0.47392
  Beta  occ. eigenvalues --   -0.46191  -0.43331  -0.40861  -0.40231  -0.39526
  Beta  occ. eigenvalues --   -0.38393  -0.37082  -0.36667  -0.35320  -0.34221
  Beta  occ. eigenvalues --   -0.33550  -0.32945  -0.32548  -0.31660  -0.30716
  Beta  occ. eigenvalues --   -0.30538  -0.29968  -0.28652  -0.28071  -0.27727
  Beta  occ. eigenvalues --   -0.26929  -0.26817  -0.25374  -0.25052  -0.24582
  Beta  occ. eigenvalues --   -0.24056  -0.23616  -0.21687  -0.21264  -0.20539
  Beta  occ. eigenvalues --   -0.20208  -0.18687  -0.15146
  Beta virt. eigenvalues --    0.06258   0.06884   0.07194   0.07698   0.08168
  Beta virt. eigenvalues --    0.08679   0.09075   0.09451   0.09579   0.10083
  Beta virt. eigenvalues --    0.10866   0.11036   0.11620   0.11888   0.12176

 Mulliken charges and spin densities:
               1          2
     1  C    0.111620  -0.597810
     2  C    0.551526  -0.591899
     3  O    0.106387   0.013763
     4  C   -1.112720   0.500326
     5  O   -0.148813   0.006002
     6  C    0.260555  -0.593731
     7  C    1.666118  -1.788469
     8  C   -1.033212   0.654791
     9  C   -0.063408   0.026306
    10  C    0.452781  -0.501011
    11  C   -1.083358   1.619458
    12  C   -0.343404  -0.143916
    13  C    0.151165  -0.779415
    14  C    0.477087  -1.139592
    15  C    0.016263  -0.740231
    16  N   -0.409941   0.177437
    17  H    0.210208  -0.054981
    18  H   -0.809035   0.976575
    19  H    0.006230   0.174761
    20  H   -0.474838   0.658247
    21  H    0.112996   0.038492
    22  H    0.167325   0.069488
    23  H   -0.030226   0.188786
    24  H   -0.272935   0.449749
    25  H    0.143655   0.061647
    26  H    0.072673   0.114187
    27  H    0.488650  -0.412438
    28  H    0.127021   0.090766
    29  H    0.107811   0.099224
    30  H   -0.042175   0.215466
    31  H    0.112539   0.028557
    32  H   -0.194346   0.338061
    33  H    0.207929  -0.036486
    34  H   -0.257674   0.399756
    35  H   -0.011846   0.144086
    36  H   -0.087979   0.236123
    37  H   -0.082702   0.208307
    38  H   -0.099155   0.242492
    39  H    0.124558   0.043613
    40  H    0.004504   0.242001
    41  H   -0.121835   0.361514
 Sum of Mulliken charges =  -1.00000   1.00000

 Dipole moment (field-independent basis, Debye):
    X=             -0.0942    Y=             -0.8078    Z=             -0.4531  Tot=              0.9309
 Quadrupole moment (field-independent basis, Debye-Ang):
   XX=           -186.4758   YY=           -148.3021   ZZ=           -144.3262
   XY=            -12.0278   XZ=             -2.0586   YZ=             -1.1110

 Summary of Natural Population Analysis:

                                       Natural Population
                Natural  -----------------------------------------------
    Atom  No    Charge         Core      Valence    Rydberg      Total
 -----------------------------------------------------------------------
      C    1   -0.29945      0.99966     2.29477    0.00502     3.29945
      C    2   -0.01645      0.99957     2.00488    0.01201     3.01645
      O    3   -0.28256      0.99986     3.27350    0.00920     4.28256
      C    4    0.41384      0.99967     1.56070    0.02579     2.58616
      O    5   -0.31207      0.99987     3.30683    0.00537     4.31207
      C    6   -0.23831      0.99952     2.22787    0.01093     3.23831
      C    7    0.06316      0.99956     1.92426    0.01302     2.93684
      C    8   -0.20021      0.99957     2.18941    0.01124     3.20021
      C    9   -0.11320      0.99959     2.10307    0.01054     3.11320
      C   10   -0.18902      0.99957     2.17963    0.00981     3.18902
      C   11   -0.04664      0.99957     2.03527    0.01179     3.04664
      C   12   -0.19009      0.99955     2.17888    0.01166     3.19009
      C   13   -0.28481      0.99962     2.27805    0.00714     3.28481
      C   14   -0.28075      0.99963     2.27408    0.00704     3.28075
      C   15   -0.28033      0.99965     2.27593    0.00476     3.28033
      N   16   -0.42129      0.99976     2.91099    0.01055     3.92129
      H   17    0.10224      0.00000     0.39658    0.00118     0.39776
      H   18    0.10471      0.00000     0.39357    0.00172     0.39529
      H   19    0.10486      0.00000     0.39390    0.00124     0.39514
      H   20    0.09203      0.00000     0.40645    0.00152     0.40797
      H   21    0.09414      0.00000     0.40465    0.00120     0.40586
      H   22    0.11470      0.00000     0.38406    0.00124     0.38530
      H   23    0.11467      0.00000     0.38431    0.00102     0.38533
      H   24    0.10177      0.00000     0.39653    0.00170     0.39823
      H   25    0.10964      0.00000     0.38874    0.00162     0.39036
      H   26    0.09299      0.00000     0.40487    0.00214     0.40701
      H   27    0.09873      0.00000     0.39859    0.00268     0.40127
      H   28    0.10038      0.00000     0.39839    0.00123     0.39962
      H   29    0.10556      0.00000     0.39312    0.00132     0.39444
      H   30    0.10106      0.00000     0.39734    0.00160     0.39894
      H   31    0.09647      0.00000     0.40271    0.00082     0.40353
      H   32    0.09798      0.00000     0.40106    0.00096     0.40202
      H   33    0.10541      0.00000     0.39299    0.00160     0.39459
      H   34    0.09987      0.00000     0.39894    0.00120     0.40013
      H   35    0.09811      0.00000     0.40098    0.00091     0.40189
      H   36    0.09797      0.00000     0.40117    0.00086     0.40203
      H   37    0.09646      0.00000     0.40270    0.00084     0.40354
      H   38    0.09763      0.00000     0.40155    0.00082     0.40237
      H   39    0.10220      0.00000     0.39685    0.00096     0.39780
      H   40    0.17218      0.00000     0.32596    0.00186     0.32782
      H   41    0.17643      0.00000     0.32125    0.00233     0.32357
 =======================================================================
   * Total *   -0.00000     15.99422    46.80535    0.20043    63.00000

 Normal termination of Gaussian 16 at Thu Dec 10 22:52:36 2020.
