 Gaussian 16, Revision A.03,

 -----------------------------------------------------------
 # opt freq B3LYP/6-31G(d) empiricaldispersion=gd3bj scf=xqc
 -----------------------------------------------------------

 ------------------------------
 CID_68948256_JID_2890_neutraal
 ------------------------------
 Symbolic Z-matrix:
 Charge =  0 Multiplicity = 1

 SCF Done:  E(RB3LYP) =  -609.213419844     A.U. after   15 cycles
 SCF Done:  E(RB3LYP) =  -609.218244973     A.U. after   12 cycles
 SCF Done:  E(RB3LYP) =  -609.218511341     A.U. after   13 cycles
 SCF Done:  E(RB3LYP) =  -609.219195554     A.U. after   12 cycles
 SCF Done:  E(RB3LYP) =  -609.219314400     A.U. after   11 cycles
 SCF Done:  E(RB3LYP) =  -609.219463606     A.U. after   11 cycles
 SCF Done:  E(RB3LYP) =  -609.219507604     A.U. after   11 cycles
 SCF Done:  E(RB3LYP) =  -609.219539971     A.U. after   10 cycles
 SCF Done:  E(RB3LYP) =  -609.219562449     A.U. after   10 cycles
 SCF Done:  E(RB3LYP) =  -609.219573247     A.U. after   10 cycles
 SCF Done:  E(RB3LYP) =  -609.219578284     A.U. after    9 cycles
 SCF Done:  E(RB3LYP) =  -609.219579839     A.U. after    8 cycles
 SCF Done:  E(RB3LYP) =  -609.219580100     A.U. after    8 cycles
 SCF Done:  E(RB3LYP) =  -609.219580250     A.U. after    7 cycles
 Optimization completed.
    -- Stationary point found.
 Normal termination of Gaussian 16 at Wed Dec  9 17:59:04 2020.

 --------------------------------------------------------------------
 #N Geom=AllCheck Guess=TCheck SCRF=Check GenChk RB3LYP/6-31G(d) Freq
 --------------------------------------------------------------------

 Structure from the checkpoint file:  "JID_2890.chk"
 ------------------------------
 CID_68948256_JID_2890_neutraal
 ------------------------------
 Charge =  0 Multiplicity = 1

 SCF Done:  E(RB3LYP) =  -609.219580250     A.U. after    1 cycles

  Exact polarizability: 109.548  -5.462  79.795   2.412   1.856  81.070
 Approx polarizability: 152.718  -9.293 114.303  11.506   1.660 121.408

                      1                      2                      3
                      A                      A                      A
 Frequencies --     51.9586                77.8092                94.6019
 Red. masses --      4.2587                 4.6410                 6.2954
 Frc consts  --      0.0068                 0.0166                 0.0332
 IR Inten    --      1.2115                 0.3016                 0.7061

                      4                      5                      6
                      A                      A                      A
 Frequencies --    138.6508               148.4569               152.2586
 Red. masses --      3.6910                 1.7990                 1.7887
 Frc consts  --      0.0418                 0.0234                 0.0244
 IR Inten    --      2.4842                 1.6270                 2.7078

                      7                      8                      9
                      A                      A                      A
 Frequencies --    206.2687               293.1334               327.7030
 Red. masses --      3.6952                 2.2348                 2.7208
 Frc consts  --      0.0926                 0.1131                 0.1721
 IR Inten    --      2.5104                 0.9529                 1.9309

                     10                     11                     12
                      A                      A                      A
 Frequencies --    347.0806               375.7298               447.9314
 Red. masses --      4.0353                 4.3103                 3.0328
 Frc consts  --      0.2864                 0.3585                 0.3585
 IR Inten    --      2.1492                 6.1114                 8.6232

                     13                     14                     15
                      A                      A                      A
 Frequencies --    459.7479               512.9570               525.3945
 Red. masses --      2.2347                 3.2171                 1.3180
 Frc consts  --      0.2783                 0.4987                 0.2144
 IR Inten    --     13.7055                39.7152                83.4221

                     16                     17                     18
                      A                      A                      A
 Frequencies --    545.9481               556.9666               619.8381
 Red. masses --      3.0495                 4.2814                 2.4540
 Frc consts  --      0.5355                 0.7825                 0.5555
 IR Inten    --     18.0759                25.6848                58.3975

                     19                     20                     21
                      A                      A                      A
 Frequencies --    654.8231               686.3355               766.7176
 Red. masses --      2.1586                 4.4670                 7.3593
 Frc consts  --      0.5453                 1.2398                 2.5489
 IR Inten    --     10.4374                 0.8546                39.4513

                     22                     23                     24
                      A                      A                      A
 Frequencies --    783.0612               850.6735               892.7640
 Red. masses --      2.7432                 3.6570                 2.3172
 Frc consts  --      0.9911                 1.5592                 1.0881
 IR Inten    --     11.3013                 1.4562                 7.8764

                     25                     26                     27
                      A                      A                      A
 Frequencies --    907.4948               970.3543              1001.0963
 Red. masses --      2.0184                 2.0443                 2.6072
 Frc consts  --      0.9794                 1.1341                 1.5395
 IR Inten    --      1.1348                14.3022                 3.5786

                     28                     29                     30
                      A                      A                      A
 Frequencies --   1064.8099              1106.4448              1122.2325
 Red. masses --      2.2315                 2.4097                 2.3483
 Frc consts  --      1.4907                 1.7381                 1.7425
 IR Inten    --     31.1988                 7.3563                29.8313

                     31                     32                     33
                      A                      A                      A
 Frequencies --   1129.4511              1147.4322              1164.8106
 Red. masses --      1.7960                 2.1455                 1.4780
 Frc consts  --      1.3498                 1.6643                 1.1815
 IR Inten    --     12.1243               135.8727                 1.9477

                     34                     35                     36
                      A                      A                      A
 Frequencies --   1227.2585              1234.1684              1252.6854
 Red. masses --      1.3904                 1.2751                 2.1097
 Frc consts  --      1.2339                 1.1443                 1.9506
 IR Inten    --     18.9012                18.5325               104.1944

                     37                     38                     39
                      A                      A                      A
 Frequencies --   1294.4101              1311.5245              1322.5222
 Red. masses --      2.0801                 1.4152                 1.3482
 Frc consts  --      2.0535                 1.4342                 1.3894
 IR Inten    --     24.3977                28.8748                24.7956

                     40                     41                     42
                      A                      A                      A
 Frequencies --   1345.7496              1370.4699              1401.8761
 Red. masses --      1.7281                 1.4686                 1.3651
 Frc consts  --      1.8440                 1.6252                 1.5807
 IR Inten    --     72.9632                13.7972                 1.2482

                     43                     44                     45
                      A                      A                      A
 Frequencies --   1404.5094              1421.7354              1455.6371
 Red. masses --      1.6445                 1.5420                 1.3053
 Frc consts  --      1.9113                 1.8364                 1.6295
 IR Inten    --     23.4499                18.2794                27.0880

                     46                     47                     48
                      A                      A                      A
 Frequencies --   1484.1486              1500.0881              1513.5024
 Red. masses --      1.8537                 1.7081                 1.0858
 Frc consts  --      2.4058                 2.2646                 1.4655
 IR Inten    --     74.2011                75.6750                 1.0823

                     49                     50                     51
                      A                      A                      A
 Frequencies --   1521.2155              1527.2663              1548.0283
 Red. masses --      1.1624                 1.1451                 1.1096
 Frc consts  --      1.5848                 1.5737                 1.5667
 IR Inten    --     19.1716                 9.8456                 6.6660

                     52                     53                     54
                      A                      A                      A
 Frequencies --   1552.1381              1795.0000              1838.7884
 Red. masses --      1.1318                 9.0333                 8.4301
 Frc consts  --      1.6065                17.1486                16.7937
 IR Inten    --     17.8552               236.1658               581.0333

                     55                     56                     57
                      A                      A                      A
 Frequencies --   3010.9763              3050.1709              3056.1166
 Red. masses --      1.0720                 1.0736                 1.0400
 Frc consts  --      5.7260                 5.8850                 5.7227
 IR Inten    --     60.6535                21.0598                27.3711

                     58                     59                     60
                      A                      A                      A
 Frequencies --   3068.8500              3072.9564              3096.3768
 Red. masses --      1.0651                 1.0756                 1.0922
 Frc consts  --      5.9103                 5.9845                 6.1697
 IR Inten    --     30.8355                20.8847                39.1961

                     61                     62                     63
                      A                      A                      A
 Frequencies --   3117.6371              3122.2463              3139.3133
 Red. masses --      1.1059                 1.1012                 1.0961
 Frc consts  --      6.3331                 6.3248                 6.3648
 IR Inten    --     21.2447                26.8175                17.1594

                     64                     65                     66
                      A                      A                      A
 Frequencies --   3192.2082              3603.0945              3739.5319
 Red. masses --      1.0987                 1.0766                 1.0646
 Frc consts  --      6.5966                 8.2347                 8.7716
 IR Inten    --      3.0792                24.0405                86.3046

 - Thermochemistry -
 -------------------
 Temperature   298.150 Kelvin.  Pressure   1.00000 Atm.
 Atom     1 has atomic number  6 and mass  12.00000

 Molecular mass:   172.08479 amu.
 Principal axes and moments of inertia in atomic units:
                           1         2         3
     Eigenvalues --  1141.022362463.127022690.49196
           X            0.99935  -0.03256  -0.01575
           Y            0.03344   0.99764   0.05993
           Z            0.01376  -0.06042   0.99808
 This molecule is an asymmetric top.
 Rotational symmetry number  1.
 Warning -- assumption of classical behavior for rotation
           may cause significant error
 Rotational temperatures (Kelvin)      0.07591     0.03516     0.03219
 Rotational constants (GHZ):           1.58169     0.73270     0.67078
 Zero-point vibrational energy     530682.2 (Joules/Mol)
                                  126.83609 (Kcal/Mol)
 Warning -- explicit consideration of  18 degrees of freedom as
           vibrations may cause significant error
 Vibrational temperatures:     74.76   111.95   136.11   199.49   213.60
          (Kelvin)            219.07   296.77   421.75   471.49   499.37
                              540.59   644.47   661.47   738.03   755.93
                              785.50   801.35   891.81   942.14   987.48
                             1103.14  1126.65  1223.93  1284.49  1305.68
                             1396.12  1440.35  1532.02  1591.93  1614.64
                             1625.03  1650.90  1675.90  1765.75  1775.69
                             1802.33  1862.37  1886.99  1902.81  1936.23
                             1971.80  2016.99  2020.78  2045.56  2094.34
                             2135.36  2158.29  2177.59  2188.69  2197.40
                             2227.27  2233.18  2582.60  2645.61  4332.12
                             4388.52  4397.07  4415.39  4421.30  4455.00
                             4485.58  4492.22  4516.77  4592.88  5184.05
                             5380.35

 Zero-point correction=                           0.202126 (Hartree/Particle)
 Thermal correction to Energy=                    0.213761
 Thermal correction to Enthalpy=                  0.214705
 Thermal correction to Gibbs Free Energy=         0.164345
 Sum of electronic and zero-point Energies=           -609.017454
 Sum of electronic and thermal Energies=              -609.005819
 Sum of electronic and thermal Enthalpies=            -609.004875
 Sum of electronic and thermal Free Energies=         -609.055235

                     E (Thermal)             CV                S
                      KCal/Mol        Cal/Mol-Kelvin    Cal/Mol-Kelvin
 Total                  134.137             43.442            105.991
 Electronic               0.000              0.000              0.000
 Translational            0.889              2.981             41.336
 Rotational               0.889              2.981             30.404
 Vibrational            132.360             37.480             34.251
 Vibration     1          0.596              1.977              4.741
 Vibration     2          0.599              1.964              3.945
 Vibration     3          0.603              1.953              3.563
 Vibration     4          0.614              1.915              2.822
 Vibration     5          0.618              1.904              2.692
 Vibration     6          0.619              1.900              2.644
 Vibration     7          0.641              1.831              2.076
 Vibration     8          0.688              1.687              1.456
 Vibration     9          0.711              1.620              1.271
 Vibration    10          0.725              1.581              1.179
 Vibration    11          0.747              1.522              1.056
 Vibration    12          0.807              1.365              0.802
 Vibration    13          0.818              1.339              0.767
 Vibration    14          0.868              1.221              0.627
 Vibration    15          0.880              1.194              0.598
 Vibration    16          0.901              1.149              0.553
 Vibration    17          0.912              1.124              0.530
 Vibration    18          0.980              0.990              0.417

                           ! Non-Optimized Parameters !
 Normal termination of Gaussian 16 at Wed Dec  9 18:05:18 2020.

 ----------------------------------------------------------------------
 # B3LYP/6-311++G(d,p) empiricaldispersion=gd3bj scf=xqc pop=npa geom=c
 heck
 ----------------------------------------------------------------------

 --------------------------------------
 CID_68948256_JID_2890_Energie_neutraal
 --------------------------------------
 Structure from the checkpoint file:  "JID_2890.chk"
 Charge =  0 Multiplicity = 1

 SCF Done:  E(RB3LYP) =  -609.409293768     A.U. after   14 cycles
 Normal termination of Gaussian 16 at Wed Dec  9 18:07:51 2020.

 ----------------------------------------------------------------------
 # B3LYP/6-311++G(d,p) empiricaldispersion=gd3bj scf=xqc pop=npa geom=c
 heck
 ----------------------------------------------------------------------

 ------------------------------------
 CID_68948256_JID_2890_Energie_kation
 ------------------------------------
 Structure from the checkpoint file:  "JID_2890.chk"
 Charge =  1 Multiplicity = 2

 SCF Done:  E(UB3LYP) =  -609.090172271     A.U. after   24 cycles
 Normal termination of Gaussian 16 at Wed Dec  9 18:13:23 2020.
 Gaussian 16:  ES64L-G16RevA.03 25-Dec-2016

 ----------------------------------------------------------------------
 # B3LYP/6-311++G(d,p) empiricaldispersion=gd3bj scf=xqc pop=npa geom=c
 heck
 ----------------------------------------------------------------------

 -----------------------------------
 CID_68948256_JID_2890_Energie_anion
 -----------------------------------
 Structure from the checkpoint file:  "JID_2890.chk"
 Charge = -1 Multiplicity = 2

                         Standard orientation:
 ---------------------------------------------------------------------
 Center     Atomic      Atomic             Coordinates (Angstroms)
 Number     Number       Type             X           Y           Z
 ---------------------------------------------------------------------
      1          6           0       -2.166415    1.020043    1.291243
      2          7           0       -1.280687    0.043464    0.663573
      3          6           0        0.156406    0.253298    0.817337
      4          6           0        0.950371   -1.038785    1.171826
      5          6           0        2.110229   -1.318402    0.214430
      6          6           0        2.918448   -0.046868   -0.031091
      7          7           0        2.046329    0.982845   -0.588833
      8          6           0        0.705629    1.078786   -0.368460
      9          8           0       -0.016307    1.835748   -1.003811
     10          6           0       -1.779211   -0.624843   -0.419325
     11          8           0       -2.946898   -0.671556   -0.760856
     12          8           0       -0.801380   -1.309764   -1.090583
     13          1           0       -1.952448    1.066118    2.363854
     14          1           0       -3.196280    0.700202    1.140361
     15          1           0       -2.025374    2.010495    0.843750
     16          1           0        0.249288    0.935460    1.669446
     17          1           0        1.342624   -0.936624    2.190743
     18          1           0        0.257813   -1.882346    1.180762
     19          1           0        2.760718   -2.097876    0.626919
     20          1           0        1.717910   -1.674104   -0.743048
     21          1           0        3.382954    0.299293    0.904928
     22          1           0        3.728247   -0.228531   -0.744672
     23          1           0        2.388093    1.574608   -1.335322
     24          1           0       -1.269108   -1.725664   -1.834667
 ---------------------------------------------------------------------

 SCF Done:  E(UB3LYP) =  -609.399849092     A.U. after   30 cycles

 The electronic state is 2-A.
 Alpha  occ. eigenvalues --  -19.07053 -19.00175 -18.98414 -14.24966 -14.23210
 Alpha  occ. eigenvalues --  -10.22372 -10.16932 -10.12334 -10.10180 -10.10046
 Alpha  occ. eigenvalues --  -10.07092 -10.06491  -1.01541  -0.93735  -0.91880
 Alpha  occ. eigenvalues --   -0.85036  -0.82426  -0.69472  -0.64771  -0.62000
 Alpha  occ. eigenvalues --   -0.56890  -0.52361  -0.50029  -0.46994  -0.41700
 Alpha  occ. eigenvalues --   -0.40747  -0.39393  -0.38551  -0.36861  -0.35613
 Alpha  occ. eigenvalues --   -0.35028  -0.33343  -0.32541  -0.32105  -0.31693
 Alpha  occ. eigenvalues --   -0.30290  -0.29818  -0.26533  -0.24841  -0.24322
 Alpha  occ. eigenvalues --   -0.23708  -0.22715  -0.18994  -0.16731  -0.15352
 Alpha  occ. eigenvalues --   -0.14577   0.04372
 Alpha virt. eigenvalues --    0.06854   0.07425   0.08160   0.09066   0.10157
 Alpha virt. eigenvalues --    0.10684   0.11115   0.11313   0.12166   0.12719
 Alpha virt. eigenvalues --    0.13008   0.13580   0.13859   0.15112   0.17087

  Beta  occ. eigenvalues --  -19.07039 -19.00171 -18.98409 -14.24965 -14.23188
  Beta  occ. eigenvalues --  -10.22370 -10.16929 -10.12317 -10.10166 -10.09992
  Beta  occ. eigenvalues --  -10.07063 -10.06466  -1.01525  -0.93721  -0.91865
  Beta  occ. eigenvalues --   -0.85026  -0.82382  -0.69421  -0.64713  -0.61970
  Beta  occ. eigenvalues --   -0.56814  -0.52303  -0.49979  -0.46937  -0.41663
  Beta  occ. eigenvalues --   -0.40699  -0.39318  -0.38513  -0.36830  -0.35586
  Beta  occ. eigenvalues --   -0.34993  -0.33310  -0.32507  -0.32059  -0.31655
  Beta  occ. eigenvalues --   -0.30256  -0.29786  -0.26488  -0.24792  -0.24268
  Beta  occ. eigenvalues --   -0.23654  -0.22698  -0.18976  -0.16722  -0.15317
  Beta  occ. eigenvalues --   -0.14551
  Beta virt. eigenvalues --    0.07029   0.07658   0.08331   0.09143   0.09692
  Beta virt. eigenvalues --    0.10744   0.11225   0.11485   0.11669   0.12766
  Beta virt. eigenvalues --    0.13150   0.13282   0.13732   0.14244   0.15216

 Mulliken charges and spin densities:
               1          2
     1  C    0.210678  -0.462109
     2  N    0.051236   0.072008
     3  C   -0.148439  -0.273796
     4  C    0.935623  -1.234878
     5  C   -0.656561   0.451130
     6  C    2.052795  -2.522049
     7  N   -0.501011   0.281798
     8  C    0.016120   0.028030
     9  O   -0.357883   0.011411
    10  C    0.410619  -0.217579
    11  O   -0.378697   0.009465
    12  O   -0.246257   0.028604
    13  H   -0.117469   0.254629
    14  H    0.172292  -0.006213
    15  H    0.165125   0.025208
    16  H   -0.356533   0.586423
    17  H   -0.459947   0.640381
    18  H   -0.029025   0.205082
    19  H   -0.660290   0.839646
    20  H    0.278644  -0.120997
    21  H   -0.323122   0.502215
    22  H   -1.092787   1.279092
    23  H   -0.125852   0.455018
    24  H    0.160739   0.167480
 Sum of Mulliken charges =  -1.00000   1.00000

 Dipole moment (field-independent basis, Debye):
    X=             -6.6771    Y=             -0.3989    Z=             -0.8214  Tot=              6.7392
 Quadrupole moment (field-independent basis, Debye-Ang):
   XX=           -144.3543   YY=           -102.5073   ZZ=           -107.7759
   XY=              3.4697   XZ=             -5.3442   YZ=              5.9185

 Summary of Natural Population Analysis:

                                       Natural Population
                Natural  -----------------------------------------------
    Atom  No    Charge         Core      Valence    Rydberg      Total
 -----------------------------------------------------------------------
      C    1   -0.17602      0.99964     2.16864    0.00775     3.17602
      N    2   -0.25956      0.99963     2.74847    0.01147     3.75956
      C    3   -0.04476      0.99954     2.03062    0.01459     3.04476
      C    4   -0.19130      0.99961     2.18155    0.01015     3.19130
      C    5   -0.19407      0.99962     2.18602    0.00843     3.19407
      C    6   -0.08486      0.99961     2.07402    0.01123     3.08486
      N    7   -0.31428      0.99967     2.80370    0.01091     3.81428
      C    8    0.34417      0.99964     1.63314    0.02306     2.65583
      O    9   -0.33065      0.99988     3.32500    0.00577     4.33065
      C   10    0.46673      0.99968     1.50819    0.02539     2.53327
      O   11   -0.33847      0.99987     3.33349    0.00511     4.33847
      O   12   -0.35329      0.99988     3.34755    0.00587     4.35329
      H   13    0.09379      0.00000     0.40530    0.00091     0.40621
      H   14    0.10959      0.00000     0.38960    0.00081     0.39041
      H   15    0.10083      0.00000     0.39826    0.00091     0.39917
      H   16    0.11575      0.00000     0.38217    0.00208     0.38425
      H   17    0.10258      0.00000     0.39515    0.00228     0.39742
      H   18    0.10716      0.00000     0.39121    0.00163     0.39284
      H   19    0.10633      0.00000     0.39159    0.00207     0.39367
      H   20    0.10143      0.00000     0.39664    0.00193     0.39857
      H   21    0.09303      0.00000     0.40316    0.00381     0.40697
      H   22    0.10504      0.00000     0.38937    0.00558     0.39496
      H   23    0.19770      0.00000     0.29933    0.00297     0.30230
      H   24    0.24314      0.00000     0.25378    0.00308     0.25686
 =======================================================================
   * Total *   -0.00000     11.99627    33.83597    0.16776    46.00000

 Normal termination of Gaussian 16 at Wed Dec  9 18:19:32 2020.
