 Gaussian 16, Revision A.03,

 -----------------------------------------------------------
 # opt freq B3LYP/6-31G(d) empiricaldispersion=gd3bj scf=xqc
 -----------------------------------------------------------

 ------------------------------
 CID_43538790_JID_3713_neutraal
 ------------------------------
 Symbolic Z-matrix:
 Charge =  0 Multiplicity = 1

 SCF Done:  E(RB3LYP) =  -956.628841927     A.U. after   14 cycles
 SCF Done:  E(RB3LYP) =  -956.634658153     A.U. after   13 cycles
 SCF Done:  E(RB3LYP) =  -956.634510922     A.U. after   12 cycles
 SCF Done:  E(RB3LYP) =  -956.635807990     A.U. after   12 cycles
 SCF Done:  E(RB3LYP) =  -956.636303095     A.U. after   12 cycles
 SCF Done:  E(RB3LYP) =  -956.636388689     A.U. after   11 cycles
 SCF Done:  E(RB3LYP) =  -956.636573858     A.U. after   11 cycles
 SCF Done:  E(RB3LYP) =  -956.636606134     A.U. after   10 cycles
 SCF Done:  E(RB3LYP) =  -956.636629879     A.U. after   11 cycles
 SCF Done:  E(RB3LYP) =  -956.636640085     A.U. after    8 cycles
 SCF Done:  E(RB3LYP) =  -956.636643443     A.U. after    9 cycles
 SCF Done:  E(RB3LYP) =  -956.636644368     A.U. after    9 cycles
 SCF Done:  E(RB3LYP) =  -956.636644842     A.U. after    8 cycles
 SCF Done:  E(RB3LYP) =  -956.636645493     A.U. after    8 cycles
 SCF Done:  E(RB3LYP) =  -956.636645624     A.U. after    7 cycles
 SCF Done:  E(RB3LYP) =  -956.636645685     A.U. after    6 cycles
 Optimization completed.
    -- Stationary point found.
 Normal termination of Gaussian 16 at Sun Dec 13 20:03:21 2020.

 --------------------------------------------------------------------
 #N Geom=AllCheck Guess=TCheck SCRF=Check GenChk RB3LYP/6-31G(d) Freq
 --------------------------------------------------------------------

 Structure from the checkpoint file:  "JID_3713.chk"
 ------------------------------
 CID_43538790_JID_3713_neutraal
 ------------------------------
 Charge =  0 Multiplicity = 1

 SCF Done:  E(RB3LYP) =  -956.636645685     A.U. after    1 cycles

  Exact polarizability: 131.986  -1.070 113.975   2.946  -1.480 107.939
 Approx polarizability: 171.913   2.858 173.103   7.106  -2.373 167.380

                      1                      2                      3
                      A                      A                      A
 Frequencies --     24.5451                42.6131                64.4627
 Red. masses --      3.8235                 4.4549                 8.1694
 Frc consts  --      0.0014                 0.0048                 0.0200
 IR Inten    --      0.5175                 0.6074                 1.2871

                      4                      5                      6
                      A                      A                      A
 Frequencies --     84.8548               109.7796               123.9576
 Red. masses --      5.0569                 3.9644                 3.1815
 Frc consts  --      0.0215                 0.0281                 0.0288
 IR Inten    --      1.9862                 1.8252                 0.6968

                      7                      8                      9
                      A                      A                      A
 Frequencies --    194.7137               204.8949               224.1001
 Red. masses --      1.1578                 2.2069                 2.8819
 Frc consts  --      0.0259                 0.0546                 0.0853
 IR Inten    --      0.2408                 0.0235                 1.1618

                     10                     11                     12
                      A                      A                      A
 Frequencies --    244.3248               279.8446               289.2474
 Red. masses --      2.4678                 3.3748                 1.7165
 Frc consts  --      0.0868                 0.1557                 0.0846
 IR Inten    --      0.1165                 1.2620                 0.6092

                     13                     14                     15
                      A                      A                      A
 Frequencies --    308.1413               325.9862               415.1424
 Red. masses --      1.8549                 1.8554                 3.2115
 Frc consts  --      0.1038                 0.1162                 0.3261
 IR Inten    --      0.3262                 2.5528                 0.5508

                     16                     17                     18
                      A                      A                      A
 Frequencies --    440.3664               459.4711               527.4008
 Red. masses --      2.6184                 3.1529                 4.4696
 Frc consts  --      0.2992                 0.3922                 0.7325
 IR Inten    --      4.4643                 2.0057                 4.1341

                     19                     20                     21
                      A                      A                      A
 Frequencies --    532.0033               576.1247               648.9591
 Red. masses --      3.4521                 2.7409                 1.7795
 Frc consts  --      0.5757                 0.5360                 0.4415
 IR Inten    --      9.7349                49.2058                49.5684

                     22                     23                     24
                      A                      A                      A
 Frequencies --    676.8634               688.5221               705.8742
 Red. masses --      3.3901                 3.2854                 3.3393
 Frc consts  --      0.9151                 0.9176                 0.9803
 IR Inten    --     19.6338                20.0764                 6.8796

                     25                     26                     27
                      A                      A                      A
 Frequencies --    768.2322               780.1993               808.2395
 Red. masses --      3.0546                 3.1332                 3.0089
 Frc consts  --      1.0622                 1.1237                 1.1581
 IR Inten    --      6.4605                43.5250                 5.4777

                     28                     29                     30
                      A                      A                      A
 Frequencies --    857.9422               892.7228               914.7114
 Red. masses --      2.1476                 2.0055                 2.4124
 Frc consts  --      0.9314                 0.9417                 1.1892
 IR Inten    --      1.4555                 4.8267                 3.7393

                     31                     32                     33
                      A                      A                      A
 Frequencies --    931.6602               957.6872               999.5716
 Red. masses --      1.9561                 1.7223                 2.1999
 Frc consts  --      1.0004                 0.9307                 1.2950
 IR Inten    --      6.3709                 2.6335                 3.7679

                     34                     35                     36
                      A                      A                      A
 Frequencies --   1011.5067              1042.0674              1060.1947
 Red. masses --      1.6415                 1.6822                 1.7567
 Frc consts  --      0.9895                 1.0763                 1.1634
 IR Inten    --     10.8252                42.6233                22.0757

                     37                     38                     39
                      A                      A                      A
 Frequencies --   1084.5359              1111.3088              1134.8272
 Red. masses --      1.7994                 2.0777                 1.6263
 Frc consts  --      1.2470                 1.5118                 1.2340
 IR Inten    --      0.9890                46.3783                23.1020

                     40                     41                     42
                      A                      A                      A
 Frequencies --   1139.9576              1159.6449              1174.8935
 Red. masses --      1.2279                 1.3310                 1.6709
 Frc consts  --      0.9401                 1.0546                 1.3590
 IR Inten    --      2.5011                 3.5218                10.7701

                     43                     44                     45
                      A                      A                      A
 Frequencies --   1195.1411              1218.0577              1250.4880
 Red. masses --      1.6576                 1.9745                 1.7158
 Frc consts  --      1.3949                 1.7260                 1.5808
 IR Inten    --     16.8637               125.6971                20.0382

                     46                     47                     48
                      A                      A                      A
 Frequencies --   1268.8650              1274.5479              1293.0408
 Red. masses --      1.4522                 1.8534                 1.3695
 Frc consts  --      1.3775                 1.7739                 1.3490
 IR Inten    --      7.4226                31.0164                16.6003

                     49                     50                     51
                      A                      A                      A
 Frequencies --   1317.9872              1328.8215              1358.3937
 Red. masses --      1.2883                 1.3517                 1.5831
 Frc consts  --      1.3185                 1.4063                 1.7211
 IR Inten    --      5.1527                 3.6136                17.9546

                     52                     53                     54
                      A                      A                      A
 Frequencies --   1367.3983              1374.5888              1395.4804
 Red. masses --      1.3683                 1.3709                 1.9371
 Frc consts  --      1.5074                 1.5261                 2.2225
 IR Inten    --      2.5806                16.5010                23.1782

                     55                     56                     57
                      A                      A                      A
 Frequencies --   1428.1123              1439.8422              1457.9175
 Red. masses --      1.2842                 1.2635                 1.2846
 Frc consts  --      1.5432                 1.5433                 1.6087
 IR Inten    --      4.8103                 3.2861                20.0930

                     58                     59                     60
                      A                      A                      A
 Frequencies --   1489.6157              1505.1845              1515.4014
 Red. masses --      1.1572                 1.0904                 1.0821
 Frc consts  --      1.5129                 1.4555                 1.4641
 IR Inten    --      1.5478                 2.8315                 3.1755

                     61                     62                     63
                      A                      A                      A
 Frequencies --   1523.1591              1525.4317              1528.8370
 Red. masses --      1.0503                 1.0511                 1.0937
 Frc consts  --      1.4357                 1.4410                 1.5062
 IR Inten    --      5.2490                17.1530                 1.6050

                     64                     65                     66
                      A                      A                      A
 Frequencies --   1532.9615              1536.8322              1555.8760
 Red. masses --      1.0932                 1.0589                 1.0572
 Frc consts  --      1.5136                 1.4736                 1.5078
 IR Inten    --     13.1598                12.6380                 7.7989

                     67                     68                     69
                      A                      A                      A
 Frequencies --   1849.5560              2941.5795              2964.2195
 Red. masses --      9.6511                 1.0726                 1.0612
 Frc consts  --     19.4518                 5.4680                 5.4940
 IR Inten    --    255.8954                46.9287                83.7504

                     70                     71                     72
                      A                      A                      A
 Frequencies --   3057.4245              3062.4021              3068.7809
 Red. masses --      1.0600                 1.0467                 1.0773
 Frc consts  --      5.8378                 5.7833                 5.9774
 IR Inten    --     22.2248                19.8045                10.5310

                     73                     74                     75
                      A                      A                      A
 Frequencies --   3085.5148              3089.0900              3091.8625
 Red. masses --      1.0762                 1.0702                 1.0602
 Frc consts  --      6.0367                 6.0170                 5.9712
 IR Inten    --     24.9482                28.1272                20.3301

                     76                     77                     78
                      A                      A                      A
 Frequencies --   3099.0469              3103.9909              3122.2546
 Red. masses --      1.0912                 1.0871                 1.1023
 Frc consts  --      6.1746                 6.1713                 6.3314
 IR Inten    --     27.7227                23.2653                27.1276

                     79                     80                     81
                      A                      A                      A
 Frequencies --   3139.3666              3143.1228              3150.4652
 Red. masses --      1.1091                 1.1048                 1.0987
 Frc consts  --      6.4404                 6.4308                 6.4250
 IR Inten    --     20.0700                 7.1241                 6.2133

                     82                     83                     84
                      A                      A                      A
 Frequencies --   3153.1712              3170.9458              3683.4086
 Red. masses --      1.0959                 1.0890                 1.0639
 Frc consts  --      6.4197                 6.4515                 8.5046
 IR Inten    --     24.5356                18.4849                46.9363

 - Thermochemistry -
 -------------------
 Temperature   298.150 Kelvin.  Pressure   1.00000 Atm.
 Atom     1 has atomic number  6 and mass  12.00000

 Molecular mass:   203.09800 amu.
 Principal axes and moments of inertia in atomic units:
                           1         2         3
     Eigenvalues --  1422.694794469.280324595.38247
           X            0.99992  -0.00542  -0.01109
           Y            0.00588   0.99908   0.04252
           Z            0.01085  -0.04258   0.99903
 This molecule is an asymmetric top.
 Rotational symmetry number  1.
 Warning -- assumption of classical behavior for rotation
           may cause significant error
 Rotational temperatures (Kelvin)      0.06088     0.01938     0.01885
 Rotational constants (GHZ):           1.26854     0.40381     0.39273
 Zero-point vibrational energy     685940.4 (Joules/Mol)
                                  163.94369 (Kcal/Mol)
 Warning -- explicit consideration of  20 degrees of freedom as
           vibrations may cause significant error
 Vibrational temperatures:     35.31    61.31    92.75   122.09   157.95
          (Kelvin)            178.35   280.15   294.80   322.43   351.53
                              402.63   416.16   443.35   469.02   597.30
                              633.59   661.08   758.81   765.43   828.91
                              933.71   973.86   990.63  1015.60  1105.31
                             1122.53  1162.88  1234.39  1284.43  1316.07
                             1340.45  1377.90  1438.16  1455.33  1499.30
                             1525.38  1560.41  1598.93  1632.76  1640.14
                             1668.47  1690.41  1719.54  1752.51  1799.17
                             1825.61  1833.79  1860.40  1896.29  1911.88
                             1954.43  1967.38  1977.73  2007.79  2054.74
                             2071.61  2097.62  2143.22  2165.62  2180.32
                             2191.49  2194.76  2199.66  2205.59  2211.16
                             2238.56  2661.10  4232.28  4264.85  4398.95
                             4406.11  4415.29  4439.37  4444.51  4448.50
                             4458.84  4465.95  4492.23  4516.85  4522.25
                             4532.82  4536.71  4562.28  5299.60

 Zero-point correction=                           0.261261 (Hartree/Particle)
 Thermal correction to Energy=                    0.275485
 Thermal correction to Enthalpy=                  0.276429
 Thermal correction to Gibbs Free Energy=         0.218965
 Sum of electronic and zero-point Energies=           -956.375385
 Sum of electronic and thermal Energies=              -956.361161
 Sum of electronic and thermal Enthalpies=            -956.360217
 Sum of electronic and thermal Free Energies=         -956.417681

                     E (Thermal)             CV                S
                      KCal/Mol        Cal/Mol-Kelvin    Cal/Mol-Kelvin
 Total                  172.869             52.834            120.944
 Electronic               0.000              0.000              0.000
 Translational            0.889              2.981             41.830
 Rotational               0.889              2.981             31.747
 Vibrational            171.092             46.872             47.367
 Vibration     1          0.593              1.985              6.228
 Vibration     2          0.595              1.980              5.134
 Vibration     3          0.597              1.971              4.316
 Vibration     4          0.601              1.960              3.775
 Vibration     5          0.606              1.941              3.273
 Vibration     6          0.610              1.929              3.038
 Vibration     7          0.635              1.847              2.182
 Vibration     8          0.640              1.833              2.089
 Vibration     9          0.649              1.804              1.926
 Vibration    10          0.660              1.772              1.771
 Vibration    11          0.680              1.711              1.535
 Vibration    12          0.686              1.694              1.478
 Vibration    13          0.698              1.658              1.372
 Vibration    14          0.710              1.624              1.280
 Vibration    15          0.779              1.437              0.909
 Vibration    16          0.800              1.382              0.825
 Vibration    17          0.817              1.340              0.768
 Vibration    18          0.882              1.189              0.593
 Vibration    19          0.887              1.179              0.583
 Vibration    20          0.933              1.083              0.493

 Optimization completed.
    -- Stationary point found.
 Normal termination of Gaussian 16 at Sun Dec 13 20:11:50 2020.

 ----------------------------------------------------------------------
 # B3LYP/6-311++G(d,p) empiricaldispersion=gd3bj scf=xqc pop=npa geom=c
 heck
 ----------------------------------------------------------------------

 --------------------------------------
 CID_43538790_JID_3713_Energie_neutraal
 --------------------------------------
 Structure from the checkpoint file:  "JID_3713.chk"
 Charge =  0 Multiplicity = 1

 SCF Done:  E(RB3LYP) =  -956.832054204     A.U. after   15 cycles
 Normal termination of Gaussian 16 at Sun Dec 13 20:15:56 2020.

 ----------------------------------------------------------------------
 # B3LYP/6-311++G(d,p) empiricaldispersion=gd3bj scf=xqc pop=npa geom=c
 heck
 ----------------------------------------------------------------------

 ------------------------------------
 CID_43538790_JID_3713_Energie_kation
 ------------------------------------
 Structure from the checkpoint file:  "JID_3713.chk"
 Charge =  1 Multiplicity = 2

 SCF Done:  E(UB3LYP) =  -956.548906695     A.U. after   21 cycles
 Normal termination of Gaussian 16 at Sun Dec 13 20:24:11 2020.
 Gaussian 16:  ES64L-G16RevA.03 25-Dec-2016

 ----------------------------------------------------------------------
 # B3LYP/6-311++G(d,p) empiricaldispersion=gd3bj scf=xqc pop=npa geom=c
 heck
 ----------------------------------------------------------------------

 -----------------------------------
 CID_43538790_JID_3713_Energie_anion
 -----------------------------------
 Structure from the checkpoint file:  "JID_3713.chk"
 Charge = -1 Multiplicity = 2

                         Standard orientation:
 ---------------------------------------------------------------------
 Center     Atomic      Atomic             Coordinates (Angstroms)
 Number     Number       Type             X           Y           Z
 ---------------------------------------------------------------------
      1          6           0       -2.356719    1.677152    1.107208
      2          6           0       -2.401074    0.806793   -0.155881
      3          6           0       -1.163208    0.899295   -1.092745
      4          7           0       -0.103178   -0.067230   -0.827148
      5          6           0        0.694603   -0.308217   -2.025704
      6          6           0        0.647091    0.154206    0.415027
      7          6           0        1.601354    1.372182    0.452956
      8          6           0        2.961264    0.977846   -0.131977
      9         16           0        3.256878   -0.773209    0.372688
     10          6           0        1.484156   -1.084421    0.801470
     11          6           0       -2.681085   -0.666736    0.085056
     12          8           0       -3.195772   -1.407972   -0.721108
     13          8           0       -2.277855   -1.094729    1.309257
     14          1           0       -1.607583    1.351136    1.830205
     15          1           0       -3.326555    1.664848    1.615291
     16          1           0       -2.135936    2.713829    0.830096
     17          1           0       -3.246240    1.154452   -0.760615
     18          1           0       -1.517492    0.683142   -2.104264
     19          1           0       -0.807159    1.947291   -1.101026
     20          1           0        1.140759    0.607323   -2.453928
     21          1           0        1.504582   -1.006857   -1.806416
     22          1           0        0.055529   -0.756933   -2.793578
     23          1           0       -0.108076    0.276584    1.189414
     24          1           0        1.735645    1.670113    1.499270
     25          1           0        1.176910    2.232606   -0.077492
     26          1           0        2.973315    1.051622   -1.221780
     27          1           0        3.772382    1.594877    0.262526
     28          1           0        1.419575   -1.266255    1.876847
     29          1           0        1.116034   -1.970111    0.279750
     30          1           0       -2.462775   -2.052701    1.325076
 ---------------------------------------------------------------------

 SCF Done:  E(UB3LYP) =  -956.820838606     A.U. after   32 cycles

 The electronic state is 2-A.
 Alpha  occ. eigenvalues --  -88.73698 -19.07015 -19.01393 -14.21072 -10.20564
 Alpha  occ. eigenvalues --  -10.10815 -10.10371 -10.09993 -10.09714 -10.09339
 Alpha  occ. eigenvalues --  -10.09101 -10.07532 -10.06373  -7.82321  -5.78715
 Alpha  occ. eigenvalues --   -5.78363  -5.77685  -1.00985  -0.92046  -0.83462
 Alpha  occ. eigenvalues --   -0.73517  -0.70173  -0.63758  -0.62729  -0.60264
 Alpha  occ. eigenvalues --   -0.56347  -0.54442  -0.49331  -0.48294  -0.45496
 Alpha  occ. eigenvalues --   -0.41500  -0.39711  -0.38808  -0.37773  -0.37428
 Alpha  occ. eigenvalues --   -0.35451  -0.34195  -0.33069  -0.32232  -0.30976
 Alpha  occ. eigenvalues --   -0.30496  -0.29855  -0.29441  -0.28406  -0.27064
 Alpha  occ. eigenvalues --   -0.26697  -0.26000  -0.25289  -0.24339  -0.23657
 Alpha  occ. eigenvalues --   -0.22325  -0.20865  -0.18100  -0.13179  -0.11550
 Alpha  occ. eigenvalues --    0.04256
 Alpha virt. eigenvalues --    0.06467   0.07090   0.07553   0.08674   0.09105
 Alpha virt. eigenvalues --    0.09250   0.10004   0.10080   0.10595   0.11304
 Alpha virt. eigenvalues --    0.11876   0.12520   0.12939   0.13046   0.13400

  Beta  occ. eigenvalues --  -88.73698 -19.06977 -19.01380 -14.21066 -10.20558
  Beta  occ. eigenvalues --  -10.10808 -10.10350 -10.09974 -10.09699 -10.09324
  Beta  occ. eigenvalues --  -10.09084 -10.07501 -10.06332  -7.82320  -5.78714
  Beta  occ. eigenvalues --   -5.78361  -5.77685  -1.00938  -0.92005  -0.83445
  Beta  occ. eigenvalues --   -0.73489  -0.70132  -0.63723  -0.62692  -0.60216
  Beta  occ. eigenvalues --   -0.56268  -0.54385  -0.49261  -0.48249  -0.45440
  Beta  occ. eigenvalues --   -0.41461  -0.39672  -0.38774  -0.37736  -0.37388
  Beta  occ. eigenvalues --   -0.35400  -0.34159  -0.33040  -0.32197  -0.30936
  Beta  occ. eigenvalues --   -0.30469  -0.29816  -0.29410  -0.28365  -0.27028
  Beta  occ. eigenvalues --   -0.26662  -0.25963  -0.25255  -0.24301  -0.23623
  Beta  occ. eigenvalues --   -0.22294  -0.20846  -0.18046  -0.13157  -0.11521
  Beta virt. eigenvalues --    0.06604   0.07393   0.07868   0.08079   0.09077
  Beta virt. eigenvalues --    0.09411   0.09827   0.10165   0.10415   0.10955
  Beta virt. eigenvalues --    0.11674   0.12209   0.12829   0.13135   0.13401

 Mulliken charges and spin densities:
               1          2
     1  C    1.653024  -2.329415
     2  C   -1.559223   1.822565
     3  C    1.210655  -1.579090
     4  N    0.210870   0.039037
     5  C    0.346723  -0.784796
     6  C   -0.346380   0.899448
     7  C   -0.294370  -0.752367
     8  C    0.108313  -0.237499
     9  S    0.124812  -0.226450
    10  C   -0.688149  -0.141733
    11  C    0.022939  -0.211868
    12  O   -0.281930   0.018683
    13  O   -0.113761  -0.003665
    14  H   -0.400117   0.576129
    15  H   -0.310653   0.477953
    16  H   -0.347940   0.487427
    17  H   -0.348736   0.600465
    18  H    0.184082  -0.019084
    19  H   -0.121552   0.239911
    20  H   -0.147889   0.299641
    21  H    0.201359  -0.058738
    22  H    0.113037   0.033768
    23  H    0.995418  -0.748713
    24  H   -0.261891   0.433473
    25  H   -0.386727   0.540147
    26  H    0.151209   0.003186
    27  H   -0.269221   0.506127
    28  H   -0.307517   0.508360
    29  H    0.079902   0.119103
    30  H   -0.216285   0.487995
 Sum of Mulliken charges =  -1.00000   1.00000

 Dipole moment (field-independent basis, Debye):
    X=              2.4069    Y=             -2.5640    Z=             -2.4137  Tot=              4.2654
 Quadrupole moment (field-independent basis, Debye-Ang):
   XX=           -153.0348   YY=           -135.7734   ZZ=           -125.3975
   XY=             -1.6693   XZ=             -2.3067   YZ=             -1.6409

 Summary of Natural Population Analysis:

                                       Natural Population
                Natural  -----------------------------------------------
    Atom  No    Charge         Core      Valence    Rydberg      Total
 -----------------------------------------------------------------------
      C    1   -0.28373      0.99965     2.27745    0.00663     3.28373
      C    2   -0.15994      0.99955     2.14881    0.01158     3.15994
      C    3   -0.07564      0.99959     2.06338    0.01268     3.07564
      N    4   -0.28394      0.99971     2.77176    0.01247     3.78394
      C    5   -0.18050      0.99964     2.17371    0.00715     3.18050
      C    6   -0.01374      0.99955     1.99884    0.01535     3.01374
      C    7   -0.20815      0.99960     2.19808    0.01047     3.20815
      C    8   -0.24339      0.99960     2.23422    0.00957     3.24339
      S    9    0.06215      4.99966     2.92222    0.01597     7.93785
      C   10   -0.24475      0.99957     2.23536    0.00982     3.24475
      C   11    0.41731      0.99967     1.55563    0.02739     2.58269
      O   12   -0.30997      0.99987     3.30410    0.00601     4.30997
      O   13   -0.34613      0.99988     3.33838    0.00788     4.34613
      H   14    0.10208      0.00000     0.39594    0.00198     0.39792
      H   15    0.10285      0.00000     0.39576    0.00139     0.39715
      H   16    0.10260      0.00000     0.39569    0.00172     0.39740
      H   17    0.11310      0.00000     0.38553    0.00138     0.38690
      H   18    0.10131      0.00000     0.39729    0.00140     0.39869
      H   19    0.08771      0.00000     0.41034    0.00195     0.41229
      H   20    0.08040      0.00000     0.41807    0.00153     0.41960
      H   21    0.10135      0.00000     0.39713    0.00151     0.39865
      H   22    0.09557      0.00000     0.40349    0.00094     0.40443
      H   23    0.11044      0.00000     0.38576    0.00379     0.38956
      H   24    0.10512      0.00000     0.39319    0.00168     0.39488
      H   25    0.10901      0.00000     0.38923    0.00176     0.39099
      H   26    0.09742      0.00000     0.40068    0.00190     0.40258
      H   27    0.10564      0.00000     0.39287    0.00150     0.39436
      H   28    0.10623      0.00000     0.39221    0.00156     0.39377
      H   29    0.10837      0.00000     0.38991    0.00172     0.39163
      H   30    0.24124      0.00000     0.25202    0.00674     0.25876
 =======================================================================
   * Total *   -0.00000     16.99551    37.81706    0.18743    55.00000

 Normal termination of Gaussian 16 at Sun Dec 13 20:36:40 2020.
