 Gaussian 16, Revision A.03,

 -----------------------------------------------------------
 # opt freq B3LYP/6-31G(d) empiricaldispersion=gd3bj scf=xqc
 -----------------------------------------------------------

 -----------------------------
 CID_87721542_JID_622_neutraal
 -----------------------------
 Symbolic Z-matrix:
 Charge =  0 Multiplicity = 1

 SCF Done:  E(RB3LYP) =  -1214.73082152     A.U. after   14 cycles
 SCF Done:  E(RB3LYP) =  -1214.73808207     A.U. after   13 cycles
 SCF Done:  E(RB3LYP) =  -1214.73817285     A.U. after   13 cycles
 SCF Done:  E(RB3LYP) =  -1214.74021522     A.U. after   13 cycles
 SCF Done:  E(RB3LYP) =  -1214.74118571     A.U. after   12 cycles
 SCF Done:  E(RB3LYP) =  -1214.74076972     A.U. after   12 cycles
 SCF Done:  E(RB3LYP) =  -1214.74182859     A.U. after   13 cycles
 SCF Done:  E(RB3LYP) =  -1214.74224777     A.U. after   11 cycles
 SCF Done:  E(RB3LYP) =  -1214.74240865     A.U. after   11 cycles
 SCF Done:  E(RB3LYP) =  -1214.74247165     A.U. after   11 cycles
 SCF Done:  E(RB3LYP) =  -1214.74248217     A.U. after   11 cycles
 SCF Done:  E(RB3LYP) =  -1214.74248389     A.U. after    9 cycles
 SCF Done:  E(RB3LYP) =  -1214.74248411     A.U. after    8 cycles
 Optimization completed.
    -- Stationary point found.
 Normal termination of Gaussian 16 at Tue Dec  8 12:20:29 2020.

 --------------------------------------------------------------------
 #N Geom=AllCheck Guess=TCheck SCRF=Check GenChk RB3LYP/6-31G(d) Freq
 --------------------------------------------------------------------

 Structure from the checkpoint file:  "JID_622.chk"
 -----------------------------
 CID_87721542_JID_622_neutraal
 -----------------------------
 Charge =  0 Multiplicity = 1

 SCF Done:  E(RB3LYP) =  -1214.74248411     A.U. after    1 cycles

  Exact polarizability: 102.655  -1.502  87.955  -3.268  -0.516  82.985
 Approx polarizability: 146.088  -4.760 144.058  -8.862   0.783 131.113

                      1                      2                      3
                      A                      A                      A
 Frequencies --     76.1263               135.0910               168.9033
 Red. masses --      5.2017                 4.5771                 5.8998
 Frc consts  --      0.0178                 0.0492                 0.0992
 IR Inten    --      5.6443                 1.4662                 3.0185

                      4                      5                      6
                      A                      A                      A
 Frequencies --    209.7245               234.2258               247.6820
 Red. masses --      2.1050                 3.4984                 4.1494
 Frc consts  --      0.0546                 0.1131                 0.1500
 IR Inten    --     41.5908                 6.0043                 5.7406

                      7                      8                      9
                      A                      A                      A
 Frequencies --    281.3020               338.8378               379.1154
 Red. masses --      2.4109                 3.6680                 6.4408
 Frc consts  --      0.1124                 0.2481                 0.5454
 IR Inten    --      2.0829                 4.1638                 3.6762

                     10                     11                     12
                      A                      A                      A
 Frequencies --    411.7330               435.8616               445.3271
 Red. masses --      2.0636                 5.4361                 3.5049
 Frc consts  --      0.2061                 0.6085                 0.4095
 IR Inten    --     23.5227                23.7817                35.8952

                     13                     14                     15
                      A                      A                      A
 Frequencies --    491.1531               515.8845               597.5531
 Red. masses --      2.7917                 4.3668                 3.7101
 Frc consts  --      0.3968                 0.6847                 0.7805
 IR Inten    --      8.3314                 8.6418                66.6835

                     16                     17                     18
                      A                      A                      A
 Frequencies --    664.2129               671.4073               730.7275
 Red. masses --      4.1008                 4.3857                 3.6840
 Frc consts  --      1.0659                 1.1648                 1.1590
 IR Inten    --      2.2827                54.1651                33.7964

                     19                     20                     21
                      A                      A                      A
 Frequencies --    756.5519               818.2775               880.0336
 Red. masses --      3.6681                 1.7444                 2.0824
 Frc consts  --      1.2370                 0.6882                 0.9502
 IR Inten    --     41.2073                32.4250                 0.3424

                     22                     23                     24
                      A                      A                      A
 Frequencies --    927.7663               952.7429               983.6631
 Red. masses --      1.4986                 2.4078                 2.2466
 Frc consts  --      0.7600                 1.2877                 1.2808
 IR Inten    --     63.4369                62.6302                28.7943

                     25                     26                     27
                      A                      A                      A
 Frequencies --   1032.9166              1065.2814              1086.9328
 Red. masses --      1.6522                 1.7893                 1.6547
 Frc consts  --      1.0386                 1.1963                 1.1518
 IR Inten    --     13.1941                 4.3743                 0.8973

                     28                     29                     30
                      A                      A                      A
 Frequencies --   1110.1372              1158.0754              1179.9738
 Red. masses --      5.6956                 4.2191                 1.3169
 Frc consts  --      4.1357                 3.3338                 1.0803
 IR Inten    --    140.6757                32.0291                33.3854

                     31                     32                     33
                      A                      A                      A
 Frequencies --   1206.7685              1232.4399              1266.4267
 Red. masses --      1.2088                 1.0889                 1.4909
 Frc consts  --      1.0371                 0.9744                 1.4088
 IR Inten    --      1.0011                14.8134                28.9009

                     34                     35                     36
                      A                      A                      A
 Frequencies --   1283.0575              1319.0745              1333.4373
 Red. masses --      1.2864                 1.4418                 3.5037
 Frc consts  --      1.2478                 1.4781                 3.6705
 IR Inten    --      6.6919                46.8716               139.0991

                     37                     38                     39
                      A                      A                      A
 Frequencies --   1353.5397              1374.8187              1440.4651
 Red. masses --      1.2531                 1.2244                 1.4338
 Frc consts  --      1.3526                 1.3635                 1.7529
 IR Inten    --     10.4970                19.5754                 7.3445

                     40                     41                     42
                      A                      A                      A
 Frequencies --   1492.0159              1501.9960              1513.4229
 Red. masses --      1.1477                 1.1949                 1.1055
 Frc consts  --      1.5053                 1.5883                 1.4918
 IR Inten    --     14.3585                 1.0941                 1.7044

                     43                     44                     45
                      A                      A                      A
 Frequencies --   1525.9004              1597.4608              2979.0704
 Red. masses --      1.1056                 1.0976                 1.0708
 Frc consts  --      1.5167                 1.6503                 5.5992
 IR Inten    --      6.9458                74.6525                59.2112

                     46                     47                     48
                      A                      A                      A
 Frequencies --   2987.2504              3081.0319              3096.8912
 Red. masses --      1.0722                 1.0887                 1.0639
 Frc consts  --      5.6371                 6.0893                 6.0120
 IR Inten    --     56.4545                19.0307                24.6896

                     49                     50                     51
                      A                      A                      A
 Frequencies --   3109.7801              3130.8175              3158.4421
 Red. masses --      1.0852                 1.0911                 1.1059
 Frc consts  --      6.1834                 6.3011                 6.5000
 IR Inten    --      0.5179                 4.0237                 2.5952

                     52                     53                     54
                      A                      A                      A
 Frequencies --   3391.1968              3521.6254              3549.5326
 Red. masses --      1.0534                 1.0751                 1.0914
 Frc consts  --      7.1373                 7.8556                 8.1019
 IR Inten    --     65.0692                 1.2742                52.3048

 - Thermochemistry -
 -------------------
 Temperature   298.150 Kelvin.  Pressure   1.00000 Atm.
 Atom     1 has atomic number  6 and mass  12.00000

 Molecular mass:   182.01837 amu.
 Principal axes and moments of inertia in atomic units:
                           1         2         3
     Eigenvalues --  1113.805542094.434092440.80461
           X            0.99977   0.02053  -0.00541
           Y           -0.02039   0.99948   0.02478
           Z            0.00592  -0.02466   0.99968
 This molecule is an asymmetric top.
 Rotational symmetry number  1.
 Warning -- assumption of classical behavior for rotation
           may cause significant error
 Rotational temperatures (Kelvin)      0.07776     0.04135     0.03549
 Rotational constants (GHZ):           1.62034     0.86168     0.73940
 Zero-point vibrational energy     421287.0 (Joules/Mol)
                                  100.69001 (Kcal/Mol)
 Warning -- explicit consideration of  15 degrees of freedom as
           vibrations may cause significant error
 Vibrational temperatures:    109.53   194.37   243.01   301.75   337.00
          (Kelvin)            356.36   404.73   487.51   545.46   592.39
                              627.11   640.73   706.66   742.24   859.75
                              955.65   966.01  1051.35  1088.51  1177.32
                             1266.17  1334.85  1370.78  1415.27  1486.14
                             1532.70  1563.85  1597.24  1666.21  1697.72
                             1736.27  1773.21  1822.11  1846.03  1897.85
                             1918.52  1947.44  1978.06  2072.51  2146.68
                             2161.04  2177.48  2195.43  2298.39  4286.22
                             4297.99  4432.92  4455.74  4474.28  4504.55
                             4544.29  4879.18  5066.83  5106.99

 Zero-point correction=                           0.160460 (Hartree/Particle)
 Thermal correction to Energy=                    0.170473
 Thermal correction to Enthalpy=                  0.171418
 Thermal correction to Gibbs Free Energy=         0.125213
 Sum of electronic and zero-point Energies=          -1214.582024
 Sum of electronic and thermal Energies=             -1214.572011
 Sum of electronic and thermal Enthalpies=           -1214.571066
 Sum of electronic and thermal Free Energies=        -1214.617271

                     E (Thermal)             CV                S
                      KCal/Mol        Cal/Mol-Kelvin    Cal/Mol-Kelvin
 Total                  106.974             38.701             97.246
 Electronic               0.000              0.000              0.000
 Translational            0.889              2.981             41.503
 Rotational               0.889              2.981             30.122
 Vibrational            105.196             32.739             25.621
 Vibration     1          0.599              1.965              3.988
 Vibration     2          0.613              1.918              2.872
 Vibration     3          0.625              1.881              2.448
 Vibration     4          0.642              1.826              2.046
 Vibration     5          0.654              1.788              1.846
 Vibration     6          0.661              1.767              1.747
 Vibration     7          0.681              1.708              1.526
 Vibration     8          0.719              1.598              1.218
 Vibration     9          0.749              1.515              1.043
 Vibration    10          0.776              1.445              0.921
 Vibration    11          0.796              1.392              0.840
 Vibration    12          0.805              1.371              0.810
 Vibration    13          0.847              1.270              0.681
 Vibration    14          0.871              1.215              0.620
 Vibration    15          0.955              1.037              0.454

                           ! Non-Optimized Parameters !
 Normal termination of Gaussian 16 at Tue Dec  8 12:26:57 2020.

 ----------------------------------------------------------------------
 # B3LYP/6-311++G(d,p) empiricaldispersion=gd3bj scf=xqc pop=npa geom=c
 heck
 ----------------------------------------------------------------------

 -------------------------------------
 CID_87721542_JID_622_Energie_neutraal
 -------------------------------------
 Structure from the checkpoint file:  "JID_622.chk"
 Charge =  0 Multiplicity = 1

 SCF Done:  E(RB3LYP) =  -1214.92957574     A.U. after   14 cycles
 Normal termination of Gaussian 16 at Tue Dec  8 12:29:40 2020.

 ----------------------------------------------------------------------
 # B3LYP/6-311++G(d,p) empiricaldispersion=gd3bj scf=xqc pop=npa geom=c
 heck
 ----------------------------------------------------------------------

 -----------------------------------
 CID_87721542_JID_622_Energie_kation
 -----------------------------------
 Structure from the checkpoint file:  "JID_622.chk"
 Charge =  1 Multiplicity = 2

 SCF Done:  E(UB3LYP) =  -1214.60692884     A.U. after   24 cycles
 Normal termination of Gaussian 16 at Tue Dec  8 12:40:05 2020.
 Gaussian 16:  ES64L-G16RevA.03 25-Dec-2016

 ----------------------------------------------------------------------
 # B3LYP/6-311++G(d,p) empiricaldispersion=gd3bj scf=xqc pop=npa geom=c
 heck
 ----------------------------------------------------------------------

 ----------------------------------
 CID_87721542_JID_622_Energie_anion
 ----------------------------------
 Structure from the checkpoint file:  "JID_622.chk"
 Charge = -1 Multiplicity = 2

                         Standard orientation:
 ---------------------------------------------------------------------
 Center     Atomic      Atomic             Coordinates (Angstroms)
 Number     Number       Type             X           Y           Z
 ---------------------------------------------------------------------
      1          6           0       -2.474723   -0.697584    0.428415
      2          6           0       -2.017630    0.705586    0.818405
      3         16           0       -1.050806    1.536683   -0.504535
      4          6           0        0.060038    0.175655   -0.972206
      5          6           0       -0.658573   -1.167703   -1.128869
      6          7           0       -1.323855   -1.556845    0.117186
      7         16           0        1.567735   -0.004874    0.077314
      8          8           0        2.256787   -1.206612   -0.424466
      9          8           0        2.293311    1.262445    0.149653
     10          7           0        0.874004   -0.269539    1.600497
     11          1           0       -3.008990   -1.141037    1.276531
     12          1           0       -3.177881   -0.631300   -0.419859
     13          1           0       -2.884265    1.352102    0.984287
     14          1           0       -1.410525    0.678421    1.724715
     15          1           0        0.499421    0.466002   -1.931623
     16          1           0        0.079063   -1.931371   -1.386456
     17          1           0       -1.364732   -1.060510   -1.969395
     18          1           0       -1.633432   -2.521698    0.035539
     19          1           0        0.296642   -1.115470    1.539393
     20          1           0        1.627344   -0.361780    2.282645
 ---------------------------------------------------------------------

 SCF Done:  E(UB3LYP) =  -1214.92267143     A.U. after   25 cycles

 The electronic state is 2-A.
 Alpha  occ. eigenvalues --  -88.96071 -88.75363 -19.01910 -19.01701 -14.23794
 Alpha  occ. eigenvalues --  -14.20865 -10.14489 -10.11186 -10.09764 -10.09636
 Alpha  occ. eigenvalues --   -8.02360  -7.83974  -5.98633  -5.98579  -5.98440
 Alpha  occ. eigenvalues --   -5.80381  -5.80001  -5.79321  -1.01868  -0.90807
 Alpha  occ. eigenvalues --   -0.82748  -0.80778  -0.71972  -0.68266  -0.58065
 Alpha  occ. eigenvalues --   -0.56033  -0.52428  -0.47481  -0.44084  -0.41329
 Alpha  occ. eigenvalues --   -0.40229  -0.38457  -0.36516  -0.36231  -0.34497
 Alpha  occ. eigenvalues --   -0.32717  -0.31868  -0.29853  -0.28593  -0.26043
 Alpha  occ. eigenvalues --   -0.24674  -0.24060  -0.22224  -0.21796  -0.20699
 Alpha  occ. eigenvalues --   -0.18336  -0.15032  -0.13680   0.04342
 Alpha virt. eigenvalues --    0.07362   0.07618   0.08295   0.09668   0.10070
 Alpha virt. eigenvalues --    0.10931   0.11432   0.12811   0.13024   0.13389
 Alpha virt. eigenvalues --    0.13941   0.14677   0.15408   0.16023   0.16589

  Beta  occ. eigenvalues --  -88.96067 -88.75359 -19.01904 -19.01695 -14.23768
  Beta  occ. eigenvalues --  -14.20807 -10.14488 -10.11161 -10.09743 -10.09586
  Beta  occ. eigenvalues --   -8.02357  -7.83970  -5.98629  -5.98578  -5.98433
  Beta  occ. eigenvalues --   -5.80377  -5.79999  -5.79315  -1.01854  -0.90795
  Beta  occ. eigenvalues --   -0.82680  -0.80728  -0.71930  -0.68212  -0.58015
  Beta  occ. eigenvalues --   -0.55951  -0.52364  -0.47407  -0.44016  -0.41223
  Beta  occ. eigenvalues --   -0.40195  -0.38420  -0.36491  -0.36187  -0.34436
  Beta  occ. eigenvalues --   -0.32690  -0.31798  -0.29774  -0.28527  -0.26023
  Beta  occ. eigenvalues --   -0.24628  -0.24032  -0.22195  -0.21773  -0.20670
  Beta  occ. eigenvalues --   -0.18314  -0.14932  -0.13646
  Beta virt. eigenvalues --    0.07211   0.07959   0.08367   0.09561   0.10429
  Beta virt. eigenvalues --    0.10636   0.11188   0.11843   0.13105   0.13307
  Beta virt. eigenvalues --    0.13899   0.14561   0.14880   0.15581   0.16122

 Mulliken charges and spin densities:
               1          2
     1  C    1.834273  -2.074081
     2  C   -0.728866   0.105105
     3  S    0.254881  -0.359491
     4  C   -0.891976   0.892125
     5  C    1.376133  -1.906334
     6  N   -0.613712   0.383593
     7  S    0.348183  -0.299052
     8  O   -0.140460   0.014693
     9  O   -0.195377   0.003235
    10  N   -0.391195  -0.108053
    11  H   -1.122331   1.323433
    12  H   -0.175735   0.310757
    13  H   -0.482634   0.726561
    14  H    0.282549  -0.038377
    15  H    0.194945   0.146799
    16  H    0.059188   0.196283
    17  H   -0.405723   0.535984
    18  H   -0.466085   0.773888
    19  H    0.129681   0.196643
    20  H    0.134262   0.176290
 Sum of Mulliken charges =  -1.00000   1.00000

 Dipole moment (field-independent basis, Debye):
    X=              4.8726    Y=              4.1681    Z=             -1.1456  Tot=              6.5136
 Quadrupole moment (field-independent basis, Debye-Ang):
   XX=           -136.9825   YY=           -121.1641   ZZ=           -100.9292
   XY=            -12.8030   XZ=              7.8191   YZ=              0.2238

 Summary of Natural Population Analysis:

                                       Natural Population
                Natural  -----------------------------------------------
    Atom  No    Charge         Core      Valence    Rydberg      Total
 -----------------------------------------------------------------------
      C    1   -0.09371      0.99960     2.07995    0.01416     3.09371
      C    2   -0.25343      0.99958     2.24261    0.01124     3.25343
      S    3    0.11820      4.99958     2.86457    0.01765     7.88180
      C    4   -0.28196      0.99953     2.26528    0.01715     3.28196
      C    5   -0.10386      0.99957     2.08935    0.01494     3.10386
      N    6   -0.35766      0.99974     2.84051    0.01742     3.85766
      S    7    1.07973      4.99928     1.82162    0.09937     6.92027
      O    8   -0.46723      0.99991     3.46169    0.00563     4.46723
      O    9   -0.46124      0.99990     3.45541    0.00593     4.46124
      N   10   -0.52025      0.99978     3.01000    0.01046     4.02025
      H   11    0.10782      0.00000     0.38493    0.00725     0.39218
      H   12    0.08545      0.00000     0.41127    0.00328     0.41455
      H   13    0.11047      0.00000     0.38810    0.00143     0.38953
      H   14    0.11133      0.00000     0.38672    0.00195     0.38867
      H   15    0.12470      0.00000     0.37418    0.00111     0.37530
      H   16    0.11412      0.00000     0.38421    0.00167     0.38588
      H   17    0.09337      0.00000     0.40456    0.00208     0.40663
      H   18    0.19460      0.00000     0.28978    0.01561     0.30540
      H   19    0.20857      0.00000     0.28816    0.00327     0.29143
      H   20    0.19098      0.00000     0.30706    0.00196     0.30902
 =======================================================================
   * Total *    0.00000     17.99647    29.74997    0.25356    48.00000

 Normal termination of Gaussian 16 at Tue Dec  8 12:48:48 2020.
