 Gaussian 16, Revision A.03,

 -----------------------------------------------------------
 # opt freq B3LYP/6-31G(d) empiricaldispersion=gd3bj scf=xqc
 -----------------------------------------------------------

 ------------------------------
 CID_60776168_JID_4384_neutraal
 ------------------------------
 Symbolic Z-matrix:
 Charge =  0 Multiplicity = 1

 SCF Done:  E(RB3LYP) =  -653.139699079     A.U. after   15 cycles
 SCF Done:  E(RB3LYP) =  -653.143961395     A.U. after   12 cycles
 SCF Done:  E(RB3LYP) =  -653.144631566     A.U. after   13 cycles
 SCF Done:  E(RB3LYP) =  -653.144817441     A.U. after   12 cycles
 SCF Done:  E(RB3LYP) =  -653.143825746     A.U. after   13 cycles
 SCF Done:  E(RB3LYP) =  -653.145274954     A.U. after   11 cycles
 SCF Done:  E(RB3LYP) =  -653.145500842     A.U. after   11 cycles
 SCF Done:  E(RB3LYP) =  -653.145629116     A.U. after   12 cycles
 SCF Done:  E(RB3LYP) =  -653.145686996     A.U. after   12 cycles
 SCF Done:  E(RB3LYP) =  -653.145734206     A.U. after   10 cycles
 SCF Done:  E(RB3LYP) =  -653.145754962     A.U. after    9 cycles
 SCF Done:  E(RB3LYP) =  -653.145756743     A.U. after    9 cycles
 SCF Done:  E(RB3LYP) =  -653.145757308     A.U. after    8 cycles
 SCF Done:  E(RB3LYP) =  -653.145757721     A.U. after    8 cycles
 SCF Done:  E(RB3LYP) =  -653.145757755     A.U. after    7 cycles
 Optimization completed.
    -- Stationary point found.
 Normal termination of Gaussian 16 at Thu Dec 10 09:31:54 2020.

 --------------------------------------------------------------------
 #N Geom=AllCheck Guess=TCheck SCRF=Check GenChk RB3LYP/6-31G(d) Freq
 --------------------------------------------------------------------

 Structure from the checkpoint file:  "JID_4384.chk"
 ------------------------------
 CID_60776168_JID_4384_neutraal
 ------------------------------
 Charge =  0 Multiplicity = 1

 SCF Done:  E(RB3LYP) =  -653.145757755     A.U. after    1 cycles

  Exact polarizability: 133.022  -0.381 112.513   2.799  -1.951 119.624
 Approx polarizability: 165.233   0.225 154.564  15.854   3.000 196.931

                      1                      2                      3
                      A                      A                      A
 Frequencies --     39.8636                44.4235                67.6310
 Red. masses --      3.6076                 4.0038                 4.0627
 Frc consts  --      0.0034                 0.0047                 0.0109
 IR Inten    --      1.0689                 2.9561                 1.1268

                      4                      5                      6
                      A                      A                      A
 Frequencies --     72.5100                76.7257                94.4446
 Red. masses --      2.9803                 3.8267                 4.5849
 Frc consts  --      0.0092                 0.0133                 0.0241
 IR Inten    --      0.2061                 0.7788                 3.8406

                      7                      8                      9
                      A                      A                      A
 Frequencies --    130.0494               152.8399               185.7505
 Red. masses --      3.5099                 2.4307                 1.5983
 Frc consts  --      0.0350                 0.0335                 0.0325
 IR Inten    --      0.6080                 4.6159                 1.3279

                     10                     11                     12
                      A                      A                      A
 Frequencies --    193.2359               211.0230               228.7756
 Red. masses --      1.7643                 1.7488                 1.2237
 Frc consts  --      0.0388                 0.0459                 0.0377
 IR Inten    --      0.0181                 0.7555                 0.3132

                     13                     14                     15
                      A                      A                      A
 Frequencies --    237.2485               238.9363               253.5871
 Red. masses --      1.5152                 1.7357                 1.5556
 Frc consts  --      0.0502                 0.0584                 0.0589
 IR Inten    --      2.1235                 0.8127                 0.5280

                     16                     17                     18
                      A                      A                      A
 Frequencies --    283.0567               330.0131               351.7573
 Red. masses --      3.3978                 2.1127                 3.6360
 Frc consts  --      0.1604                 0.1356                 0.2651
 IR Inten    --      0.8879                 0.2413                 2.6236

                     19                     20                     21
                      A                      A                      A
 Frequencies --    390.4380               426.6143               438.3118
 Red. masses --      2.2530                 2.8262                 2.8549
 Frc consts  --      0.2024                 0.3031                 0.3232
 IR Inten    --      2.2314                 3.2368                10.5315

                     22                     23                     24
                      A                      A                      A
 Frequencies --    481.5549               528.7197               576.0620
 Red. masses --      2.8881                 1.8905                 3.8152
 Frc consts  --      0.3946                 0.3114                 0.7459
 IR Inten    --      2.3490                24.5579                 8.3455

                     25                     26                     27
                      A                      A                      A
 Frequencies --    602.3163               625.5117               672.3175
 Red. masses --      1.3973                 1.8493                 3.8171
 Frc consts  --      0.2987                 0.4263                 1.0166
 IR Inten    --    111.0521                50.7049                 9.6529

                     28                     29                     30
                      A                      A                      A
 Frequencies --    718.0111               744.0902               763.4904
 Red. masses --      3.5292                 4.2884                 2.9583
 Frc consts  --      1.0720                 1.3989                 1.0160
 IR Inten    --     17.2331                23.4274                 9.1526

                     31                     32                     33
                      A                      A                      A
 Frequencies --    810.8562               819.9545               861.7121
 Red. masses --      2.3992                 1.3272                 2.3694
 Frc consts  --      0.9294                 0.5257                 1.0366
 IR Inten    --      3.7864                 1.2158                 8.5134

                     34                     35                     36
                      A                      A                      A
 Frequencies --    921.8796               934.9386               959.2676
 Red. masses --      2.0219                 1.3954                 1.6238
 Frc consts  --      1.0124                 0.7186                 0.8803
 IR Inten    --      6.8584                 5.7866                 3.6930

                     37                     38                     39
                      A                      A                      A
 Frequencies --    980.1613              1001.4402              1044.0540
 Red. masses --      1.5370                 2.3531                 1.9937
 Frc consts  --      0.8700                 1.3904                 1.2804
 IR Inten    --      0.2594                 1.3530                 7.2446

                     40                     41                     42
                      A                      A                      A
 Frequencies --   1084.8769              1095.7355              1102.5617
 Red. masses --      1.7798                 1.9652                 1.6009
 Frc consts  --      1.2342                 1.3901                 1.1466
 IR Inten    --     25.6828                21.2001                11.8311

                     43                     44                     45
                      A                      A                      A
 Frequencies --   1137.4205              1146.4422              1163.1117
 Red. masses --      2.2238                 2.1172                 1.2591
 Frc consts  --      1.6951                 1.6395                 1.0036
 IR Inten    --     19.2013                 1.7194                 0.7612

                     46                     47                     48
                      A                      A                      A
 Frequencies --   1202.5048              1207.9720              1219.2278
 Red. masses --      1.9220                 1.9398                 2.4484
 Frc consts  --      1.6375                 1.6677                 2.1444
 IR Inten    --      7.3686                 3.0905                 5.4991

                     49                     50                     51
                      A                      A                      A
 Frequencies --   1275.3912              1286.9031              1311.3435
 Red. masses --      1.3770                 1.2444                 1.4436
 Frc consts  --      1.3197                 1.2143                 1.4626
 IR Inten    --     40.3895                14.2308                 9.3356

                     52                     53                     54
                      A                      A                      A
 Frequencies --   1340.6078              1354.9319              1365.6788
 Red. masses --      1.3359                 1.3288                 1.4044
 Frc consts  --      1.4145                 1.4373                 1.5432
 IR Inten    --     22.5854                 1.8503                10.4653

                     55                     56                     57
                      A                      A                      A
 Frequencies --   1386.4061              1402.8422              1408.9239
 Red. masses --      1.5625                 2.1993                 2.0995
 Frc consts  --      1.7696                 2.5500                 2.4556
 IR Inten    --     33.3178               105.2357                92.2690

                     58                     59                     60
                      A                      A                      A
 Frequencies --   1418.5917              1433.3663              1440.0998
 Red. masses --      1.4817                 1.2478                 1.2700
 Frc consts  --      1.7568                 1.5104                 1.5519
 IR Inten    --      8.6206                 2.5815                15.7674

                     61                     62                     63
                      A                      A                      A
 Frequencies --   1455.0132              1481.8375              1484.5428
 Red. masses --      1.2280                 1.5881                 1.6053
 Frc consts  --      1.5318                 2.0547                 2.0844
 IR Inten    --      0.9118                37.8440                61.9010

                     64                     65                     66
                      A                      A                      A
 Frequencies --   1504.9852              1508.8002              1520.4518
 Red. masses --      1.0959                 1.1833                 1.0535
 Frc consts  --      1.4625                 1.5872                 1.4349
 IR Inten    --      2.4464                 9.6355                 3.7726

                     67                     68                     69
                      A                      A                      A
 Frequencies --   1520.9921              1525.8602              1529.1165
 Red. masses --      1.0634                 1.0582                 1.0540
 Frc consts  --      1.4495                 1.4516                 1.4520
 IR Inten    --      8.6082                 6.9601                 3.0651

                     70                     71                     72
                      A                      A                      A
 Frequencies --   1530.0729              1536.4742              1539.0377
 Red. masses --      1.0526                 1.0570                 1.0850
 Frc consts  --      1.4519                 1.4702                 1.5143
 IR Inten    --      6.3911                 1.4170                16.0009

                     73                     74                     75
                      A                      A                      A
 Frequencies --   1543.1424              1555.8663              1772.4737
 Red. masses --      1.0536                 1.0709                 7.5892
 Frc consts  --      1.4782                 1.5274                14.0477
 IR Inten    --      5.7995                28.5208               200.9854

                     76                     77                     78
                      A                      A                      A
 Frequencies --   1781.5497              2997.2867              3042.0142
 Red. masses --      8.0225                 1.0817                 1.0365
 Frc consts  --     15.0022                 5.7256                 5.6513
 IR Inten    --    401.1461                41.4763                19.1082

                     79                     80                     81
                      A                      A                      A
 Frequencies --   3051.5124              3055.4256              3057.2945
 Red. masses --      1.0522                 1.0492                 1.0349
 Frc consts  --      5.7729                 5.7707                 5.6994
 IR Inten    --     31.6265                23.0783                19.2950

                     82                     83                     84
                      A                      A                      A
 Frequencies --   3068.4226              3079.2508              3093.8032
 Red. masses --      1.0344                 1.0650                 1.0821
 Frc consts  --      5.7382                 5.9496                 6.1026
 IR Inten    --     34.0799                13.7878                 9.5191

                     85                     86                     87
                      A                      A                      A
 Frequencies --   3102.7342              3107.2765              3113.9953
 Red. masses --      1.1011                 1.1021                 1.1018
 Frc consts  --      6.2454                 6.2695                 6.2948
 IR Inten    --      3.6257                11.3380                48.2167

                     88                     89                     90
                      A                      A                      A
 Frequencies --   3117.7774              3117.8867              3133.1137
 Red. masses --      1.1019                 1.1024                 1.1020
 Frc consts  --      6.3108                 6.3140                 6.3735
 IR Inten    --     28.7082                27.0375                21.9767

                     91                     92                     93
                      A                      A                      A
 Frequencies --   3134.8567              3141.7069              3149.6086
 Red. masses --      1.1026                 1.1038                 1.1037
 Frc consts  --      6.3839                 6.4193                 6.4508
 IR Inten    --     27.6510                34.8802                13.6476

                     94                     95                     96
                      A                      A                      A
 Frequencies --   3150.2870              3595.5628              3596.7790
 Red. masses --      1.0991                 1.0754                 1.0759
 Frc consts  --      6.4266                 8.1911                 8.2008
 IR Inten    --     17.4615                15.3287                27.5543

 - Thermochemistry -
 -------------------
 Temperature   298.150 Kelvin.  Pressure   1.00000 Atm.
 Atom     1 has atomic number  6 and mass  12.00000

 Molecular mass:   200.15248 amu.
 Principal axes and moments of inertia in atomic units:
                           1         2         3
     Eigenvalues --  2061.920034049.143784397.45203
           X            0.99943  -0.01857  -0.02816
           Y            0.01359   0.98576  -0.16760
           Z            0.03088   0.16713   0.98545
 This molecule is an asymmetric top.
 Rotational symmetry number  1.
 Warning -- assumption of classical behavior for rotation
           may cause significant error
 Rotational temperatures (Kelvin)      0.04201     0.02139     0.01970
 Rotational constants (GHZ):           0.87527     0.44571     0.41041
 Zero-point vibrational energy     795369.1 (Joules/Mol)
                                  190.09777 (Kcal/Mol)
 Warning -- explicit consideration of  25 degrees of freedom as
           vibrations may cause significant error
 Vibrational temperatures:     57.35    63.92    97.31   104.33   110.39
          (Kelvin)            135.88   187.11   219.90   267.25   278.02
                              303.62   329.16   341.35   343.78   364.86
                              407.26   474.82   506.10   561.75   613.80
                              630.63   692.85   760.71   828.82   866.60
                              899.97   967.31  1033.06  1070.58  1098.49
                             1166.64  1179.73  1239.81  1326.38  1345.17
                             1380.17  1410.23  1440.85  1502.16  1560.90
                             1576.52  1586.34  1636.49  1649.47  1673.46
                             1730.14  1738.00  1754.20  1835.00  1851.57
                             1886.73  1928.84  1949.44  1964.91  1994.73
                             2018.38  2027.13  2041.04  2062.29  2071.98
                             2093.44  2132.03  2135.93  2165.34  2170.83
                             2187.59  2188.37  2195.37  2200.06  2201.43
                             2210.64  2214.33  2220.24  2238.54  2550.19
                             2563.25  4312.43  4376.78  4390.45  4396.08
                             4398.76  4414.78  4430.36  4451.29  4464.14
                             4470.68  4480.34  4485.79  4485.94  4507.85
                             4510.36  4520.22  4531.58  4532.56  5173.21
                             5174.96

 Zero-point correction=                           0.302940 (Hartree/Particle)
 Thermal correction to Energy=                    0.319823
 Thermal correction to Enthalpy=                  0.320768
 Thermal correction to Gibbs Free Energy=         0.258195
 Sum of electronic and zero-point Energies=           -652.842818
 Sum of electronic and thermal Energies=              -652.825934
 Sum of electronic and thermal Enthalpies=            -652.824990
 Sum of electronic and thermal Free Energies=         -652.887562

                     E (Thermal)             CV                S
                      KCal/Mol        Cal/Mol-Kelvin    Cal/Mol-Kelvin
 Total                  200.692             61.054            131.694
 Electronic               0.000              0.000              0.000
 Translational            0.889              2.981             41.786
 Rotational               0.889              2.981             31.974
 Vibrational            198.915             55.092             57.934
 Vibration     1          0.594              1.981              5.266
 Vibration     2          0.595              1.980              5.051
 Vibration     3          0.598              1.970              4.221
 Vibration     4          0.599              1.967              4.084
 Vibration     5          0.599              1.965              3.973
 Vibration     6          0.603              1.953              3.566
 Vibration     7          0.612              1.923              2.945
 Vibration     8          0.619              1.900              2.637
 Vibration     9          0.632              1.859              2.270
 Vibration    10          0.635              1.849              2.197
 Vibration    11          0.643              1.824              2.035
 Vibration    12          0.651              1.797              1.889
 Vibration    13          0.656              1.784              1.823
 Vibration    14          0.657              1.781              1.811
 Vibration    15          0.665              1.757              1.706
 Vibration    16          0.682              1.705              1.515
 Vibration    17          0.713              1.616              1.260
 Vibration    18          0.728              1.572              1.158
 Vibration    19          0.758              1.491              0.998
 Vibration    20          0.788              1.412              0.870
 Vibration    21          0.798              1.387              0.832
 Vibration    22          0.838              1.291              0.706
 Vibration    23          0.884              1.186              0.590
 Vibration    24          0.932              1.083              0.493
 Vibration    25          0.961              1.027              0.446

                           ! Non-Optimized Parameters !
 Normal termination of Gaussian 16 at Thu Dec 10 09:43:45 2020.

 ----------------------------------------------------------------------
 # B3LYP/6-311++G(d,p) empiricaldispersion=gd3bj scf=xqc pop=npa geom=c
 heck
 ----------------------------------------------------------------------

 --------------------------------------
 CID_60776168_JID_4384_Energie_neutraal
 --------------------------------------
 Structure from the checkpoint file:  "JID_4384.chk"
 Charge =  0 Multiplicity = 1

 SCF Done:  E(RB3LYP) =  -653.344871876     A.U. after   15 cycles
 Normal termination of Gaussian 16 at Thu Dec 10 09:49:41 2020.

 ----------------------------------------------------------------------
 # B3LYP/6-311++G(d,p) empiricaldispersion=gd3bj scf=xqc pop=npa geom=c
 heck
 ----------------------------------------------------------------------

 ------------------------------------
 CID_60776168_JID_4384_Energie_kation
 ------------------------------------
 Structure from the checkpoint file:  "JID_4384.chk"
 Charge =  1 Multiplicity = 2

 SCF Done:  E(UB3LYP) =  -653.023231683     A.U. after   27 cycles
 Normal termination of Gaussian 16 at Thu Dec 10 10:04:47 2020.
 Gaussian 16:  ES64L-G16RevA.03 25-Dec-2016

 ----------------------------------------------------------------------
 # B3LYP/6-311++G(d,p) empiricaldispersion=gd3bj scf=xqc pop=npa geom=c
 heck
 ----------------------------------------------------------------------

 -----------------------------------
 CID_60776168_JID_4384_Energie_anion
 -----------------------------------
 Structure from the checkpoint file:  "JID_4384.chk"
 Charge = -1 Multiplicity = 2

                         Standard orientation:
 ---------------------------------------------------------------------
 Center     Atomic      Atomic             Coordinates (Angstroms)
 Number     Number       Type             X           Y           Z
 ---------------------------------------------------------------------
      1          6           0       -3.364901   -1.295489    1.194767
      2          6           0       -2.940831   -0.072773    0.363881
      3          6           0       -2.043574   -0.485299   -0.793858
      4          8           0       -2.482264   -0.679395   -1.922542
      5          7           0       -0.713767   -0.690841   -0.517736
      6          6           0        0.008161   -0.267569    0.668337
      7          6           0        1.347196   -1.022015    0.796179
      8          6           0        2.407533   -0.806507   -0.303312
      9          6           0        3.157083    0.524903   -0.153110
     10          6           0        3.402986   -1.975098   -0.287755
     11          6           0        0.167003    1.252594    0.872969
     12          8           0        0.383889    1.659040    2.009906
     13          7           0        0.020977    2.127285   -0.169111
     14          6           0        0.025031    1.908169   -1.613614
     15          1           0       -3.860254   -2.034469    0.557041
     16          1           0       -4.061950   -1.000464    1.985366
     17          1           0       -2.504372   -1.781427    1.667552
     18          1           0       -3.819855    0.395179   -0.085700
     19          1           0       -2.456794    0.671723    1.004443
     20          1           0       -0.178996   -0.967293   -1.331560
     21          1           0       -0.575097   -0.561372    1.545408
     22          1           0        1.777966   -0.753039    1.766948
     23          1           0        1.091439   -2.087760    0.841806
     24          1           0        1.915704   -0.814730   -1.288859
     25          1           0        3.676327    0.561354    0.812032
     26          1           0        3.908875    0.634630   -0.942948
     27          1           0        2.493253    1.391141   -0.199896
     28          1           0        2.900107   -2.932189   -0.466818
     29          1           0        4.173907   -1.847142   -1.055667
     30          1           0        3.907785   -2.038191    0.684446
     31          1           0        0.141472    3.082066    0.145190
     32          1           0       -0.923471    1.512558   -1.984579
     33          1           0        0.204308    2.875097   -2.089904
     34          1           0        0.832062    1.236562   -1.922187
 ---------------------------------------------------------------------

 SCF Done:  E(UB3LYP) =  -653.334644726     A.U. after   33 cycles
 SCF Done:  E(UB3LYP) =  -653.334644726     a.u. after    1 cycles

 The electronic state is 2-A.
 Alpha  occ. eigenvalues --  -18.99906 -18.99431 -14.24594 -14.24537 -10.18312
 Alpha  occ. eigenvalues --  -10.17930 -10.13399 -10.10834 -10.09086 -10.08958
 Alpha  occ. eigenvalues --  -10.08591 -10.08340 -10.06798 -10.06303  -0.95090
 Alpha  occ. eigenvalues --   -0.94568  -0.84261  -0.82234  -0.72514  -0.69271
 Alpha  occ. eigenvalues --   -0.66106  -0.61608  -0.59375  -0.57027  -0.56597
 Alpha  occ. eigenvalues --   -0.50045  -0.49690  -0.46893  -0.42543  -0.40432
 Alpha  occ. eigenvalues --   -0.40147  -0.38260  -0.36995  -0.35977  -0.35284
 Alpha  occ. eigenvalues --   -0.34972  -0.33830  -0.33000  -0.32379  -0.31627
 Alpha  occ. eigenvalues --   -0.30239  -0.29907  -0.29713  -0.28869  -0.28705
 Alpha  occ. eigenvalues --   -0.27300  -0.26758  -0.26528  -0.24234  -0.24032
 Alpha  occ. eigenvalues --   -0.23227  -0.19207  -0.16738  -0.16512  -0.15228
 Alpha  occ. eigenvalues --    0.04081
 Alpha virt. eigenvalues --    0.05967   0.06265   0.07901   0.08123   0.08697
 Alpha virt. eigenvalues --    0.08982   0.09611   0.09769   0.10116   0.10513
 Alpha virt. eigenvalues --    0.10993   0.11071   0.12435   0.12684   0.12820

  Beta  occ. eigenvalues --  -18.99901 -18.99410 -14.24579 -14.24518 -10.18308
  Beta  occ. eigenvalues --  -10.17906 -10.13393 -10.10785 -10.09077 -10.08943
  Beta  occ. eigenvalues --  -10.08575 -10.08311 -10.06766 -10.06275  -0.95069
  Beta  occ. eigenvalues --   -0.94533  -0.84235  -0.82189  -0.72481  -0.69244
  Beta  occ. eigenvalues --   -0.66065  -0.61525  -0.59314  -0.56967  -0.56541
  Beta  occ. eigenvalues --   -0.49988  -0.49651  -0.46833  -0.42507  -0.40397
  Beta  occ. eigenvalues --   -0.40069  -0.38210  -0.36940  -0.35934  -0.35250
  Beta  occ. eigenvalues --   -0.34934  -0.33798  -0.32962  -0.32340  -0.31575
  Beta  occ. eigenvalues --   -0.30184  -0.29856  -0.29683  -0.28832  -0.28663
  Beta  occ. eigenvalues --   -0.27267  -0.26729  -0.26494  -0.24192  -0.23985
  Beta  occ. eigenvalues --   -0.23182  -0.19178  -0.16727  -0.16450  -0.15187
  Beta virt. eigenvalues --    0.06160   0.06754   0.07432   0.08292   0.08635
  Beta virt. eigenvalues --    0.09138   0.09179   0.09932   0.10002   0.10326
  Beta virt. eigenvalues --    0.10802   0.11367   0.11471   0.12536   0.12873

 Mulliken charges and spin densities:
               1          2
     1  C    0.359178  -0.812588
     2  C   -0.651535   0.399233
     3  C    0.181179  -0.270065
     4  O   -0.331742   0.029226
     5  N   -0.196955   0.084319
     6  C    0.530856  -0.209471
     7  C    1.185597  -1.823258
     8  C   -1.742848   2.216836
     9  C    0.214637  -0.853586
    10  C    0.989224  -1.609094
    11  C   -0.653863   0.111380
    12  O   -0.259159   0.022237
    13  N   -0.212940  -0.031199
    14  C    0.678913  -1.079381
    15  H    0.055590   0.100424
    16  H   -0.108839   0.246377
    17  H   -0.263901   0.407992
    18  H   -0.077518   0.283938
    19  H    0.202654   0.024324
    20  H    0.269811   0.069297
    21  H    0.284425  -0.029393
    22  H    0.114432   0.081739
    23  H    0.019131   0.169715
    24  H   -0.014419   0.106127
    25  H    0.055194   0.081263
    26  H   -0.382903   0.545895
    27  H    0.262464  -0.089474
    28  H   -0.251282   0.390310
    29  H   -0.274182   0.424576
    30  H   -0.031564   0.162238
    31  H   -0.009958   0.347634
    32  H    0.093536   0.101900
    33  H   -0.902691   1.090258
    34  H   -0.130522   0.310266
 Sum of Mulliken charges =  -1.00000   1.00000

 Dipole moment (field-independent basis, Debye):
    X=             -1.7957    Y=             -1.9773    Z=              2.6769  Tot=              3.7816
 Quadrupole moment (field-independent basis, Debye-Ang):
   XX=           -150.3051   YY=           -141.8026   ZZ=           -135.9868
   XY=             -1.2672   XZ=              3.9530   YZ=              3.2875

 Summary of Natural Population Analysis:

                                       Natural Population
                Natural  -----------------------------------------------
    Atom  No    Charge         Core      Valence    Rydberg      Total
 -----------------------------------------------------------------------
      C    1   -0.28001      0.99966     2.27636    0.00399     3.28001
      C    2   -0.23494      0.99959     2.22860    0.00675     3.23494
      C    3    0.34887      0.99966     1.62865    0.02281     2.65113
      O    4   -0.32376      0.99988     3.31804    0.00584     4.32376
      N    5   -0.32539      0.99966     2.81520    0.01053     3.82539
      C    6   -0.05035      0.99952     2.03703    0.01379     3.05035
      C    7   -0.18610      0.99959     2.17651    0.01000     3.18610
      C    8   -0.11755      0.99961     2.10893    0.00900     3.11755
      C    9   -0.28571      0.99964     2.27965    0.00642     3.28571
      C   10   -0.28113      0.99965     2.27526    0.00621     3.28113
      C   11    0.34142      0.99963     1.63430    0.02465     2.65858
      O   12   -0.32537      0.99988     3.31991    0.00558     4.32537
      N   13   -0.31939      0.99967     2.80817    0.01155     3.81939
      C   14   -0.18223      0.99962     2.17398    0.00863     3.18223
      H   15    0.10057      0.00000     0.39824    0.00119     0.39943
      H   16    0.09976      0.00000     0.39903    0.00121     0.40024
      H   17    0.09877      0.00000     0.40000    0.00124     0.40123
      H   18    0.10969      0.00000     0.38917    0.00114     0.39031
      H   19    0.10664      0.00000     0.39182    0.00153     0.39336
      H   20    0.19513      0.00000     0.30195    0.00293     0.30487
      H   21    0.11450      0.00000     0.38352    0.00198     0.38550
      H   22    0.10893      0.00000     0.39004    0.00103     0.39107
      H   23    0.10363      0.00000     0.39515    0.00122     0.39637
      H   24    0.08802      0.00000     0.40920    0.00277     0.41198
      H   25    0.09703      0.00000     0.40207    0.00090     0.40297
      H   26    0.10170      0.00000     0.39719    0.00111     0.39830
      H   27    0.10244      0.00000     0.39613    0.00143     0.39756
      H   28    0.09950      0.00000     0.39938    0.00112     0.40050
      H   29    0.10172      0.00000     0.39719    0.00109     0.39828
      H   30    0.09577      0.00000     0.40331    0.00092     0.40423
      H   31    0.19689      0.00000     0.30046    0.00265     0.30311
      H   32    0.10047      0.00000     0.39811    0.00142     0.39953
      H   33    0.10520      0.00000     0.39172    0.00308     0.39480
      H   34    0.09525      0.00000     0.40294    0.00180     0.40475
 =======================================================================
   * Total *   -0.00000     13.99526    40.82722    0.17752    55.00000

 Normal termination of Gaussian 16 at Thu Dec 10 10:23:37 2020.
