 Gaussian 16, Revision A.03,

 -----------------------------------------------------------
 # opt freq B3LYP/6-31G(d) empiricaldispersion=gd3bj scf=xqc
 -----------------------------------------------------------

 ------------------------------
 CID_84110087_JID_3535_neutraal
 ------------------------------
 Symbolic Z-matrix:
 Charge =  0 Multiplicity = 1

 SCF Done:  E(RB3LYP) =  -555.472373579     A.U. after   15 cycles
 SCF Done:  E(RB3LYP) =  -555.509698157     A.U. after   13 cycles
 SCF Done:  E(RB3LYP) =  -555.523647055     A.U. after   13 cycles
 SCF Done:  E(RB3LYP) =  -555.530479100     A.U. after   12 cycles
 SCF Done:  E(RB3LYP) =  -555.532839549     A.U. after   11 cycles
 SCF Done:  E(RB3LYP) =  -555.533693260     A.U. after   12 cycles
 SCF Done:  E(RB3LYP) =  -555.534129580     A.U. after   11 cycles
 SCF Done:  E(RB3LYP) =  -555.534571135     A.U. after   12 cycles
 SCF Done:  E(RB3LYP) =  -555.535830810     A.U. after   14 cycles
 SCF Done:  E(RB3LYP) =  -555.536428087     A.U. after   13 cycles
 SCF Done:  E(RB3LYP) =  -555.544568006     A.U. after   12 cycles
 SCF Done:  E(RB3LYP) =  -555.544610476     A.U. after   10 cycles
 SCF Done:  E(RB3LYP) =  -555.544617371     A.U. after   10 cycles
 SCF Done:  E(RB3LYP) =  -555.544623275     A.U. after    8 cycles
 SCF Done:  E(RB3LYP) =  -555.544623844     A.U. after    8 cycles
 SCF Done:  E(RB3LYP) =  -555.544624030     A.U. after    7 cycles
 Optimization completed.
    -- Stationary point found.
 Normal termination of Gaussian 16 at Wed Dec  9 23:44:21 2020.

 --------------------------------------------------------------------
 #N Geom=AllCheck Guess=TCheck SCRF=Check GenChk RB3LYP/6-31G(d) Freq
 --------------------------------------------------------------------

 Structure from the checkpoint file:  "JID_3535.chk"
 ------------------------------
 CID_84110087_JID_3535_neutraal
 ------------------------------
 Charge =  0 Multiplicity = 1

 SCF Done:  E(RB3LYP) =  -555.544624030     A.U. after    1 cycles

  Exact polarizability: 125.454   2.923 110.425  -3.851   2.978 106.806
 Approx polarizability: 178.127   6.574 155.477 -11.160   1.985 157.488

                      1                      2                      3
                      A                      A                      A
 Frequencies --     41.7069                85.4397               102.8456
 Red. masses --      4.9769                 3.4980                 3.0139
 Frc consts  --      0.0051                 0.0150                 0.0188
 IR Inten    --      3.3941                 1.9308                 0.2263

                      4                      5                      6
                      A                      A                      A
 Frequencies --    128.9978               158.1445               171.9304
 Red. masses --      3.3267                 3.3484                 2.2758
 Frc consts  --      0.0326                 0.0493                 0.0396
 IR Inten    --      4.6413                 1.0483                 2.9619

                      7                      8                      9
                      A                      A                      A
 Frequencies --    184.8858               242.3380               258.9194
 Red. masses --      2.7241                 1.6040                 3.0168
 Frc consts  --      0.0549                 0.0555                 0.1192
 IR Inten    --      1.2126                 2.1769                 0.8763

                     10                     11                     12
                      A                      A                      A
 Frequencies --    324.3976               333.1258               350.8392
 Red. masses --      2.9455                 3.2736                 2.4451
 Frc consts  --      0.1826                 0.2140                 0.1773
 IR Inten    --      2.2965                 3.5044                 2.5554

                     13                     14                     15
                      A                      A                      A
 Frequencies --    400.2331               409.3815               453.8136
 Red. masses --      2.8447                 3.6753                 1.8670
 Frc consts  --      0.2685                 0.3629                 0.2265
 IR Inten    --      0.5953                 9.0937                 1.3815

                     16                     17                     18
                      A                      A                      A
 Frequencies --    474.1414               514.2355               573.4038
 Red. masses --      2.7323                 4.1705                 2.9354
 Frc consts  --      0.3619                 0.6498                 0.5686
 IR Inten    --      0.5845                 1.7596                12.6876

                     19                     20                     21
                      A                      A                      A
 Frequencies --    599.5015               647.3146               738.3890
 Red. masses --      3.7898                 2.4669                 2.0089
 Frc consts  --      0.8025                 0.6090                 0.6453
 IR Inten    --      6.2827                30.9134                15.1367

                     22                     23                     24
                      A                      A                      A
 Frequencies --    792.9858               826.0712               854.3938
 Red. masses --      1.1817                 1.7992                 1.5478
 Frc consts  --      0.4378                 0.7234                 0.6657
 IR Inten    --      3.3831                13.7114                19.7164

                     25                     26                     27
                      A                      A                      A
 Frequencies --    861.7826               875.6849               905.7264
 Red. masses --      2.3680                 2.3952                 2.7304
 Frc consts  --      1.0362                 1.0821                 1.3197
 IR Inten    --     10.1516                48.3222                 5.9909

                     28                     29                     30
                      A                      A                      A
 Frequencies --    917.5867               945.5997               960.3623
 Red. masses --      1.9977                 2.1364                 1.9773
 Frc consts  --      0.9910                 1.1255                 1.0745
 IR Inten    --      1.7421                 7.9403                 1.8742

                     31                     32                     33
                      A                      A                      A
 Frequencies --    981.8465               994.2407              1038.4885
 Red. masses --      3.0989                 2.3300                 1.6989
 Frc consts  --      1.7601                 1.3571                 1.0795
 IR Inten    --      0.9922                 3.4813                 2.2853

                     34                     35                     36
                      A                      A                      A
 Frequencies --   1043.4616              1062.1942              1077.7487
 Red. masses --      1.9150                 1.4028                 2.0657
 Frc consts  --      1.2285                 0.9325                 1.4137
 IR Inten    --      4.0299                16.0242                 1.1484

                     37                     38                     39
                      A                      A                      A
 Frequencies --   1084.5071              1103.4022              1135.1909
 Red. masses --      1.4383                 1.7247                 1.9536
 Frc consts  --      0.9967                 1.2372                 1.4833
 IR Inten    --      0.3648                12.0507                 4.8306

                     40                     41                     42
                      A                      A                      A
 Frequencies --   1154.4794              1159.3249              1177.1672
 Red. masses --      1.1540                 2.2719                 2.1743
 Frc consts  --      0.9062                 1.7991                 1.7752
 IR Inten    --      0.9768                17.7994                 4.0926

                     43                     44                     45
                      A                      A                      A
 Frequencies --   1196.8774              1210.4781              1220.3499
 Red. masses --      1.9772                 1.3672                 2.2627
 Frc consts  --      1.6688                 1.1803                 1.9854
 IR Inten    --     44.0578                 0.2615                 5.4914

                     46                     47                     48
                      A                      A                      A
 Frequencies --   1238.6252              1271.0085              1282.6044
 Red. masses --      1.2703                 1.5962                 1.5021
 Frc consts  --      1.1483                 1.5193                 1.4559
 IR Inten    --      7.6782                11.9620                25.4564

                     49                     50                     51
                      A                      A                      A
 Frequencies --   1316.9205              1328.9160              1335.2228
 Red. masses --      1.8677                 1.3213                 1.2785
 Frc consts  --      1.9085                 1.3749                 1.3429
 IR Inten    --     27.9008                 9.4301                 2.8457

                     52                     53                     54
                      A                      A                      A
 Frequencies --   1371.9034              1381.3321              1402.9339
 Red. masses --      1.3405                 1.4905                 1.1781
 Frc consts  --      1.4865                 1.6756                 1.3661
 IR Inten    --     20.5957                14.5531                 6.4208

                     55                     56                     57
                      A                      A                      A
 Frequencies --   1422.0637              1430.6768              1443.6290
 Red. masses --      1.4915                 1.3712                 1.4515
 Frc consts  --      1.7771                 1.6536                 1.7823
 IR Inten    --     26.3424                27.2083                16.0058

                     58                     59                     60
                      A                      A                      A
 Frequencies --   1448.1389              1482.0467              1495.2310
 Red. masses --      1.3461                 1.0925                 1.2714
 Frc consts  --      1.6633                 1.4139                 1.6748
 IR Inten    --      2.3711                 1.4571                 1.5310

                     61                     62                     63
                      A                      A                      A
 Frequencies --   1499.4349              1515.6747              1521.3083
 Red. masses --      1.0932                 1.1069                 1.0802
 Frc consts  --      1.4482                 1.4981                 1.4729
 IR Inten    --      6.3419                 3.2462                 4.3540

                     64                     65                     66
                      A                      A                      A
 Frequencies --   1527.0459              1530.6082              1543.3140
 Red. masses --      1.3222                 1.1358                 1.0659
 Frc consts  --      1.8166                 1.5677                 1.4959
 IR Inten    --      5.9976                 9.0468                 2.8323

                     67                     68                     69
                      A                      A                      A
 Frequencies --   2364.2820              2953.4893              2964.2217
 Red. masses --     12.5854                 1.0728                 1.0715
 Frc consts  --     41.4493                 5.5136                 5.5473
 IR Inten    --     14.8135                57.6070                86.6786

                     70                     71                     72
                      A                      A                      A
 Frequencies --   3053.3646              3054.3855              3058.8981
 Red. masses --      1.0721                 1.0686                 1.0519
 Frc consts  --      5.8888                 5.8736                 5.7991
 IR Inten    --     21.1637                11.2731                21.7889

                     73                     74                     75
                      A                      A                      A
 Frequencies --   3077.8542              3087.0409              3092.4163
 Red. masses --      1.0857                 1.0895                 1.0899
 Frc consts  --      6.0599                 6.1172                 6.1409
 IR Inten    --     19.2982                49.2697                32.0660

                     76                     77                     78
                      A                      A                      A
 Frequencies --   3120.9096              3127.8933              3134.4800
 Red. masses --      1.0974                 1.0940                 1.0861
 Frc consts  --      6.2974                 6.3063                 6.2869
 IR Inten    --     34.3816                 5.2223                17.1067

                     79                     80                     81
                      A                      A                      A
 Frequencies --   3149.9636              3151.0587              3156.0874
 Red. masses --      1.0988                 1.0523                 1.0593
 Frc consts  --      6.4238                 6.1559                 6.2171
 IR Inten    --     16.5528                23.4897                 7.2969

                     82                     83                     84
                      A                      A                      A
 Frequencies --   3229.9600              3243.3756              3513.1761
 Red. masses --      1.1201                 1.1167                 1.0750
 Frc consts  --      6.8847                 6.9214                 7.8175
 IR Inten    --      0.2880                21.9759                 0.3918

 - Thermochemistry -
 -------------------
 Temperature   298.150 Kelvin.  Pressure   1.00000 Atm.
 Atom     1 has atomic number  6 and mass  12.00000

 Molecular mass:   179.14225 amu.
 Principal axes and moments of inertia in atomic units:
                           1         2         3
     Eigenvalues --  1940.837082370.750153024.76154
           X            0.99523  -0.09710   0.00940
           Y            0.09682   0.99494   0.02680
           Z           -0.01196  -0.02576   0.99960
 This molecule is an asymmetric top.
 Rotational symmetry number  1.
 Warning -- assumption of classical behavior for rotation
           may cause significant error
 Rotational temperatures (Kelvin)      0.04463     0.03653     0.02863
 Rotational constants (GHZ):           0.92988     0.76125     0.59666
 Zero-point vibrational energy     700386.2 (Joules/Mol)
                                  167.39632 (Kcal/Mol)
 Warning -- explicit consideration of  19 degrees of freedom as
           vibrations may cause significant error
 Vibrational temperatures:     60.01   122.93   147.97   185.60   227.53
          (Kelvin)            247.37   266.01   348.67   372.53   466.74
                              479.29   504.78   575.85   589.01   652.94
                              682.18   739.87   825.00   862.55   931.34
                             1062.38  1140.93  1188.53  1229.28  1239.91
                             1259.92  1303.14  1320.20  1360.51  1381.75
                             1412.66  1430.49  1494.15  1501.31  1528.26
                             1550.64  1560.36  1587.55  1633.29  1661.04
                             1668.01  1693.68  1722.04  1741.61  1755.81
                             1782.11  1828.70  1845.38  1894.75  1912.01
                             1921.09  1973.86  1987.43  2018.51  2046.03
                             2058.42  2077.06  2083.55  2132.33  2151.30
                             2157.35  2180.72  2188.82  2197.08  2202.20
                             2220.48  3401.67  4249.41  4264.85  4393.11
                             4394.58  4401.07  4428.35  4441.56  4449.30
                             4490.29  4500.34  4509.82  4532.10  4533.67
                             4540.91  4647.19  4666.49  5054.68

 Zero-point correction=                           0.266763 (Hartree/Particle)
 Thermal correction to Energy=                    0.279501
 Thermal correction to Enthalpy=                  0.280445
 Thermal correction to Gibbs Free Energy=         0.227950
 Sum of electronic and zero-point Energies=           -555.277861
 Sum of electronic and thermal Energies=              -555.265123
 Sum of electronic and thermal Enthalpies=            -555.264179
 Sum of electronic and thermal Free Energies=         -555.316674

                     E (Thermal)             CV                S
                      KCal/Mol        Cal/Mol-Kelvin    Cal/Mol-Kelvin
 Total                  175.389             49.467            110.486
 Electronic               0.000              0.000              0.000
 Translational            0.889              2.981             41.456
 Rotational               0.889              2.981             31.010
 Vibrational            173.612             43.505             38.020
 Vibration     1          0.594              1.981              5.176
 Vibration     2          0.601              1.959              3.762
 Vibration     3          0.605              1.947              3.400
 Vibration     4          0.611              1.924              2.961
 Vibration     5          0.621              1.894              2.572
 Vibration     6          0.626              1.877              2.414
 Vibration     7          0.631              1.860              2.279
 Vibration     8          0.659              1.775              1.786
 Vibration     9          0.668              1.748              1.669
 Vibration    10          0.709              1.627              1.288
 Vibration    11          0.715              1.609              1.245
 Vibration    12          0.728              1.574              1.162
 Vibration    13          0.766              1.470              0.962
 Vibration    14          0.774              1.450              0.929
 Vibration    15          0.812              1.352              0.784
 Vibration    16          0.831              1.307              0.726
 Vibration    17          0.869              1.218              0.623
 Vibration    18          0.930              1.089              0.498
 Vibration    19          0.958              1.033              0.451

                           ! Non-Optimized Parameters !
 Normal termination of Gaussian 16 at Wed Dec  9 23:53:33 2020.

 ----------------------------------------------------------------------
 # B3LYP/6-311++G(d,p) empiricaldispersion=gd3bj scf=xqc pop=npa geom=c
 heck
 ----------------------------------------------------------------------

 --------------------------------------
 CID_84110087_JID_3535_Energie_neutraal
 --------------------------------------
 Structure from the checkpoint file:  "JID_3535.chk"
 Charge =  0 Multiplicity = 1

 SCF Done:  E(RB3LYP) =  -555.699526544     A.U. after   14 cycles
 Normal termination of Gaussian 16 at Wed Dec  9 23:57:28 2020.

 ----------------------------------------------------------------------
 # B3LYP/6-311++G(d,p) empiricaldispersion=gd3bj scf=xqc pop=npa geom=c
 heck
 ----------------------------------------------------------------------

 ------------------------------------
 CID_84110087_JID_3535_Energie_kation
 ------------------------------------
 Structure from the checkpoint file:  "JID_3535.chk"
 Charge =  1 Multiplicity = 2

 SCF Done:  E(UB3LYP) =  -555.413273020     A.U. after   21 cycles
 Normal termination of Gaussian 16 at Thu Dec 10 00:05:52 2020.
 Gaussian 16:  ES64L-G16RevA.03 25-Dec-2016

 ----------------------------------------------------------------------
 # B3LYP/6-311++G(d,p) empiricaldispersion=gd3bj scf=xqc pop=npa geom=c
 heck
 ----------------------------------------------------------------------

 -----------------------------------
 CID_84110087_JID_3535_Energie_anion
 -----------------------------------
 Structure from the checkpoint file:  "JID_3535.chk"
 Charge = -1 Multiplicity = 2

                         Standard orientation:
 ---------------------------------------------------------------------
 Center     Atomic      Atomic             Coordinates (Angstroms)
 Number     Number       Type             X           Y           Z
 ---------------------------------------------------------------------
      1          6           0        0.717835    0.037510    2.162731
      2          6           0        0.735847    0.974649    0.940575
      3          6           0        2.153982    1.172636    0.387531
      4          7           0        2.558880   -0.017100   -0.363631
      5          6           0        1.695596   -0.194117   -1.529025
      6          6           0        0.272098   -0.492566   -1.037894
      7          7           0       -0.146842    0.597389   -0.170540
      8          6           0       -1.552405    0.739164    0.080917
      9          6           0       -2.117693    2.137586    0.054726
     10          6           0       -2.423056    1.176954   -1.067924
     11          6           0        0.262552   -1.941924   -0.451475
     12          6           0       -0.976910   -2.333927    0.213070
     13          7           0       -1.960667   -2.652567    0.741396
     14          1           0        1.301203   -0.869343    1.984740
     15          1           0       -0.303816   -0.252468    2.425782
     16          1           0        1.155339    0.547006    3.029489
     17          1           0        0.375361    1.955717    1.272316
     18          1           0        2.158804    2.080476   -0.243248
     19          1           0        2.855751    1.325979    1.214209
     20          1           0        3.529083    0.067157   -0.655358
     21          1           0        2.073707   -1.027039   -2.131992
     22          1           0        1.652074    0.705352   -2.169104
     23          1           0       -0.407397   -0.484684   -1.896498
     24          1           0       -2.015663    0.052934    0.789276
     25          1           0       -2.904620    2.387169    0.760388
     26          1           0       -1.422860    2.943243   -0.162747
     27          1           0       -1.932499    1.361893   -2.019028
     28          1           0       -3.419668    0.752679   -1.142752
     29          1           0        0.442001   -2.647750   -1.272693
     30          1           0        1.096526   -2.048162    0.247249
 ---------------------------------------------------------------------

 SCF Done:  E(UB3LYP) =  -555.687883773     A.U. after   30 cycles

 The electronic state is 2-A.
 Alpha  occ. eigenvalues --  -14.21224 -14.20787 -14.19354 -10.11437 -10.11398
 Alpha  occ. eigenvalues --  -10.10547 -10.10518 -10.10043 -10.08655 -10.08477
 Alpha  occ. eigenvalues --  -10.07937 -10.07895 -10.05716  -0.85194  -0.81023
 Alpha  occ. eigenvalues --   -0.79809  -0.74465  -0.70234  -0.65276  -0.59987
 Alpha  occ. eigenvalues --   -0.56851  -0.53172  -0.50396  -0.49206  -0.43960
 Alpha  occ. eigenvalues --   -0.43703  -0.41512  -0.39486  -0.37095  -0.36806
 Alpha  occ. eigenvalues --   -0.35347  -0.34855  -0.33573  -0.31521  -0.30867
 Alpha  occ. eigenvalues --   -0.30143  -0.29251  -0.27651  -0.27273  -0.26764
 Alpha  occ. eigenvalues --   -0.25281  -0.24132  -0.23004  -0.22710  -0.22600
 Alpha  occ. eigenvalues --   -0.21251  -0.19708  -0.13199  -0.11503   0.04486
 Alpha virt. eigenvalues --    0.06811   0.07278   0.08011   0.08784   0.09133
 Alpha virt. eigenvalues --    0.09962   0.10291   0.10524   0.11631   0.11865
 Alpha virt. eigenvalues --    0.12199   0.12801   0.13063   0.13381   0.13504

  Beta  occ. eigenvalues --  -14.21220 -14.20785 -14.19317 -10.11435 -10.11391
  Beta  occ. eigenvalues --  -10.10544 -10.10490 -10.10039 -10.08614 -10.08447
  Beta  occ. eigenvalues --  -10.07927 -10.07885 -10.05702  -0.85173  -0.81011
  Beta  occ. eigenvalues --   -0.79764  -0.74446  -0.70199  -0.65241  -0.59934
  Beta  occ. eigenvalues --   -0.56797  -0.53128  -0.50357  -0.49158  -0.43912
  Beta  occ. eigenvalues --   -0.43646  -0.41479  -0.39446  -0.37053  -0.36737
  Beta  occ. eigenvalues --   -0.35298  -0.34820  -0.33535  -0.31488  -0.30842
  Beta  occ. eigenvalues --   -0.30108  -0.29220  -0.27632  -0.27253  -0.26725
  Beta  occ. eigenvalues --   -0.25260  -0.24097  -0.22977  -0.22677  -0.22569
  Beta  occ. eigenvalues --   -0.21233  -0.19695  -0.13130  -0.11485
  Beta virt. eigenvalues --    0.06808   0.07770   0.07860   0.08480   0.09470
  Beta virt. eigenvalues --    0.09655   0.10417   0.10554   0.10717   0.11985
  Beta virt. eigenvalues --    0.12246   0.12443   0.13179   0.13386   0.13569

 Mulliken charges and spin densities:
               1          2
     1  C    0.232117  -0.882594
     2  C   -0.595480   0.798009
     3  C    0.995912  -1.468032
     4  N   -0.553032   0.341848
     5  C    1.387538  -1.878691
     6  C   -0.795573   1.138615
     7  N    0.155729  -0.048885
     8  C   -0.330190   0.141816
     9  C    0.041272  -0.380256
    10  C   -0.225507  -0.171577
    11  C    0.913591  -1.140972
    12  C   -0.112590  -0.125032
    13  N   -0.307571   0.003181
    14  H    0.113788   0.051519
    15  H    0.012998   0.129522
    16  H    0.006274   0.128137
    17  H   -0.092655   0.262205
    18  H   -0.370174   0.503925
    19  H   -0.324057   0.502572
    20  H   -0.337833   0.621392
    21  H   -0.782990   0.973330
    22  H   -0.320514   0.462611
    23  H   -0.095670   0.285932
    24  H    0.259800  -0.082046
    25  H    0.029400   0.105775
    26  H    0.076479   0.065861
    27  H    0.005035   0.139854
    28  H    0.089445   0.059301
    29  H   -0.338203   0.546548
    30  H    0.262660  -0.083870
 Sum of Mulliken charges =  -1.00000   1.00000

 Dipole moment (field-independent basis, Debye):
    X=             -5.6955    Y=              1.4276    Z=              3.1452  Tot=              6.6610
 Quadrupole moment (field-independent basis, Debye-Ang):
   XX=           -142.2480   YY=           -125.6875   ZZ=           -122.1214
   XY=             -8.5988   XZ=             10.0787   YZ=             -1.9410

 Summary of Natural Population Analysis:

                                       Natural Population
                Natural  -----------------------------------------------
    Atom  No    Charge         Core      Valence    Rydberg      Total
 -----------------------------------------------------------------------
      C    1   -0.29715      0.99964     2.29228    0.00523     3.29715
      C    2   -0.00641      0.99958     1.99336    0.01347     3.00641
      C    3   -0.08574      0.99959     2.07375    0.01240     3.08574
      N    4   -0.34708      0.99974     2.83369    0.01365     3.84708
      C    5   -0.08743      0.99959     2.07454    0.01330     3.08743
      C    6    0.00316      0.99956     1.98094    0.01635     2.99684
      N    7   -0.28857      0.99967     2.77358    0.01532     3.78857
      C    8   -0.01869      0.99955     2.00613    0.01301     3.01869
      C    9   -0.19891      0.99962     2.19250    0.00679     3.19891
      C   10   -0.19840      0.99961     2.19196    0.00682     3.19840
      C   11   -0.26502      0.99951     2.25622    0.00929     3.26502
      C   12    0.17096      0.99965     1.81285    0.01653     2.82904
      N   13   -0.19791      0.99979     2.68772    0.01041     3.69791
      H   14    0.10007      0.00000     0.39853    0.00139     0.39993
      H   15    0.10058      0.00000     0.39863    0.00079     0.39942
      H   16    0.09915      0.00000     0.40000    0.00085     0.40085
      H   17    0.09653      0.00000     0.40151    0.00197     0.40347
      H   18    0.08441      0.00000     0.41331    0.00227     0.41559
      H   19    0.09783      0.00000     0.40047    0.00170     0.40217
      H   20    0.18511      0.00000     0.30755    0.00734     0.31489
      H   21    0.10163      0.00000     0.39389    0.00448     0.39837
      H   22    0.08774      0.00000     0.40948    0.00279     0.41226
      H   23    0.10165      0.00000     0.39588    0.00247     0.39835
      H   24    0.09776      0.00000     0.40003    0.00221     0.40224
      H   25    0.09857      0.00000     0.40052    0.00092     0.40143
      H   26    0.10619      0.00000     0.39250    0.00131     0.39381
      H   27    0.10622      0.00000     0.39257    0.00121     0.39378
      H   28    0.10078      0.00000     0.39828    0.00093     0.39922
      H   29    0.12435      0.00000     0.37380    0.00184     0.37565
      H   30    0.12861      0.00000     0.36909    0.00230     0.37139
 =======================================================================
   * Total *    0.00000     12.99509    35.81556    0.18935    49.00000

 Normal termination of Gaussian 16 at Thu Dec 10 00:17:25 2020.
