 Gaussian 16, Revision A.03,

 -----------------------------------------------------------
 # opt freq B3LYP/6-31G(d) empiricaldispersion=gd3bj scf=xqc
 -----------------------------------------------------------

 -------------------------------
 CID_116323520_JID_4293_neutraal
 -------------------------------
 Symbolic Z-matrix:
 Charge =  0 Multiplicity = 1

 SCF Done:  E(RB3LYP) =  -992.089915698     A.U. after   14 cycles
 SCF Done:  E(RB3LYP) =  -992.093691354     A.U. after   12 cycles
 SCF Done:  E(RB3LYP) =  -992.094274769     A.U. after   11 cycles
 SCF Done:  E(RB3LYP) =  -992.094695378     A.U. after   12 cycles
 SCF Done:  E(RB3LYP) =  -992.095586715     A.U. after   15 cycles
 SCF Done:  E(RB3LYP) =  -992.097455215     A.U. after   12 cycles
 SCF Done:  E(RB3LYP) =  -992.098208385     A.U. after   12 cycles
 SCF Done:  E(RB3LYP) =  -992.098652587     A.U. after   12 cycles
 SCF Done:  E(RB3LYP) =  -992.098771717     A.U. after   11 cycles
 SCF Done:  E(RB3LYP) =  -992.098833040     A.U. after   11 cycles
 SCF Done:  E(RB3LYP) =  -992.098862118     A.U. after    8 cycles
 SCF Done:  E(RB3LYP) =  -992.098862731     A.U. after    8 cycles
 SCF Done:  E(RB3LYP) =  -992.098863165     A.U. after    8 cycles
 SCF Done:  E(RB3LYP) =  -992.098863676     A.U. after    8 cycles
 SCF Done:  E(RB3LYP) =  -992.098863878     A.U. after    7 cycles
 Optimization completed.
    -- Stationary point found.
 Normal termination of Gaussian 16 at Thu Dec 10 09:29:09 2020.

 --------------------------------------------------------------------
 #N Geom=AllCheck Guess=TCheck SCRF=Check GenChk RB3LYP/6-31G(d) Freq
 --------------------------------------------------------------------

 Structure from the checkpoint file:  "JID_4293.chk"
 -------------------------------
 CID_116323520_JID_4293_neutraal
 -------------------------------
 Charge =  0 Multiplicity = 1

 SCF Done:  E(RB3LYP) =  -992.098863878     A.U. after    1 cycles

  Exact polarizability: 131.803  -3.021 131.981   6.385   0.218 124.213
 Approx polarizability: 169.770  -2.466 199.283  16.580  -7.994 197.879

                      1                      2                      3
                      A                      A                      A
 Frequencies --     27.1332                38.3537                57.4663
 Red. masses --      5.5626                 5.8028                 4.1159
 Frc consts  --      0.0024                 0.0050                 0.0080
 IR Inten    --      1.7976                 2.6069                 1.7410

                      4                      5                      6
                      A                      A                      A
 Frequencies --     81.2953               110.6935               145.9944
 Red. masses --      4.2455                 5.3474                 3.9888
 Frc consts  --      0.0165                 0.0386                 0.0501
 IR Inten    --      0.6978                 4.6263                 3.6976

                      7                      8                      9
                      A                      A                      A
 Frequencies --    158.2700               183.5440               214.0772
 Red. masses --      3.2095                 2.9336                 1.1582
 Frc consts  --      0.0474                 0.0582                 0.0313
 IR Inten    --      0.4102                 0.0539                 1.5081

                     10                     11                     12
                      A                      A                      A
 Frequencies --    227.8839               240.3580               288.7310
 Red. masses --      1.9850                 2.6174                 2.6188
 Frc consts  --      0.0607                 0.0891                 0.1286
 IR Inten    --      8.0898                 0.2142                 2.8740

                     13                     14                     15
                      A                      A                      A
 Frequencies --    304.8604               314.5223               342.0630
 Red. masses --      3.1924                 1.2850                 2.6372
 Frc consts  --      0.1748                 0.0749                 0.1818
 IR Inten    --      1.1611                 8.9919                 3.5372

                     16                     17                     18
                      A                      A                      A
 Frequencies --    367.8736               379.1567               419.3583
 Red. masses --      3.6264                 2.0753                 1.8905
 Frc consts  --      0.2892                 0.1758                 0.1959
 IR Inten    --      3.5079                 1.9389                 0.9796

                     19                     20                     21
                      A                      A                      A
 Frequencies --    465.8111               515.7836               555.5724
 Red. masses --      2.2932                 3.0476                 1.8712
 Frc consts  --      0.2932                 0.4777                 0.3403
 IR Inten    --      4.0460                 3.7532                32.7190

                     22                     23                     24
                      A                      A                      A
 Frequencies --    574.8795               601.7949               608.5384
 Red. masses --      4.0856                 2.1293                 1.8385
 Frc consts  --      0.7955                 0.4543                 0.4011
 IR Inten    --      9.0019                52.0718                74.1412

                     25                     26                     27
                      A                      A                      A
 Frequencies --    625.3983               654.4744               691.5891
 Red. masses --      3.8902                 2.6972                 4.4035
 Frc consts  --      0.8965                 0.6807                 1.2409
 IR Inten    --      7.6764                 2.9874                 1.0946

                     28                     29                     30
                      A                      A                      A
 Frequencies --    757.5708               779.3374               837.3581
 Red. masses --      2.1823                 2.7466                 2.3813
 Frc consts  --      0.7379                 0.9829                 0.9838
 IR Inten    --      5.1155                 3.2663                29.6315

                     31                     32                     33
                      A                      A                      A
 Frequencies --    875.6474               893.9024               925.5602
 Red. masses --      2.2701                 2.3253                 1.6000
 Frc consts  --      1.0255                 1.0948                 0.8076
 IR Inten    --     26.4432                 2.0293               130.0549

                     34                     35                     36
                      A                      A                      A
 Frequencies --    935.7148               959.6858               980.8697
 Red. masses --      1.8915                 1.7972                 1.9628
 Frc consts  --      0.9758                 0.9752                 1.1126
 IR Inten    --     18.1121                 8.3795                 6.7034

                     37                     38                     39
                      A                      A                      A
 Frequencies --   1022.1508              1034.0221              1055.3593
 Red. masses --      2.0008                 1.6254                 1.6220
 Frc consts  --      1.2316                 1.0239                 1.0644
 IR Inten    --      2.9740                 7.0532                23.0625

                     40                     41                     42
                      A                      A                      A
 Frequencies --   1061.7024              1097.2020              1115.8784
 Red. masses --      1.8819                 2.0134                 1.8399
 Frc consts  --      1.2498                 1.4281                 1.3499
 IR Inten    --      6.2706                 6.4761                 2.9015

                     43                     44                     45
                      A                      A                      A
 Frequencies --   1130.4349              1171.5013              1180.6227
 Red. masses --      2.2547                 1.9941                 2.0117
 Frc consts  --      1.6976                 1.6124                 1.6521
 IR Inten    --     20.0893                20.6533                25.0827

                     46                     47                     48
                      A                      A                      A
 Frequencies --   1204.2122              1223.5364              1232.8468
 Red. masses --      1.6644                 1.8023                 1.3357
 Frc consts  --      1.4221                 1.5897                 1.1961
 IR Inten    --     10.1443                 2.4634                 0.9216

                     49                     50                     51
                      A                      A                      A
 Frequencies --   1242.7926              1299.3644              1303.3168
 Red. masses --      1.2396                 1.6325                 1.3318
 Frc consts  --      1.1281                 1.6239                 1.3329
 IR Inten    --      0.4374                 9.5680                17.1243

                     52                     53                     54
                      A                      A                      A
 Frequencies --   1325.7200              1332.3029              1338.3178
 Red. masses --      1.3654                 1.4965                 1.3664
 Frc consts  --      1.4139                 1.5651                 1.4419
 IR Inten    --     19.8390                45.6746                 5.0191

                     55                     56                     57
                      A                      A                      A
 Frequencies --   1345.6290              1372.2099              1381.2278
 Red. masses --      1.1992                 1.5193                 1.2882
 Frc consts  --      1.2793                 1.6855                 1.4480
 IR Inten    --     21.6878                11.5093                 7.7940

                     58                     59                     60
                      A                      A                      A
 Frequencies --   1397.1140              1410.9497              1417.9794
 Red. masses --      1.2904                 1.4444                 1.3865
 Frc consts  --      1.4840                 1.6942                 1.6425
 IR Inten    --     10.8551                62.4223                19.9111

                     61                     62                     63
                      A                      A                      A
 Frequencies --   1430.8638              1436.1020              1449.5579
 Red. masses --      1.2822                 1.5946                 1.3552
 Frc consts  --      1.5467                 1.9376                 1.6778
 IR Inten    --      9.9039                22.6233                 6.6853

                     64                     65                     66
                      A                      A                      A
 Frequencies --   1459.4419              1492.1812              1499.3670
 Red. masses --      1.7807                 1.0954                 1.0821
 Frc consts  --      2.2346                 1.4371                 1.4333
 IR Inten    --     44.7276                 6.9828                 4.6004

                     67                     68                     69
                      A                      A                      A
 Frequencies --   1505.7372              1509.4331              1515.5642
 Red. masses --      1.0780                 1.0930                 1.0928
 Frc consts  --      1.4400                 1.4672                 1.4789
 IR Inten    --      2.1035                16.9948                 5.3199

                     70                     71                     72
                      A                      A                      A
 Frequencies --   1518.6052              1532.3897              1535.3367
 Red. masses --      1.0496                 1.0889                 1.0735
 Frc consts  --      1.4261                 1.5065                 1.4910
 IR Inten    --      7.7608                 2.7449                 8.0033

                     73                     74                     75
                      A                      A                      A
 Frequencies --   1721.0207              1782.8191              2933.1837
 Red. masses --      1.0666                 8.4306                 1.0719
 Frc consts  --      1.8614                15.7879                 5.4334
 IR Inten    --     16.0779               205.5777                29.3003

                     76                     77                     78
                      A                      A                      A
 Frequencies --   2942.4760              3028.9409              3030.5223
 Red. masses --      1.0703                 1.0717                 1.0710
 Frc consts  --      5.4600                 5.7932                 5.7955
 IR Inten    --    153.3194                24.7245                35.8806

                     79                     80                     81
                      A                      A                      A
 Frequencies --   3049.6099              3056.3505              3060.8507
 Red. masses --      1.0443                 1.0682                 1.0803
 Frc consts  --      5.7222                 5.8793                 5.9629
 IR Inten    --     26.0773                16.2764                40.7996

                     82                     83                     84
                      A                      A                      A
 Frequencies --   3071.6997              3079.5837              3085.7541
 Red. masses --      1.0850                 1.0624                 1.0875
 Frc consts  --      6.0314                 5.9365                 6.1012
 IR Inten    --     13.5455                40.6002                15.9975

                     85                     86                     87
                      A                      A                      A
 Frequencies --   3094.1772              3114.7473              3122.2204
 Red. masses --      1.0972                 1.0911                 1.0928
 Frc consts  --      6.1893                 6.2368                 6.2762
 IR Inten    --      2.1068                32.8438                20.3990

                     88                     89                     90
                      A                      A                      A
 Frequencies --   3128.9598              3130.8325              3154.5504
 Red. masses --      1.1074                 1.0936                 1.1031
 Frc consts  --      6.3881                 6.3159                 6.4674
 IR Inten    --     12.4871                21.7507                18.3502

                     91                     92                     93
                      A                      A                      A
 Frequencies --   3452.5644              3545.1246              3600.2921
 Red. masses --      1.0459                 1.0981                 1.0774
 Frc consts  --      7.3452                 8.1312                 8.2280
 IR Inten    --      3.8518                 0.9320                29.2141

 - Thermochemistry -
 -------------------
 Temperature   298.150 Kelvin.  Pressure   1.00000 Atm.
 Atom     1 has atomic number  6 and mass  12.00000

 Molecular mass:   217.12488 amu.
 Principal axes and moments of inertia in atomic units:
                           1         2         3
     Eigenvalues --  1987.573554937.015675422.43578
           X            0.99970   0.00862  -0.02280
           Y           -0.00736   0.99847   0.05481
           Z            0.02323  -0.05463   0.99824
 This molecule is an asymmetric top.
 Rotational symmetry number  1.
 Warning -- assumption of classical behavior for rotation
           may cause significant error
 Rotational temperatures (Kelvin)      0.04358     0.01754     0.01597
 Rotational constants (GHZ):           0.90801     0.36555     0.33283
 Zero-point vibrational energy     765062.0 (Joules/Mol)
                                  182.85420 (Kcal/Mol)
 Warning -- explicit consideration of  24 degrees of freedom as
           vibrations may cause significant error
 Vibrational temperatures:     39.04    55.18    82.68   116.97   159.26
          (Kelvin)            210.05   227.72   264.08   308.01   327.87
                              345.82   415.42   438.63   452.53   492.15
                              529.29   545.52   603.36   670.20   742.10
                              799.34   827.12   865.85   875.55   899.81
                              941.64   995.04  1089.98  1121.29  1204.77
                             1259.86  1286.13  1331.67  1346.28  1380.77
                             1411.25  1470.65  1487.73  1518.43  1527.55
                             1578.63  1605.50  1626.44  1685.53  1698.65
                             1732.59  1760.40  1773.79  1788.10  1869.50
                             1875.18  1907.42  1916.89  1925.54  1936.06
                             1974.30  1987.28  2010.14  2030.04  2040.16
                             2058.69  2066.23  2085.59  2099.81  2146.92
                             2157.25  2166.42  2171.74  2180.56  2184.93
                             2204.77  2209.01  2476.16  2565.08  4220.20
                             4233.57  4357.97  4360.25  4387.71  4397.41
                             4403.88  4419.49  4430.83  4439.71  4451.83
                             4481.43  4492.18  4501.88  4504.57  4538.69
                             4967.47  5100.64  5180.02

 Zero-point correction=                           0.291397 (Hartree/Particle)
 Thermal correction to Energy=                    0.306813
 Thermal correction to Enthalpy=                  0.307758
 Thermal correction to Gibbs Free Energy=         0.247877
 Sum of electronic and zero-point Energies=           -991.807467
 Sum of electronic and thermal Energies=              -991.792051
 Sum of electronic and thermal Enthalpies=            -991.791106
 Sum of electronic and thermal Free Energies=         -991.850987

                     E (Thermal)             CV                S
                      KCal/Mol        Cal/Mol-Kelvin    Cal/Mol-Kelvin
 Total                  192.528             57.953            126.029
 Electronic               0.000              0.000              0.000
 Translational            0.889              2.981             42.029
 Rotational               0.889              2.981             32.342
 Vibrational            190.751             51.991             51.658
 Vibration     1          0.593              1.984              6.029
 Vibration     2          0.594              1.982              5.342
 Vibration     3          0.596              1.975              4.542
 Vibration     4          0.600              1.962              3.859
 Vibration     5          0.607              1.941              3.257
 Vibration     6          0.617              1.907              2.724
 Vibration     7          0.621              1.893              2.570
 Vibration     8          0.631              1.862              2.292
 Vibration     9          0.644              1.820              2.009
 Vibration    10          0.651              1.798              1.896
 Vibration    11          0.657              1.779              1.800
 Vibration    12          0.685              1.695              1.481
 Vibration    13          0.696              1.664              1.390
 Vibration    14          0.702              1.646              1.338
 Vibration    15          0.721              1.591              1.203
 Vibration    16          0.740              1.538              1.089
 Vibration    17          0.749              1.515              1.043
 Vibration    18          0.782              1.428              0.894
 Vibration    19          0.823              1.326              0.749
 Vibration    20          0.871              1.215              0.620
 Vibration    21          0.911              1.128              0.533
 Vibration    22          0.931              1.086              0.495
 Vibration    23          0.960              1.028              0.447
 Vibration    24          0.967              1.014              0.435

 Optimization completed.
    -- Stationary point found.
 Normal termination of Gaussian 16 at Thu Dec 10 09:40:21 2020.

 ----------------------------------------------------------------------
 # B3LYP/6-311++G(d,p) empiricaldispersion=gd3bj scf=xqc pop=npa geom=c
 heck
 ----------------------------------------------------------------------

 ---------------------------------------
 CID_116323520_JID_4293_Energie_neutraal
 ---------------------------------------
 Structure from the checkpoint file:  "JID_4293.chk"
 Charge =  0 Multiplicity = 1

 SCF Done:  E(RB3LYP) =  -992.305092171     A.U. after   14 cycles
 Normal termination of Gaussian 16 at Thu Dec 10 09:45:42 2020.

 ----------------------------------------------------------------------
 # B3LYP/6-311++G(d,p) empiricaldispersion=gd3bj scf=xqc pop=npa geom=c
 heck
 ----------------------------------------------------------------------

 -------------------------------------
 CID_116323520_JID_4293_Energie_kation
 -------------------------------------
 Structure from the checkpoint file:  "JID_4293.chk"
 Charge =  1 Multiplicity = 2

 SCF Done:  E(UB3LYP) =  -992.022579632     A.U. after   24 cycles
 Normal termination of Gaussian 16 at Thu Dec 10 09:58:32 2020.
 Gaussian 16:  ES64L-G16RevA.03 25-Dec-2016

 ----------------------------------------------------------------------
 # B3LYP/6-311++G(d,p) empiricaldispersion=gd3bj scf=xqc pop=npa geom=c
 heck
 ----------------------------------------------------------------------

 ------------------------------------
 CID_116323520_JID_4293_Energie_anion
 ------------------------------------
 Structure from the checkpoint file:  "JID_4293.chk"
 Charge = -1 Multiplicity = 2

                         Standard orientation:
 ---------------------------------------------------------------------
 Center     Atomic      Atomic             Coordinates (Angstroms)
 Number     Number       Type             X           Y           Z
 ---------------------------------------------------------------------
      1          6           0       -2.617621    0.604373    2.010081
      2          6           0       -1.881539    1.108151    0.769358
      3          6           0       -0.526727    0.416342    0.561659
      4          7           0       -0.672302   -1.010444    0.314445
      5          6           0       -1.305628   -1.329134   -0.955271
      6          6           0       -2.754233   -0.846600   -0.999896
      7         16           0       -2.890462    0.967968   -0.773666
      8          6           0        0.464683   -1.857341    0.668486
      9          6           0        1.610903   -2.000262   -0.353181
     10          6           0        2.220502   -0.683196   -0.841978
     11          6           0        2.793247    0.156320    0.292423
     12          8           0        3.125404   -0.317400    1.372655
     13          7           0        2.940899    1.498157    0.047426
     14          7           0        2.662368    2.198794   -1.135437
     15          1           0       -3.582735    1.104956    2.124885
     16          1           0       -2.015181    0.799119    2.906763
     17          1           0       -2.781811   -0.474378    1.951797
     18          1           0       -1.699159    2.185103    0.859855
     19          1           0       -0.005135    0.944638   -0.257940
     20          1           0        0.076645    0.541453    1.467479
     21          1           0       -1.298851   -2.420336   -1.071528
     22          1           0       -0.760693   -0.902950   -1.819620
     23          1           0       -3.343016   -1.359258   -0.233554
     24          1           0       -3.199536   -1.060586   -1.976218
     25          1           0        0.877346   -1.480017    1.607049
     26          1           0        0.077211   -2.865587    0.871209
     27          1           0        2.393790   -2.605347    0.117028
     28          1           0        1.260810   -2.557454   -1.230799
     29          1           0        3.042698   -0.897185   -1.540968
     30          1           0        1.486641   -0.108530   -1.413740
     31          1           0        3.371797    2.042685    0.783920
     32          1           0        3.144561    1.768007   -1.921722
     33          1           0        1.660509    2.179914   -1.321594
 ---------------------------------------------------------------------

 SCF Done:  E(UB3LYP) =  -992.296019500     A.U. after   33 cycles
 SCF Done:  E(UB3LYP) =  -992.296019500     a.u. after    1 cycles

 The electronic state is 2-A.
 Alpha  occ. eigenvalues --  -88.73976 -18.99272 -14.26263 -14.24075 -14.20717
 Alpha  occ. eigenvalues --  -10.17585 -10.11164 -10.10243 -10.10178 -10.10066
 Alpha  occ. eigenvalues --  -10.09208 -10.07686 -10.07249 -10.06720  -7.82615
 Alpha  occ. eigenvalues --   -5.78988  -5.78662  -5.77982  -0.94766  -0.88290
 Alpha  occ. eigenvalues --   -0.83525  -0.72364  -0.70276  -0.68711  -0.67952
 Alpha  occ. eigenvalues --   -0.61546  -0.60203  -0.55294  -0.53469  -0.51023
 Alpha  occ. eigenvalues --   -0.47267  -0.44212  -0.42545  -0.41805  -0.40045
 Alpha  occ. eigenvalues --   -0.38797  -0.37682  -0.37277  -0.35862  -0.35174
 Alpha  occ. eigenvalues --   -0.33809  -0.32139  -0.31268  -0.30646  -0.29863
 Alpha  occ. eigenvalues --   -0.29251  -0.28140  -0.27320  -0.26415  -0.25416
 Alpha  occ. eigenvalues --   -0.24821  -0.24335  -0.22924  -0.20610  -0.19616
 Alpha  occ. eigenvalues --   -0.16654  -0.15589  -0.13258  -0.11487   0.04216
 Alpha virt. eigenvalues --    0.06389   0.06648   0.08012   0.08532   0.08762
 Alpha virt. eigenvalues --    0.09214   0.09620   0.10414   0.10857   0.10961
 Alpha virt. eigenvalues --    0.11559   0.12174   0.12490   0.12862   0.13068

  Beta  occ. eigenvalues --  -88.73974 -18.99268 -14.26254 -14.24003 -14.20711
  Beta  occ. eigenvalues --  -10.17585 -10.11158 -10.10226 -10.10161 -10.10040
  Beta  occ. eigenvalues --  -10.09203 -10.07640 -10.07237 -10.06705  -7.82612
  Beta  occ. eigenvalues --   -5.78986  -5.78658  -5.77978  -0.94753  -0.88238
  Beta  occ. eigenvalues --   -0.83506  -0.72341  -0.70173  -0.68670  -0.67910
  Beta  occ. eigenvalues --   -0.61502  -0.60171  -0.55255  -0.53427  -0.50992
  Beta  occ. eigenvalues --   -0.47211  -0.44159  -0.42461  -0.41722  -0.40004
  Beta  occ. eigenvalues --   -0.38747  -0.37656  -0.37239  -0.35829  -0.35148
  Beta  occ. eigenvalues --   -0.33786  -0.32111  -0.31244  -0.30615  -0.29838
  Beta  occ. eigenvalues --   -0.29218  -0.28110  -0.27294  -0.26388  -0.25374
  Beta  occ. eigenvalues --   -0.24781  -0.24308  -0.22898  -0.20589  -0.19562
  Beta  occ. eigenvalues --   -0.16627  -0.15554  -0.13238  -0.11443
  Beta virt. eigenvalues --    0.06361   0.07173   0.07516   0.08381   0.08844
  Beta virt. eigenvalues --    0.09131   0.09624   0.09744   0.10572   0.11080
  Beta virt. eigenvalues --    0.11249   0.12052   0.12378   0.12639   0.13033

 Mulliken charges and spin densities:
               1          2
     1  C   -0.215932  -0.461540
     2  C    0.318403  -0.047679
     3  C   -0.532524   0.087283
     4  N    0.084899   0.076059
     5  C   -0.116783   0.091636
     6  C    0.373485  -1.271399
     7  S   -0.148378   0.117066
     8  C   -0.169137  -0.080535
     9  C    0.771538  -1.168385
    10  C    0.059747  -0.063375
    11  C   -0.030624  -0.254084
    12  O   -0.281599  -0.011916
    13  N   -0.147876  -0.008509
    14  N   -0.216978  -0.232894
    15  H    0.025619   0.116784
    16  H    0.075153   0.043957
    17  H    0.077218   0.077079
    18  H   -0.083469   0.356347
    19  H    0.642419  -0.730952
    20  H    0.068492   0.139135
    21  H   -0.306432   0.478331
    22  H   -0.072205   0.178125
    23  H    0.122590   0.066228
    24  H   -0.188938   0.411105
    25  H    0.196652  -0.026861
    26  H   -0.054103   0.212728
    27  H    0.053580   0.138157
    28  H   -0.132023   0.280371
    29  H   -0.838593   1.079991
    30  H   -0.217413   0.439731
    31  H    0.232432   0.078273
    32  H   -0.219469   0.489433
    33  H   -0.129751   0.400308
 Sum of Mulliken charges =  -1.00000   1.00000

 Dipole moment (field-independent basis, Debye):
    X=             -4.2903    Y=              0.3665    Z=              5.1281  Tot=              6.6961
 Quadrupole moment (field-independent basis, Debye-Ang):
   XX=           -162.2050   YY=           -135.8354   ZZ=           -140.1278
   XY=             -0.3137   XZ=              7.4441   YZ=              1.9248

 Summary of Natural Population Analysis:

                                       Natural Population
                Natural  -----------------------------------------------
    Atom  No    Charge         Core      Valence    Rydberg      Total
 -----------------------------------------------------------------------
      C    1   -0.29072      0.99963     2.28494    0.00615     3.29072
      C    2   -0.16816      0.99957     2.15481    0.01378     3.16816
      C    3   -0.08819      0.99957     2.07631    0.01231     3.08819
      N    4   -0.29054      0.99970     2.77779    0.01304     3.79054
      C    5   -0.09118      0.99959     2.07849    0.01309     3.09118
      C    6   -0.25194      0.99958     2.24129    0.01107     3.25194
      S    7    0.08514      4.99962     2.89876    0.01649     7.91486
      C    8   -0.07942      0.99961     2.06871    0.01110     3.07942
      C    9   -0.19902      0.99962     2.18941    0.00998     3.19902
      C   10   -0.24549      0.99958     2.23462    0.01130     3.24549
      C   11    0.34018      0.99966     1.63644    0.02373     2.65982
      O   12   -0.32857      0.99988     3.32318    0.00551     4.32857
      N   13   -0.23528      0.99966     2.72141    0.01421     3.73528
      N   14   -0.31682      0.99977     2.80562    0.01143     3.81682
      H   15    0.10054      0.00000     0.39828    0.00118     0.39946
      H   16    0.09792      0.00000     0.40105    0.00103     0.40208
      H   17    0.10455      0.00000     0.39409    0.00136     0.39545
      H   18    0.10483      0.00000     0.39418    0.00099     0.39517
      H   19    0.08379      0.00000     0.41330    0.00291     0.41621
      H   20    0.10198      0.00000     0.39657    0.00145     0.39802
      H   21    0.10090      0.00000     0.39742    0.00168     0.39910
      H   22    0.08741      0.00000     0.41031    0.00228     0.41259
      H   23    0.09893      0.00000     0.39954    0.00152     0.40107
      H   24    0.10813      0.00000     0.39085    0.00102     0.39187
      H   25    0.10279      0.00000     0.39596    0.00125     0.39721
      H   26    0.09217      0.00000     0.40684    0.00099     0.40783
      H   27    0.10467      0.00000     0.39426    0.00107     0.39533
      H   28    0.09936      0.00000     0.39917    0.00147     0.40064
      H   29    0.11971      0.00000     0.37750    0.00279     0.38029
      H   30    0.10764      0.00000     0.38924    0.00312     0.39236
      H   31    0.18778      0.00000     0.31008    0.00213     0.31222
      H   32    0.18073      0.00000     0.31309    0.00617     0.31927
      H   33    0.17619      0.00000     0.32038    0.00343     0.32381
 =======================================================================
   * Total *    0.00000     17.99505    40.79391    0.21104    59.00000

 Normal termination of Gaussian 16 at Thu Dec 10 10:16:26 2020.
