 Gaussian 16, Revision A.03,

 -----------------------------------------------------------
 # opt freq B3LYP/6-31G(d) empiricaldispersion=gd3bj scf=xqc
 -----------------------------------------------------------

 ------------------------------
 CID_83680381_JID_3732_neutraal
 ------------------------------
 Symbolic Z-matrix:
 Charge =  0 Multiplicity = 1

 SCF Done:  E(RB3LYP) =  -1024.85398264     A.U. after   16 cycles
 SCF Done:  E(RB3LYP) =  -1024.85770972     A.U. after   13 cycles
 SCF Done:  E(RB3LYP) =  -1024.85701584     A.U. after   14 cycles
 SCF Done:  E(RB3LYP) =  -1024.85867763     A.U. after   12 cycles
 SCF Done:  E(RB3LYP) =  -1024.85868158     A.U. after   12 cycles
 SCF Done:  E(RB3LYP) =  -1024.85882919     A.U. after   12 cycles
 SCF Done:  E(RB3LYP) =  -1024.85887005     A.U. after   11 cycles
 SCF Done:  E(RB3LYP) =  -1024.85890187     A.U. after   11 cycles
 SCF Done:  E(RB3LYP) =  -1024.85892231     A.U. after   12 cycles
 SCF Done:  E(RB3LYP) =  -1024.85893274     A.U. after   11 cycles
 SCF Done:  E(RB3LYP) =  -1024.85896757     A.U. after   11 cycles
 SCF Done:  E(RB3LYP) =  -1024.85897224     A.U. after   10 cycles
 SCF Done:  E(RB3LYP) =  -1024.85897442     A.U. after   10 cycles
 SCF Done:  E(RB3LYP) =  -1024.85897528     A.U. after    8 cycles
 SCF Done:  E(RB3LYP) =  -1024.85897551     A.U. after    8 cycles
 SCF Done:  E(RB3LYP) =  -1024.85897554     A.U. after    8 cycles
 Optimization completed.
    -- Stationary point found.
 Normal termination of Gaussian 16 at Sun Dec 13 20:01:16 2020.

 --------------------------------------------------------------------
 #N Geom=AllCheck Guess=TCheck SCRF=Check GenChk RB3LYP/6-31G(d) Freq
 --------------------------------------------------------------------

 Structure from the checkpoint file:  "JID_3732.chk"
 ------------------------------
 CID_83680381_JID_3732_neutraal
 ------------------------------
 Charge =  0 Multiplicity = 1

 SCF Done:  E(RB3LYP) =  -1024.85897554     A.U. after    1 cycles

  Exact polarizability: 122.738   4.376 130.344  10.776   5.903  66.662
 Approx polarizability: 200.607  28.608 225.050  30.952  19.787 107.861

                      1                      2                      3
                      A                      A                      A
 Frequencies --     17.3258                48.6553                68.8081
 Red. masses --     12.4747                 7.1591                 7.9115
 Frc consts  --      0.0022                 0.0100                 0.0221
 IR Inten    --      1.7340                 1.7745                 1.0552

                      4                      5                      6
                      A                      A                      A
 Frequencies --    101.5799               131.7794               156.7595
 Red. masses --      4.8750                 9.5567                 9.9959
 Frc consts  --      0.0296                 0.0978                 0.1447
 IR Inten    --      1.0464                 1.2306                 0.7160

                      7                      8                      9
                      A                      A                      A
 Frequencies --    202.7088               245.5812               260.0644
 Red. masses --      5.9169                 1.0466                 4.1956
 Frc consts  --      0.1432                 0.0372                 0.1672
 IR Inten    --      5.0650                 0.3513                 0.6871

                     10                     11                     12
                      A                      A                      A
 Frequencies --    332.4381               353.4127               406.5922
 Red. masses --      4.4436                 6.7589                 3.3669
 Frc consts  --      0.2893                 0.4974                 0.3279
 IR Inten    --      2.1445                 0.7130                 4.2175

                     13                     14                     15
                      A                      A                      A
 Frequencies --    408.9849               478.0359               491.1205
 Red. masses --     13.4337                 7.0758                 3.2867
 Frc consts  --      1.3239                 0.9527                 0.4671
 IR Inten    --      7.2055                 0.7716                 2.2128

                     16                     17                     18
                      A                      A                      A
 Frequencies --    525.5040               579.9873               606.8820
 Red. masses --      3.4425                 4.9047                 1.6500
 Frc consts  --      0.5601                 0.9721                 0.3580
 IR Inten    --      2.6557                39.8382                28.6684

                     19                     20                     21
                      A                      A                      A
 Frequencies --    615.5365               630.8008               643.4406
 Red. masses --      3.8813                 2.4343                 3.0802
 Frc consts  --      0.8664                 0.5707                 0.7514
 IR Inten    --     35.6014                67.0946                81.6618

                     22                     23                     24
                      A                      A                      A
 Frequencies --    652.0140               674.3596               700.1923
 Red. masses --      2.6771                 2.9745                 3.0573
 Frc consts  --      0.6706                 0.7970                 0.8831
 IR Inten    --     38.5900                14.8811                39.6619

                     25                     26                     27
                      A                      A                      A
 Frequencies --    785.5792               859.3646               877.7715
 Red. masses --      4.2859                 4.1648                 4.6269
 Frc consts  --      1.5584                 1.8122                 2.1004
 IR Inten    --      5.6840                16.3889                 4.8235

                     28                     29                     30
                      A                      A                      A
 Frequencies --    978.7264              1007.6406              1059.7073
 Red. masses --      2.5710                 1.9779                 1.7333
 Frc consts  --      1.4510                 1.1832                 1.1468
 IR Inten    --     16.9904                12.8975                 4.4613

                     31                     32                     33
                      A                      A                      A
 Frequencies --   1118.9367              1174.6246              1190.7128
 Red. masses --      2.1977                 2.3521                 2.8916
 Frc consts  --      1.6212                 1.9121                 2.4154
 IR Inten    --     13.1423                49.7317               108.4758

                     34                     35                     36
                      A                      A                      A
 Frequencies --   1221.3894              1267.8263              1321.0408
 Red. masses --      3.9688                 1.3819                 2.8300
 Frc consts  --      3.4883                 1.3087                 2.9099
 IR Inten    --     34.3237                30.2428               258.5983

                     37                     38                     39
                      A                      A                      A
 Frequencies --   1341.3735              1373.5272              1417.3977
 Red. masses --      1.4919                 2.4159                 1.3531
 Frc consts  --      1.5816                 2.6854                 1.6016
 IR Inten    --      0.8798                53.3399                48.5278

                     40                     41                     42
                      A                      A                      A
 Frequencies --   1455.0843              1488.7677              1510.9916
 Red. masses --      3.1677                 1.0758                 1.0537
 Frc consts  --      3.9516                 1.4048                 1.4174
 IR Inten    --    101.4618                14.3420                12.0062

                     43                     44                     45
                      A                      A                      A
 Frequencies --   1521.9160              1644.0586              1750.4366
 Red. masses --      1.0664                 9.4345                10.1174
 Frc consts  --      1.4553                15.0246                18.2648
 IR Inten    --      7.4887                72.9508               218.1709

                     46                     47                     48
                      A                      A                      A
 Frequencies --   1855.8060              1863.6150              3058.7084
 Red. masses --     11.8805                10.0699                 1.0401
 Frc consts  --     24.1074                20.6057                 5.7333
 IR Inten    --    768.5488               266.9294                 2.7150

                     49                     50                     51
                      A                      A                      A
 Frequencies --   3106.7954              3131.0886              3153.7333
 Red. masses --      1.0593                 1.0962                 1.1040
 Frc consts  --      6.0243                 6.3320                 6.4695
 IR Inten    --      6.7376                 3.4301                 1.7259

                     52                     53                     54
                      A                      A                      A
 Frequencies --   3173.7093              3599.0059              3686.0106
 Red. masses --      1.1030                 1.0774                 1.0642
 Frc consts  --      6.5456                 8.2220                 8.5187
 IR Inten    --      5.1260               105.5878                68.4275

 - Thermochemistry -
 -------------------
 Temperature   298.150 Kelvin.  Pressure   1.00000 Atm.
 Atom     1 has atomic number  6 and mass  12.00000

 Molecular mass:   201.00958 amu.
 Principal axes and moments of inertia in atomic units:
                           1         2         3
     Eigenvalues --  2120.720132919.879604588.36723
           X            0.99957  -0.02921   0.00399
           Y            0.02924   0.99955  -0.00666
           Z           -0.00379   0.00677   0.99997
 This molecule is an asymmetric top.
 Rotational symmetry number  1.
 Warning -- assumption of classical behavior for rotation
           may cause significant error
 Rotational temperatures (Kelvin)      0.04084     0.02966     0.01888
 Rotational constants (GHZ):           0.85100     0.61809     0.39333
 Zero-point vibrational energy     372803.7 (Joules/Mol)
                                   89.10222 (Kcal/Mol)
 Warning -- explicit consideration of  19 degrees of freedom as
           vibrations may cause significant error
 Vibrational temperatures:     24.93    70.00    99.00   146.15   189.60
          (Kelvin)            225.54   291.65   353.34   374.17   478.30
                              508.48   585.00   588.44   687.79   706.61
                              756.08   834.47   873.17   885.62   907.58
                              925.77   938.10   970.25  1007.42  1130.27
                             1236.43  1262.92  1408.17  1449.77  1524.68
                             1609.90  1690.02  1713.17  1757.31  1824.12
                             1900.68  1929.94  1976.20  2039.32  2093.54
                             2142.00  2173.98  2189.70  2365.43  2518.49
                             2670.09  2681.33  4400.80  4469.99  4504.94
                             4537.52  4566.26  5178.17  5303.35

 Zero-point correction=                           0.141993 (Hartree/Particle)
 Thermal correction to Energy=                    0.154534
 Thermal correction to Enthalpy=                  0.155478
 Thermal correction to Gibbs Free Energy=         0.101062
 Sum of electronic and zero-point Energies=          -1024.716982
 Sum of electronic and thermal Energies=             -1024.704442
 Sum of electronic and thermal Enthalpies=           -1024.703498
 Sum of electronic and thermal Free Energies=        -1024.757913

                     E (Thermal)             CV                S
                      KCal/Mol        Cal/Mol-Kelvin    Cal/Mol-Kelvin
 Total                   96.971             45.299            114.527
 Electronic               0.000              0.000              0.000
 Translational            0.889              2.981             41.799
 Rotational               0.889              2.981             31.719
 Vibrational             95.194             39.337             41.009
 Vibration     1          0.593              1.986              6.919
 Vibration     2          0.595              1.978              4.871
 Vibration     3          0.598              1.969              4.187
 Vibration     4          0.604              1.948              3.424
 Vibration     5          0.612              1.922              2.920
 Vibration     6          0.620              1.895              2.589
 Vibration     7          0.639              1.836              2.108
 Vibration     8          0.660              1.770              1.762
 Vibration     9          0.668              1.746              1.661
 Vibration    10          0.714              1.611              1.248
 Vibration    11          0.730              1.568              1.151
 Vibration    12          0.771              1.456              0.939
 Vibration    13          0.773              1.451              0.930
 Vibration    14          0.835              1.299              0.715
 Vibration    15          0.847              1.270              0.681
 Vibration    16          0.880              1.194              0.597
 Vibration    17          0.937              1.075              0.485
 Vibration    18          0.966              1.017              0.438
 Vibration    19          0.975              0.999              0.424

                           ! Non-Optimized Parameters !
 Normal termination of Gaussian 16 at Sun Dec 13 20:05:53 2020.

 ----------------------------------------------------------------------
 # B3LYP/6-311++G(d,p) empiricaldispersion=gd3bj scf=xqc pop=npa geom=c
 heck
 ----------------------------------------------------------------------

 --------------------------------------
 CID_83680381_JID_3732_Energie_neutraal
 --------------------------------------
 Structure from the checkpoint file:  "JID_3732.chk"
 Charge =  0 Multiplicity = 1

 SCF Done:  E(RB3LYP) =  -1025.08206721     A.U. after   16 cycles
 Normal termination of Gaussian 16 at Sun Dec 13 20:07:50 2020.

 ----------------------------------------------------------------------
 # B3LYP/6-311++G(d,p) empiricaldispersion=gd3bj scf=xqc pop=npa geom=c
 heck
 ----------------------------------------------------------------------

 ------------------------------------
 CID_83680381_JID_3732_Energie_kation
 ------------------------------------
 Structure from the checkpoint file:  "JID_3732.chk"
 Charge =  1 Multiplicity = 2

 SCF Done:  E(UB3LYP) =  -1024.76457726     A.U. after   26 cycles
 Normal termination of Gaussian 16 at Sun Dec 13 20:12:14 2020.
 Gaussian 16:  ES64L-G16RevA.03 25-Dec-2016

 ----------------------------------------------------------------------
 # B3LYP/6-311++G(d,p) empiricaldispersion=gd3bj scf=xqc pop=npa geom=c
 heck
 ----------------------------------------------------------------------

 -----------------------------------
 CID_83680381_JID_3732_Energie_anion
 -----------------------------------
 Structure from the checkpoint file:  "JID_3732.chk"
 Charge = -1 Multiplicity = 2

                         Standard orientation:
 ---------------------------------------------------------------------
 Center     Atomic      Atomic             Coordinates (Angstroms)
 Number     Number       Type             X           Y           Z
 ---------------------------------------------------------------------
      1          6           0       -0.886365    2.772379   -0.436967
      2          6           0        0.455118    2.172517   -0.088131
      3          8           0        1.390528    2.875271    0.277987
      4          6           0        0.683299    0.709021   -0.168944
      5          6           0       -0.116838   -0.335814   -0.523295
      6         16           0        0.737106   -1.866938   -0.367881
      7          6           0        2.264607   -1.023579    0.201020
      8          8           0        3.303056   -1.564123    0.495027
      9          7           0        1.963801    0.312105    0.209352
     10          6           0       -1.553741   -0.370819   -0.953204
     11          6           0       -2.513605   -0.693765    0.186935
     12          8           0       -3.323945   -1.587533    0.182403
     13          8           0       -2.365262    0.171251    1.219909
     14          1           0       -0.836093    3.846609   -0.252059
     15          1           0       -1.682004    2.327989    0.168520
     16          1           0       -1.124684    2.606988   -1.494563
     17          1           0        2.641539    1.012728    0.488481
     18          1           0       -1.853253    0.588325   -1.381594
     19          1           0       -1.706241   -1.136529   -1.716941
     20          1           0       -3.009435   -0.098403    1.901693
 ---------------------------------------------------------------------

 SCF Done:  E(UB3LYP) =  -1025.10911369     A.U. after   27 cycles

 The electronic state is 2-A.
 Alpha  occ. eigenvalues --  -88.72818 -19.06697 -19.00915 -18.97462 -18.92501
 Alpha  occ. eigenvalues --  -14.21876 -10.19338 -10.16695 -10.07748 -10.07290
 Alpha  occ. eigenvalues --  -10.05881 -10.04999 -10.03378  -7.81482  -5.77782
 Alpha  occ. eigenvalues --   -5.77460  -5.77016  -1.00601  -0.92785  -0.91812
 Alpha  occ. eigenvalues --   -0.87316  -0.82242  -0.69634  -0.63183  -0.61164
 Alpha  occ. eigenvalues --   -0.57762  -0.51420  -0.47290  -0.45051  -0.41943
 Alpha  occ. eigenvalues --   -0.38853  -0.37800  -0.35757  -0.34838  -0.31852
 Alpha  occ. eigenvalues --   -0.31710  -0.31182  -0.30003  -0.29260  -0.28845
 Alpha  occ. eigenvalues --   -0.27687  -0.26555  -0.25159  -0.23130  -0.22427
 Alpha  occ. eigenvalues --   -0.21558  -0.19760  -0.17912  -0.15477  -0.14485
 Alpha  occ. eigenvalues --   -0.09755  -0.08392   0.03696
 Alpha virt. eigenvalues --    0.07776   0.09512   0.10415   0.10650   0.11979
 Alpha virt. eigenvalues --    0.12588   0.13292   0.13377   0.14075   0.14882
 Alpha virt. eigenvalues --    0.14996   0.16264   0.16315   0.16720   0.17277

  Beta  occ. eigenvalues --  -88.72793 -19.06685 -19.00869 -18.97490 -18.91868
  Beta  occ. eigenvalues --  -14.21847 -10.19207 -10.16710 -10.07795 -10.06881
  Beta  occ. eigenvalues --  -10.05828 -10.04475 -10.03410  -7.81460  -5.77775
  Beta  occ. eigenvalues --   -5.77457  -5.76920  -1.00518  -0.92813  -0.91736
  Beta  occ. eigenvalues --   -0.86281  -0.82026  -0.69126  -0.63008  -0.60661
  Beta  occ. eigenvalues --   -0.57572  -0.51226  -0.47122  -0.44409  -0.41354
  Beta  occ. eigenvalues --   -0.38722  -0.37627  -0.35472  -0.34596  -0.31649
  Beta  occ. eigenvalues --   -0.31384  -0.30937  -0.29567  -0.29046  -0.28500
  Beta  occ. eigenvalues --   -0.27527  -0.26329  -0.24707  -0.22548  -0.21691
  Beta  occ. eigenvalues --   -0.21228  -0.18403  -0.16909  -0.14691  -0.14473
  Beta  occ. eigenvalues --   -0.09196  -0.06735
  Beta virt. eigenvalues --    0.07733   0.09351   0.10345   0.10609   0.11894
  Beta virt. eigenvalues --    0.11990   0.12791   0.13367   0.13489   0.14437
  Beta virt. eigenvalues --    0.14880   0.15034   0.16242   0.16339   0.16728

 Mulliken charges and spin densities:
               1          2
     1  C   -0.546922  -0.033262
     2  C   -0.560801   0.229765
     3  O   -0.440556   0.219386
     4  C   -1.421647   0.028106
     5  C    1.963200   0.352727
     6  S   -0.182149   0.086104
     7  C    0.042863  -0.011711
     8  O   -0.395828  -0.008631
     9  N   -0.034463   0.005833
    10  C   -0.153546  -0.044266
    11  C   -0.126649   0.053835
    12  O   -0.301564   0.019004
    13  O   -0.160878  -0.003818
    14  H    0.151562   0.000769
    15  H    0.128803   0.031443
    16  H    0.128951   0.002936
    17  H    0.337471  -0.002929
    18  H    0.108938   0.035153
    19  H    0.195046   0.035305
    20  H    0.268169   0.004250
 Sum of Mulliken charges =  -1.00000   1.00000

 Dipole moment (field-independent basis, Debye):
    X=             -4.7862    Y=              0.0510    Z=             -0.3640  Tot=              4.8003
 Quadrupole moment (field-independent basis, Debye-Ang):
   XX=           -117.2997   YY=           -120.3701   ZZ=            -84.9269
   XY=             -5.8011   XZ=             -5.2049   YZ=             -1.3860

 Summary of Natural Population Analysis:

                                       Natural Population
                Natural  -----------------------------------------------
    Atom  No    Charge         Core      Valence    Rydberg      Total
 -----------------------------------------------------------------------
      C    1   -0.33148      0.99964     2.32749    0.00435     3.33148
      C    2    0.30828      0.99965     1.67196    0.02011     2.69172
      O    3   -0.25739      0.99988     3.24984    0.00767     4.25739
      C    4    0.03428      0.99940     1.95447    0.01185     2.96572
      C    5   -0.00764      0.99945     1.99824    0.00995     3.00764
      S    6    0.11533      4.99947     2.86642    0.01877     7.88467
      C    7    0.26285      0.99973     1.70979    0.02763     2.73715
      O    8   -0.33116      0.99986     3.32271    0.00859     4.33116
      N    9   -0.29729      0.99961     2.78748    0.01020     3.79729
      C   10   -0.25460      0.99954     2.24574    0.00932     3.25460
      C   11    0.42578      0.99973     1.54861    0.02587     2.57422
      O   12   -0.31336      0.99986     3.30559    0.00791     4.31336
      O   13   -0.34314      0.99987     3.33663    0.00663     4.34314
      H   14    0.10208      0.00000     0.39627    0.00166     0.39792
      H   15    0.10860      0.00000     0.39018    0.00122     0.39140
      H   16    0.09781      0.00000     0.40108    0.00111     0.40219
      H   17    0.21333      0.00000     0.28473    0.00194     0.28667
      H   18    0.12098      0.00000     0.37769    0.00133     0.37902
      H   19    0.11209      0.00000     0.38640    0.00150     0.38791
      H   20    0.23466      0.00000     0.26257    0.00277     0.26534
 =======================================================================
   * Total *    0.00000     16.99571    34.82388    0.18040    52.00000

 Normal termination of Gaussian 16 at Sun Dec 13 20:16:51 2020.
