 Gaussian 16, Revision A.03,

 -----------------------------------------------------------
 # opt freq B3LYP/6-31G(d) empiricaldispersion=gd3bj scf=xqc
 -----------------------------------------------------------

 -------------------------------
 CID_153782030_JID_1549_neutraal
 -------------------------------
 Symbolic Z-matrix:
 Charge =  0 Multiplicity = 1

 SCF Done:  E(RB3LYP) =  -476.958125993     A.U. after   14 cycles
 SCF Done:  E(RB3LYP) =  -476.959703007     A.U. after   11 cycles
 SCF Done:  E(RB3LYP) =  -476.960244689     A.U. after   10 cycles
 SCF Done:  E(RB3LYP) =  -476.960299421     A.U. after   10 cycles
 SCF Done:  E(RB3LYP) =  -476.960313046     A.U. after   10 cycles
 SCF Done:  E(RB3LYP) =  -476.960332063     A.U. after    9 cycles
 SCF Done:  E(RB3LYP) =  -476.960335792     A.U. after    8 cycles
 SCF Done:  E(RB3LYP) =  -476.960336244     A.U. after    8 cycles
 SCF Done:  E(RB3LYP) =  -476.960336291     A.U. after    7 cycles
 SCF Done:  E(RB3LYP) =  -476.960336305     A.U. after    6 cycles
 Optimization completed.
    -- Stationary point found.

 1\1\GINC-NODE103\FOpt\RB3LYP\6-31G(d)\C8H13N3\VSC10255\08-Dec-2020\0\\
 # opt freq B3LYP/6-31G(d) empiricaldispersion=gd3bj scf=xqc\\CID_15378
 2030_JID_1549_neutraal\\0,1\C,0.9453622728,-0.0964797794,-0.0839716583
 \C,0.0931136376,1.1403592747,-0.3761653108\C,0.7456014788,2.1331717,-1
 .3656702911\C,2.0110369383,2.8311954443,-0.8058494632\C,1.6864413956,3
 .9764116762,0.1710199226\C,0.9398605253,5.1299857165,-0.5280052302\C,-
 0.156199181,4.5559964228,-1.3694785405\N,-1.2059453851,5.2121673674,-1
 .8759885159\N,-1.8572725501,4.2542784661,-2.5388607221\N,-1.3267096048

 Normal termination of Gaussian 16 at Tue Dec  8 20:20:13 2020.

 --------------------------------------------------------------------
 #N Geom=AllCheck Guess=TCheck SCRF=Check GenChk RB3LYP/6-31G(d) Freq
 --------------------------------------------------------------------

 Structure from the checkpoint file:  "JID_1549.chk"
 -------------------------------
 CID_153782030_JID_1549_neutraal
 -------------------------------
 Charge =  0 Multiplicity = 1

 SCF Done:  E(RB3LYP) =  -476.960336305     A.U. after    1 cycles

  Exact polarizability: 112.324  -2.358 102.578  -3.818  -1.516  70.244
 Approx polarizability: 157.039  -4.255 157.484  -9.619  -5.378 109.704

                      1                      2                      3
                      A                      A                      A
 Frequencies --     59.4959               105.2718               127.4502
 Red. masses --      2.7902                 1.9241                 4.1629
 Frc consts  --      0.0058                 0.0126                 0.0398
 IR Inten    --      0.0177                 0.0644                 0.0598

                      4                      5                      6
                      A                      A                      A
 Frequencies --    209.6331               252.6804               265.3802
 Red. masses --      1.4966                 3.1038                 1.7596
 Frc consts  --      0.0388                 0.1168                 0.0730
 IR Inten    --      0.1378                 0.3318                 0.2026

                      7                      8                      9
                      A                      A                      A
 Frequencies --    321.8839               354.9863               391.7169
 Red. masses --      2.4433                 2.7793                 2.8398
 Frc consts  --      0.1492                 0.2064                 0.2567
 IR Inten    --      0.0916                 0.7083                 0.4665

                     10                     11                     12
                      A                      A                      A
 Frequencies --    410.0516               457.1010               499.7421
 Red. masses --      4.2040                 1.6593                 3.1603
 Frc consts  --      0.4165                 0.2043                 0.4650
 IR Inten    --      1.2999                52.2970                 7.1200

                     13                     14                     15
                      A                      A                      A
 Frequencies --    553.4428               679.0322               713.4775
 Red. masses --      2.5358                 2.6905                 2.8448
 Frc consts  --      0.4576                 0.7309                 0.8532
 IR Inten    --      0.4946                 2.3232                27.0198

                     16                     17                     18
                      A                      A                      A
 Frequencies --    714.9969               763.1743               804.7022
 Red. masses --      3.3703                 2.2205                 2.0573
 Frc consts  --      1.0151                 0.7620                 0.7849
 IR Inten    --     11.5636                 1.0538                 0.5380

                     19                     20                     21
                      A                      A                      A
 Frequencies --    841.3486               877.1667               897.5408
 Red. masses --      1.8164                 2.1656                 1.6591
 Frc consts  --      0.7576                 0.9817                 0.7875
 IR Inten    --      0.7926                 3.3172                 1.7296

                     22                     23                     24
                      A                      A                      A
 Frequencies --    955.1977               984.3875              1007.7970
 Red. masses --      2.3246                 1.8751                11.1336
 Frc consts  --      1.2496                 1.0706                 6.6624
 IR Inten    --     13.5773                 8.5617                19.3460

                     25                     26                     27
                      A                      A                      A
 Frequencies --   1034.9650              1050.6110              1078.1588
 Red. masses --      1.8069                 1.7365                 2.2298
 Frc consts  --      1.1404                 1.1293                 1.5271
 IR Inten    --      2.6466                 0.5984                 2.5657

                     28                     29                     30
                      A                      A                      A
 Frequencies --   1131.5999              1140.3022              1179.9147
 Red. masses --      1.7645                 1.5640                 4.2380
 Frc consts  --      1.3313                 1.1982                 3.4763
 IR Inten    --      2.8806                 0.5469                11.3654

                     31                     32                     33
                      A                      A                      A
 Frequencies --   1187.0060              1199.6554              1211.5663
 Red. masses --      2.5724                 1.7750                 1.5789
 Frc consts  --      2.1355                 1.5051                 1.3655
 IR Inten    --     37.8074                 1.6089                 2.0092

                     34                     35                     36
                      A                      A                      A
 Frequencies --   1245.8403              1288.5193              1299.4007
 Red. masses --      2.9913                 1.2480                 1.2757
 Frc consts  --      2.7355                 1.2208                 1.2691
 IR Inten    --      1.6792                 1.3522                 0.2086

                     37                     38                     39
                      A                      A                      A
 Frequencies --   1321.3809              1353.1086              1365.0961
 Red. masses --      1.5261                 1.8815                 1.3441
 Frc consts  --      1.5700                 2.0296                 1.4758
 IR Inten    --      5.5965                 1.8261                 0.3686

                     40                     41                     42
                      A                      A                      A
 Frequencies --   1384.9916              1391.8564              1403.3207
 Red. masses --      1.4549                 1.5033                 1.4182
 Frc consts  --      1.6443                 1.7159                 1.6455
 IR Inten    --      0.8518                 0.1035                 2.4461

                     43                     44                     45
                      A                      A                      A
 Frequencies --   1417.6877              1441.9866              1466.1691
 Red. masses --      2.3769                 1.2563                 1.7962
 Frc consts  --      2.8147                 1.5391                 2.2749
 IR Inten    --      3.2785                 1.8888                 0.9920

                     46                     47                     48
                      A                      A                      A
 Frequencies --   1507.5538              1516.3859              1519.3034
 Red. masses --      1.1642                 1.0860                 1.0684
 Frc consts  --      1.5589                 1.4713                 1.4530
 IR Inten    --      0.2663                 2.0985                 3.9696

                     49                     50                     51
                      A                      A                      A
 Frequencies --   1528.1214              1533.7029              1539.4765
 Red. masses --      1.0978                 1.0750                 1.2400
 Frc consts  --      1.5104                 1.4898                 1.7315
 IR Inten    --      1.0057                 6.7407                 3.8591

                     52                     53                     54
                      A                      A                      A
 Frequencies --   1543.7303              1573.8984              3028.5004
 Red. masses --      3.1390                 5.1486                 1.0783
 Frc consts  --      4.4075                 7.5144                 5.8272
 IR Inten    --     17.1232                 1.4385                 9.3819

                     55                     56                     57
                      A                      A                      A
 Frequencies --   3032.0860              3044.0044              3045.7570
 Red. masses --      1.0696                 1.0637                 1.0635
 Frc consts  --      5.7935                 5.8073                 5.8125
 IR Inten    --     19.7642                12.5325                 4.5144

                     58                     59                     60
                      A                      A                      A
 Frequencies --   3047.3397              3053.5258              3083.2483
 Red. masses --      1.0475                 1.0601                 1.1002
 Frc consts  --      5.7311                 5.8240                 6.1624
 IR Inten    --     38.8721                53.3543                12.3451

                     61                     62                     63
                      A                      A                      A
 Frequencies --   3088.8458              3095.6996              3098.7518
 Red. masses --      1.0932                 1.1018                 1.0965
 Frc consts  --      6.1455                 6.2211                 6.2036
 IR Inten    --     32.3215                44.9485                37.8015

                     64                     65                     66
                      A                      A                      A
 Frequencies --   3112.9984              3119.3555              3672.4816
 Red. masses --      1.1017                 1.1011                 1.0821
 Frc consts  --      6.2906                 6.3126                 8.5992
 IR Inten    --     47.9942                45.7998               101.4058

 - Thermochemistry -
 -------------------
 Temperature   298.150 Kelvin.  Pressure   1.00000 Atm.
 Atom     1 has atomic number  6 and mass  12.00000

 Molecular mass:   151.11095 amu.
 Principal axes and moments of inertia in atomic units:
                           1         2         3
     Eigenvalues --  1017.048391926.512292700.28315
           X            0.99961   0.02787   0.00250
           Y           -0.02788   0.99959   0.00640
           Z           -0.00232  -0.00647   0.99998
 This molecule is an asymmetric top.
 Rotational symmetry number  1.
 Warning -- assumption of classical behavior for rotation
           may cause significant error
 Rotational temperatures (Kelvin)      0.08516     0.04496     0.03208
 Rotational constants (GHZ):           1.77449     0.93679     0.66835
 Zero-point vibrational energy     554023.9 (Joules/Mol)
                                  132.41489 (Kcal/Mol)
 Warning -- explicit consideration of  13 degrees of freedom as
           vibrations may cause significant error
 Vibrational temperatures:     85.60   151.46   183.37   301.62   363.55
          (Kelvin)            381.82   463.12   510.75   563.59   589.97
                              657.67   719.02   796.28   976.98  1026.54
                             1028.72  1098.04  1157.79  1210.51  1262.05
                             1291.36  1374.32  1416.31  1450.00  1489.08
                             1511.59  1551.23  1628.12  1640.64  1697.63
                             1707.84  1726.04  1743.17  1792.49  1853.89
                             1869.55  1901.17  1946.82  1964.07  1992.69
                             2002.57  2019.07  2039.74  2074.70  2109.49
                             2169.03  2181.74  2185.94  2198.63  2206.66
                             2214.96  2221.08  2264.49  4357.34  4362.50
                             4379.64  4382.17  4384.44  4393.34  4436.11
                             4444.16  4454.02  4458.41  4478.91  4488.06
                             5283.88

 Zero-point correction=                           0.211017 (Hartree/Particle)
 Thermal correction to Energy=                    0.220746
 Thermal correction to Enthalpy=                  0.221690
 Thermal correction to Gibbs Free Energy=         0.175840
 Sum of electronic and zero-point Energies=           -476.749320
 Sum of electronic and thermal Energies=              -476.739590
 Sum of electronic and thermal Enthalpies=            -476.738646
 Sum of electronic and thermal Free Energies=         -476.784496

                     E (Thermal)             CV                S
                      KCal/Mol        Cal/Mol-Kelvin    Cal/Mol-Kelvin
 Total                  138.520             37.929             96.500
 Electronic               0.000              0.000              0.000
 Translational            0.889              2.981             40.949
 Rotational               0.889              2.981             30.049
 Vibrational            136.743             31.967             25.502
 Vibration     1          0.597              1.974              4.474
 Vibration     2          0.605              1.945              3.354
 Vibration     3          0.611              1.926              2.984
 Vibration     4          0.642              1.826              2.047
 Vibration     5          0.664              1.758              1.712
 Vibration     6          0.671              1.737              1.626
 Vibration     7          0.707              1.632              1.301
 Vibration     8          0.731              1.565              1.144
 Vibration     9          0.759              1.488              0.994
 Vibration    10          0.774              1.448              0.926
 Vibration    11          0.815              1.345              0.775
 Vibration    12          0.855              1.251              0.659
 Vibration    13          0.909              1.132              0.537

 Optimization completed.
    -- Stationary point found.

 1\1\GINC-NODE103\Freq\RB3LYP\6-31G(d)\C8H13N3\VSC10255\08-Dec-2020\0\\
 #N Geom=AllCheck Guess=TCheck SCRF=Check GenChk RB3LYP/6-31G(d) Freq\\
 CID_153782030_JID_1549_neutraal\\0,1\C,0.9453622728,-0.0964797794,-0.0
 839716583\C,0.0931136376,1.1403592747,-0.3761653108\C,0.7456014788,2.1
 331717,-1.3656702911\C,2.0110369383,2.8311954443,-0.8058494632\C,1.686
 4413956,3.9764116762,0.1710199226\C,0.9398605253,5.1299857165,-0.52800
 52302\C,-0.156199181,4.5559964228,-1.3694785405\N,-1.2059453851,5.2121
 673674,-1.8759885159\N,-1.8572725501,4.2542784661,-2.5388607221\N,-1.3

 Normal termination of Gaussian 16 at Tue Dec  8 20:25:37 2020.

 ----------------------------------------------------------------------
 # B3LYP/6-311++G(d,p) empiricaldispersion=gd3bj scf=xqc pop=npa geom=c
 heck
 ----------------------------------------------------------------------

 ---------------------------------------
 CID_153782030_JID_1549_Energie_neutraal
 ---------------------------------------
 Structure from the checkpoint file:  "JID_1549.chk"
 Charge =  0 Multiplicity = 1

 SCF Done:  E(RB3LYP) =  -477.088496986     A.U. after   15 cycles
 Normal termination of Gaussian 16 at Tue Dec  8 20:28:25 2020.

 ----------------------------------------------------------------------
 # B3LYP/6-311++G(d,p) empiricaldispersion=gd3bj scf=xqc pop=npa geom=c
 heck
 ----------------------------------------------------------------------

 -------------------------------------
 CID_153782030_JID_1549_Energie_kation
 -------------------------------------
 Structure from the checkpoint file:  "JID_1549.chk"
 Charge =  1 Multiplicity = 2

 SCF Done:  E(UB3LYP) =  -476.758123375     A.U. after   20 cycles
 Normal termination of Gaussian 16 at Tue Dec  8 20:33:41 2020.
 Gaussian 16:  ES64L-G16RevA.03 25-Dec-2016

 ------------------------------------
 CID_153782030_JID_1549_Energie_anion
 ------------------------------------
 Structure from the checkpoint file:  "JID_1549.chk"
 Charge = -1 Multiplicity = 2

                         Standard orientation:
 ---------------------------------------------------------------------
 Center     Atomic      Atomic             Coordinates (Angstroms)
 Number     Number       Type             X           Y           Z
 ---------------------------------------------------------------------
      1          6           0       -3.335419   -0.918292   -0.260702
      2          6           0       -1.835907   -0.919543   -0.565562
      3          6           0       -0.966168   -0.309245    0.557660
      4          6           0       -1.177740    1.213600    0.752959
      5          6           0       -0.453749    2.064411   -0.306812
      6          6           0        1.077755    1.916230   -0.210426
      7          6           0        1.415410    0.463895   -0.085519
      8          7           0        2.610512   -0.101957   -0.287070
      9          7           0        2.368815   -1.391134   -0.040526
     10          7           0        1.121896   -1.717338    0.302826
     11          6           0        0.491795   -0.536854    0.282869
     12          1           0       -3.545844   -1.447244    0.676911
     13          1           0       -3.895325   -1.418408   -1.058517
     14          1           0       -3.736707    0.096712   -0.166402
     15          1           0       -1.496650   -1.949613   -0.725629
     16          1           0       -1.642530   -0.386199   -1.505654
     17          1           0       -1.236873   -0.820706    1.491386
     18          1           0       -0.803894    1.497332    1.746089
     19          1           0       -2.248271    1.442538    0.748377
     20          1           0       -0.783869    1.761993   -1.308960
     21          1           0       -0.730620    3.118034   -0.190262
     22          1           0        1.574456    2.359325   -1.080617
     23          1           0        1.445491    2.460745    0.670806
     24          1           0        3.096212   -2.086710   -0.110937
 ---------------------------------------------------------------------

 SCF Done:  E(UB3LYP) =  -477.070229848     A.U. after   33 cycles
 SCF Done:  E(UB3LYP) =  -477.070229848     a.u. after    1 cycles

 The electronic state is 2-A.
 Alpha  occ. eigenvalues --  -14.31030 -14.24295 -14.24277 -10.09568 -10.09333
 Alpha  occ. eigenvalues --  -10.07976 -10.07543 -10.06613 -10.06453 -10.06393
 Alpha  occ. eigenvalues --  -10.05615  -0.99721  -0.79026  -0.75323  -0.69338
 Alpha  occ. eigenvalues --   -0.67407  -0.62134  -0.57263  -0.52242  -0.50992
 Alpha  occ. eigenvalues --   -0.48313  -0.43961  -0.43233  -0.38066  -0.36278
 Alpha  occ. eigenvalues --   -0.36240  -0.34145  -0.33135  -0.31459  -0.29587
 Alpha  occ. eigenvalues --   -0.28915  -0.26420  -0.25668  -0.25013  -0.24431
 Alpha  occ. eigenvalues --   -0.22358  -0.21887  -0.20324  -0.19803  -0.17960
 Alpha  occ. eigenvalues --   -0.15135   0.04842
 Alpha virt. eigenvalues --    0.06304   0.07244   0.08102   0.08823   0.09246
 Alpha virt. eigenvalues --    0.10078   0.10321   0.10925   0.12204   0.12534
 Alpha virt. eigenvalues --    0.13134   0.14215   0.15130   0.15430   0.15821

  Beta  occ. eigenvalues --  -14.30985 -14.24288 -14.24265 -10.09566 -10.09331
  Beta  occ. eigenvalues --  -10.07971 -10.07529 -10.06585 -10.06441 -10.06368
  Beta  occ. eigenvalues --  -10.05577  -0.99682  -0.79005  -0.75283  -0.69283
  Beta  occ. eigenvalues --   -0.67366  -0.62092  -0.57194  -0.52175  -0.50942
  Beta  occ. eigenvalues --   -0.48265  -0.43903  -0.43165  -0.38031  -0.36239
  Beta  occ. eigenvalues --   -0.36192  -0.34107  -0.33104  -0.31426  -0.29544
  Beta  occ. eigenvalues --   -0.28875  -0.26369  -0.25623  -0.24973  -0.24397
  Beta  occ. eigenvalues --   -0.22320  -0.21851  -0.20289  -0.19768  -0.17929
  Beta  occ. eigenvalues --   -0.15103
  Beta virt. eigenvalues --    0.07231   0.08008   0.08133   0.08386   0.09116
  Beta virt. eigenvalues --    0.09968   0.10455   0.10590   0.11468   0.12524
  Beta virt. eigenvalues --    0.12874   0.13405   0.14373   0.15279   0.15495

 Mulliken charges and spin densities:
               1          2
     1  C    1.171749  -1.725097
     2  C   -1.135690   0.732919
     3  C    1.172480  -0.132578
     4  C    0.479485  -0.928454
     5  C    0.262203  -0.542597
     6  C   -0.168094  -0.154860
     7  C   -0.301891   0.057885
     8  N   -0.075741  -0.077178
     9  N    0.281319  -0.209593
    10  N   -0.102903  -0.013646
    11  C   -0.433784  -0.371164
    12  H   -0.229200   0.354800
    13  H   -0.276719   0.416128
    14  H   -0.226084   0.362493
    15  H    0.179326  -0.014159
    16  H   -0.120109   0.242593
    17  H    0.010734   0.207911
    18  H   -0.174504   0.315728
    19  H   -0.192106   0.366929
    20  H    0.100794   0.017375
    21  H   -0.655181   0.841119
    22  H   -0.063197   0.231332
    23  H   -0.064235   0.234416
    24  H   -0.438651   0.787697
 Sum of Mulliken charges =  -1.00000   1.00000

 Dipole moment (field-independent basis, Debye):
    X=              1.2018    Y=             -0.6849    Z=             -0.2234  Tot=              1.4012
 Quadrupole moment (field-independent basis, Debye-Ang):
   XX=           -133.6548   YY=           -118.7438   ZZ=            -92.3930
   XY=             10.3118   XZ=              0.5815   YZ=             -2.0683

 Summary of Natural Population Analysis:

                                       Natural Population
                Natural  -----------------------------------------------
    Atom  No    Charge         Core      Valence    Rydberg      Total
 -----------------------------------------------------------------------
      C    1   -0.28616      0.99967     2.28164    0.00485     3.28616
      C    2   -0.18535      0.99962     2.17680    0.00893     3.18535
      C    3   -0.12240      0.99956     2.11157    0.01128     3.12240
      C    4   -0.18753      0.99962     2.17824    0.00966     3.18753
      C    5   -0.18829      0.99963     2.17973    0.00893     3.18829
      C    6   -0.20198      0.99960     2.19362    0.00876     3.20198
      C    7    0.05816      0.99949     1.92920    0.01314     2.94184
      N    8   -0.14077      0.99970     2.62839    0.01268     3.64077
      N    9   -0.07237      0.99974     2.55608    0.01655     3.57237
      N   10   -0.13940      0.99970     2.62723    0.01247     3.63940
      C   11    0.06136      0.99949     1.92475    0.01441     2.93864
      H   12    0.09534      0.00000     0.40344    0.00122     0.40466
      H   13    0.09926      0.00000     0.39976    0.00098     0.40074
      H   14    0.09875      0.00000     0.39978    0.00147     0.40125
      H   15    0.10059      0.00000     0.39814    0.00127     0.39941
      H   16    0.09450      0.00000     0.40415    0.00135     0.40550
      H   17    0.10408      0.00000     0.39423    0.00169     0.39592
      H   18    0.09727      0.00000     0.40117    0.00155     0.40273
      H   19    0.10498      0.00000     0.39336    0.00166     0.39502
      H   20    0.09435      0.00000     0.40402    0.00164     0.40565
      H   21    0.10412      0.00000     0.39345    0.00244     0.39588
      H   22    0.10628      0.00000     0.39259    0.00113     0.39372
      H   23    0.10391      0.00000     0.39467    0.00142     0.39609
      H   24    0.20131      0.00000     0.28735    0.01135     0.29869
 =======================================================================
   * Total *    0.00000     10.99582    29.85337    0.15082    41.00000

 Normal termination of Gaussian 16 at Tue Dec  8 20:44:22 2020.
