 Gaussian 16, Revision A.03,

 -----------------------------------------------------------
 # opt freq B3LYP/6-31G(d) empiricaldispersion=gd3bj scf=xqc
 -----------------------------------------------------------

 -------------------------------
 CID_129940312_JID_4505_neutraal
 -------------------------------
 Symbolic Z-matrix:
 Charge =  0 Multiplicity = 1

 SCF Done:  E(RB3LYP) =  -627.225970655     A.U. after   15 cycles
 SCF Done:  E(RB3LYP) =  -627.230340407     A.U. after   12 cycles
 SCF Done:  E(RB3LYP) =  -627.230812651     A.U. after   11 cycles
 SCF Done:  E(RB3LYP) =  -627.229770934     A.U. after   13 cycles
 SCF Done:  E(RB3LYP) =  -627.231085550     A.U. after   11 cycles
 SCF Done:  E(RB3LYP) =  -627.231178621     A.U. after   11 cycles
 SCF Done:  E(RB3LYP) =  -627.231233140     A.U. after   11 cycles
 SCF Done:  E(RB3LYP) =  -627.231252933     A.U. after   10 cycles
 SCF Done:  E(RB3LYP) =  -627.231261453     A.U. after   10 cycles
 SCF Done:  E(RB3LYP) =  -627.231264273     A.U. after    9 cycles
 SCF Done:  E(RB3LYP) =  -627.231265122     A.U. after    8 cycles
 SCF Done:  E(RB3LYP) =  -627.231265505     A.U. after    8 cycles
 SCF Done:  E(RB3LYP) =  -627.231265600     A.U. after    8 cycles
 Optimization completed.
    -- Stationary point found.
 Normal termination of Gaussian 16 at Thu Dec 10 09:54:52 2020.

 --------------------------------------------------------------------
 #N Geom=AllCheck Guess=TCheck SCRF=Check GenChk RB3LYP/6-31G(d) Freq
 --------------------------------------------------------------------

 Structure from the checkpoint file:  "JID_4505.chk"
 -------------------------------
 CID_129940312_JID_4505_neutraal
 -------------------------------
 Charge =  0 Multiplicity = 1

 SCF Done:  E(RB3LYP) =  -627.231265600     A.U. after    1 cycles

  Exact polarizability: 203.817   6.886 127.884  -6.634   8.001  59.013
 Approx polarizability: 310.613   3.290 223.157 -17.049  21.102  90.871

                      1                      2                      3
                      A                      A                      A
 Frequencies --     42.7466                63.0736               108.9349
 Red. masses --      2.9707                 4.1559                 5.1947
 Frc consts  --      0.0032                 0.0097                 0.0363
 IR Inten    --      0.3008                 0.2125                 1.7904

                      4                      5                      6
                      A                      A                      A
 Frequencies --    139.2982               164.7665               213.0307
 Red. masses --      4.0097                 5.1706                 2.8388
 Frc consts  --      0.0458                 0.0827                 0.0759
 IR Inten    --      8.7080                 4.2674                 2.9209

                      7                      8                      9
                      A                      A                      A
 Frequencies --    221.6472               273.7832               280.7236
 Red. masses --      1.4762                 2.0913                 2.5308
 Frc consts  --      0.0427                 0.0924                 0.1175
 IR Inten    --      1.2986                 5.4144                15.9091

                     10                     11                     12
                      A                      A                      A
 Frequencies --    309.7030               325.8625               362.6462
 Red. masses --      1.4136                 2.3332                 3.9768
 Frc consts  --      0.0799                 0.1460                 0.3081
 IR Inten    --     44.0667                 1.2427                 2.4555

                     13                     14                     15
                      A                      A                      A
 Frequencies --    427.0305               437.2452               452.6771
 Red. masses --      4.6863                 3.8097                 3.4771
 Frc consts  --      0.5035                 0.4291                 0.4198
 IR Inten    --      3.9667                13.2356                 3.6090

                     16                     17                     18
                      A                      A                      A
 Frequencies --    536.5805               580.7628               611.6926
 Red. masses --      5.2445                 4.2666                 4.0345
 Frc consts  --      0.8897                 0.8479                 0.8894
 IR Inten    --     16.4555                 4.5536                15.9062

                     19                     20                     21
                      A                      A                      A
 Frequencies --    620.3475               669.4650               685.9698
 Red. masses --      4.2654                 2.5195                 4.6887
 Frc consts  --      0.9671                 0.6653                 1.2999
 IR Inten    --      5.2639               198.0459                 4.9403

                     22                     23                     24
                      A                      A                      A
 Frequencies --    737.7657               760.4530               766.8329
 Red. masses --      4.8435                 4.9182                 2.3587
 Frc consts  --      1.5533                 1.6757                 0.8172
 IR Inten    --      2.7819                20.5577               143.5586

                     25                     26                     27
                      A                      A                      A
 Frequencies --    795.2970               803.6285               827.0615
 Red. masses --      1.2044                 1.4638                 5.7899
 Frc consts  --      0.4488                 0.5570                 2.3334
 IR Inten    --     14.1619                38.7716                29.9035

                     28                     29                     30
                      A                      A                      A
 Frequencies --    921.3510               928.4196               936.4524
 Red. masses --      1.2525                 1.3895                 2.8283
 Frc consts  --      0.6265                 0.7057                 1.4613
 IR Inten    --      0.8926                11.1182                 0.2325

                     31                     32                     33
                      A                      A                      A
 Frequencies --    975.2342               988.5048              1029.2486
 Red. masses --      2.6100                 2.3927                 1.7943
 Frc consts  --      1.4626                 1.3775                 1.1199
 IR Inten    --     11.4759                 2.0352                 0.0591

                     34                     35                     36
                      A                      A                      A
 Frequencies --   1111.2916              1133.1019              1133.6464
 Red. masses --      2.2695                 2.1878                 1.6545
 Frc consts  --      1.6514                 1.6550                 1.2528
 IR Inten    --     23.0291                10.5470                23.4105

                     37                     38                     39
                      A                      A                      A
 Frequencies --   1175.0366              1182.8987              1219.5283
 Red. masses --      1.5445                 2.1726                 2.0931
 Frc consts  --      1.2565                 1.7911                 1.8341
 IR Inten    --      7.0365                39.4357                17.8071

                     40                     41                     42
                      A                      A                      A
 Frequencies --   1285.6141              1296.3224              1323.5690
 Red. masses --      3.7510                 1.7246                 1.5371
 Frc consts  --      3.6527                 1.7075                 1.5865
 IR Inten    --     56.3267                28.1160                63.5072

                     43                     44                     45
                      A                      A                      A
 Frequencies --   1371.4944              1399.9840              1427.6350
 Red. masses --      3.6956                 1.4125                 1.9256
 Frc consts  --      4.0956                 1.6311                 2.3124
 IR Inten    --     87.6822                34.2766                 2.3890

                     46                     47                     48
                      A                      A                      A
 Frequencies --   1440.2250              1457.5544              1475.4416
 Red. masses --      1.2550                 1.7550                 3.5563
 Frc consts  --      1.5338                 2.1967                 4.5613
 IR Inten    --     14.3963                15.8977               191.4229

                     49                     50                     51
                      A                      A                      A
 Frequencies --   1495.9403              1519.9797              1521.4095
 Red. masses --      3.3440                 1.9317                 1.3947
 Frc consts  --      4.4091                 2.6294                 1.9021
 IR Inten    --     62.9733                 6.5178                10.0016

                     52                     53                     54
                      A                      A                      A
 Frequencies --   1527.3437              1540.9289              1598.7737
 Red. masses --      1.1888                 1.1150                 3.1220
 Frc consts  --      1.6339                 1.5598                 4.7018
 IR Inten    --      7.1527                 9.6704                93.7914

                     55                     56                     57
                      A                      A                      A
 Frequencies --   1641.4339              1663.7215              1701.9844
 Red. masses --      6.1018                 2.4897                 2.3371
 Frc consts  --      9.6862                 4.0603                 3.9888
 IR Inten    --      5.1244                79.6913               358.5055

                     58                     59                     60
                      A                      A                      A
 Frequencies --   1794.9024              2891.8358              3062.3381
 Red. masses --      9.6670                 1.0829                 1.0352
 Frc consts  --     18.3494                 5.3357                 5.7196
 IR Inten    --    287.2415               171.7738                18.0364

                     61                     62                     63
                      A                      A                      A
 Frequencies --   3069.8813              3110.4460              3135.0409
 Red. masses --      1.0631                 1.1023                 1.1026
 Frc consts  --      5.9030                 6.2833                 6.3848
 IR Inten    --     39.0975                 6.4103                32.1144

                     64                     65                     66
                      A                      A                      A
 Frequencies --   3147.5231              3184.0068              3204.0282
 Red. masses --      1.1044                 1.0871                 1.0940
 Frc consts  --      6.4466                 6.4934                 6.6171
 IR Inten    --     16.6403                 6.7430                17.7374

                     67                     68                     69
                      A                      A                      A
 Frequencies --   3233.1906              3539.1138              3640.8924
 Red. masses --      1.0913                 1.0483                 1.0970
 Frc consts  --      6.7213                 7.7365                 8.5681
 IR Inten    --      0.8063                28.0948                27.1279

 - Thermochemistry -
 -------------------
 Temperature   298.150 Kelvin.  Pressure   1.00000 Atm.
 Atom     1 has atomic number  6 and mass  12.00000

 Molecular mass:   189.09021 amu.
 Principal axes and moments of inertia in atomic units:
                           1         2         3
     Eigenvalues --  1131.097444370.235325283.64298
           X            0.99999  -0.00322   0.00422
           Y            0.00326   0.99996  -0.00809
           Z           -0.00419   0.00810   0.99996
 This molecule is an asymmetric top.
 Rotational symmetry number  1.
 Warning -- assumption of classical behavior for rotation
           may cause significant error
 Rotational temperatures (Kelvin)      0.07658     0.01982     0.01639
 Rotational constants (GHZ):           1.59557     0.41296     0.34157
 Zero-point vibrational energy     530282.4 (Joules/Mol)
                                  126.74054 (Kcal/Mol)
 Warning -- explicit consideration of  19 degrees of freedom as
           vibrations may cause significant error
 Vibrational temperatures:     61.50    90.75   156.73   200.42   237.06
          (Kelvin)            306.50   318.90   393.91   403.90   445.59
                              468.84   521.77   614.40   629.10   651.30
                              772.02   835.59   880.09   892.54   963.21
                              986.96  1061.48  1094.12  1103.30  1144.26
                             1156.24  1189.96  1325.62  1335.79  1347.35
                             1403.14  1422.24  1480.86  1598.90  1630.28
                             1631.06  1690.62  1701.93  1754.63  1849.71
                             1865.12  1904.32  1973.27  2014.26  2054.05
                             2072.16  2097.10  2122.83  2152.32  2186.91
                             2188.97  2197.51  2217.05  2300.28  2361.66
                             2393.72  2448.78  2582.46  4160.71  4406.02
                             4416.87  4475.24  4510.62  4528.58  4581.08
                             4609.88  4651.84  5092.00  5238.43

 Zero-point correction=                           0.201974 (Hartree/Particle)
 Thermal correction to Energy=                    0.214300
 Thermal correction to Enthalpy=                  0.215244
 Thermal correction to Gibbs Free Energy=         0.163087
 Sum of electronic and zero-point Energies=           -627.029292
 Sum of electronic and thermal Energies=              -627.016965
 Sum of electronic and thermal Enthalpies=            -627.016021
 Sum of electronic and thermal Free Energies=         -627.068179

                     E (Thermal)             CV                S
                      KCal/Mol        Cal/Mol-Kelvin    Cal/Mol-Kelvin
 Total                  134.475             47.283            109.775
 Electronic               0.000              0.000              0.000
 Translational            0.889              2.981             41.617
 Rotational               0.889              2.981             31.635
 Vibrational            132.698             41.322             36.523
 Vibration     1          0.595              1.980              5.128
 Vibration     2          0.597              1.972              4.359
 Vibration     3          0.606              1.942              3.288
 Vibration     4          0.615              1.914              2.813
 Vibration     5          0.623              1.886              2.494
 Vibration     6          0.644              1.821              2.018
 Vibration     7          0.648              1.808              1.946
 Vibration     8          0.676              1.722              1.572
 Vibration     9          0.680              1.709              1.529
 Vibration    10          0.699              1.655              1.364
 Vibration    11          0.710              1.624              1.281
 Vibration    12          0.736              1.549              1.111
 Vibration    13          0.789              1.411              0.868
 Vibration    14          0.798              1.389              0.835
 Vibration    15          0.811              1.355              0.788
 Vibration    16          0.892              1.169              0.573
 Vibration    17          0.937              1.073              0.484
 Vibration    18          0.971              1.007              0.430
 Vibration    19          0.980              0.989              0.416

 Optimization completed.
    -- Stationary point found.
 Normal termination of Gaussian 16 at Thu Dec 10 10:00:56 2020.

 ----------------------------------------------------------------------
 # B3LYP/6-311++G(d,p) empiricaldispersion=gd3bj scf=xqc pop=npa geom=c
 heck
 ----------------------------------------------------------------------

 ---------------------------------------
 CID_129940312_JID_4505_Energie_neutraal
 ---------------------------------------
 Structure from the checkpoint file:  "JID_4505.chk"
 Charge =  0 Multiplicity = 1

 SCF Done:  E(RB3LYP) =  -627.405844530     A.U. after   16 cycles
 Normal termination of Gaussian 16 at Thu Dec 10 10:03:14 2020.

 ----------------------------------------------------------------------
 # B3LYP/6-311++G(d,p) empiricaldispersion=gd3bj scf=xqc pop=npa geom=c
 heck
 ----------------------------------------------------------------------

 -------------------------------------
 CID_129940312_JID_4505_Energie_kation
 -------------------------------------
 Structure from the checkpoint file:  "JID_4505.chk"
 Charge =  1 Multiplicity = 2

 SCF Done:  E(UB3LYP) =  -627.113395166     A.U. after   29 cycles
 Normal termination of Gaussian 16 at Thu Dec 10 10:08:47 2020.
 Gaussian 16:  ES64L-G16RevA.03 25-Dec-2016

 ----------------------------------------------------------------------
 # B3LYP/6-311++G(d,p) empiricaldispersion=gd3bj scf=xqc pop=npa geom=c
 heck
 ----------------------------------------------------------------------

 ------------------------------------
 CID_129940312_JID_4505_Energie_anion
 ------------------------------------
 Structure from the checkpoint file:  "JID_4505.chk"
 Charge = -1 Multiplicity = 2

                         Standard orientation:
 ---------------------------------------------------------------------
 Center     Atomic      Atomic             Coordinates (Angstroms)
 Number     Number       Type             X           Y           Z
 ---------------------------------------------------------------------
      1          6           0        3.201710   -1.532940    1.020209
      2          6           0        2.746584   -1.126106   -0.381393
      3          7           0        1.671102   -0.144624   -0.352344
      4          6           0        0.312941   -0.422040   -0.267249
      5          6           0       -0.308170    0.832577   -0.013519
      6          6           0       -1.689423    0.901486    0.110843
      7          6           0       -2.425435   -0.287735   -0.012802
      8          6           0       -1.787433   -1.521034   -0.256124
      9          6           0       -0.404025   -1.610195   -0.388663
     10          6           0       -3.892705   -0.258098    0.116154
     11          8           0       -4.559832    0.739430    0.323787
     12          7           0        0.652044    1.837549    0.061299
     13          6           0        1.793364    1.220650   -0.124452
     14          7           0        3.037799    1.814723   -0.035221
     15          1           0        3.576877   -0.661920    1.565528
     16          1           0        3.999968   -2.280615    0.961697
     17          1           0        2.365820   -1.959586    1.583324
     18          1           0        3.582082   -0.712951   -0.956788
     19          1           0        2.382798   -1.990006   -0.945534
     20          1           0       -2.203321    1.837082    0.301795
     21          1           0       -2.394547   -2.418999   -0.339242
     22          1           0        0.084002   -2.562577   -0.572093
     23          1           0       -4.383115   -1.252515    0.006903
     24          1           0        2.949449    2.823776    0.011208
     25          1           0        3.707578    1.529937   -0.741252
 ---------------------------------------------------------------------

 SCF Done:  E(UB3LYP) =  -627.411728240     A.U. after   31 cycles

 The electronic state is 2-A.
 Alpha  occ. eigenvalues --  -18.96521 -14.25807 -14.23004 -14.17935 -10.16241
 Alpha  occ. eigenvalues --  -10.12287 -10.10337 -10.09181 -10.08013 -10.07502
 Alpha  occ. eigenvalues --  -10.06552 -10.06193 -10.04823 -10.04356  -0.92137
 Alpha  occ. eigenvalues --   -0.89800  -0.81605  -0.78728  -0.72849  -0.67208
 Alpha  occ. eigenvalues --   -0.63275  -0.62132  -0.55975  -0.53492  -0.50219
 Alpha  occ. eigenvalues --   -0.46696  -0.45735  -0.43120  -0.40973  -0.39116
 Alpha  occ. eigenvalues --   -0.36952  -0.35839  -0.35349  -0.33648  -0.32486
 Alpha  occ. eigenvalues --   -0.31932  -0.30222  -0.29503  -0.28666  -0.27188
 Alpha  occ. eigenvalues --   -0.27075  -0.26296  -0.24214  -0.23946  -0.19341
 Alpha  occ. eigenvalues --   -0.18737  -0.17025  -0.12022  -0.11732  -0.10526
 Alpha  occ. eigenvalues --    0.03509
 Alpha virt. eigenvalues --    0.05202   0.06840   0.08359   0.08598   0.09702
 Alpha virt. eigenvalues --    0.09934   0.10963   0.11554   0.12403   0.12677
 Alpha virt. eigenvalues --    0.12890   0.13507   0.14785   0.15048   0.15613

  Beta  occ. eigenvalues --  -18.96224 -14.25813 -14.22949 -14.17911 -10.16226
  Beta  occ. eigenvalues --  -10.12255 -10.10133 -10.09033 -10.08067 -10.07483
  Beta  occ. eigenvalues --  -10.06560 -10.06165 -10.04813 -10.04154  -0.92082
  Beta  occ. eigenvalues --   -0.89247  -0.81527  -0.78692  -0.72707  -0.67116
  Beta  occ. eigenvalues --   -0.63054  -0.61950  -0.55884  -0.53171  -0.50127
  Beta  occ. eigenvalues --   -0.46498  -0.45499  -0.43001  -0.40871  -0.39040
  Beta  occ. eigenvalues --   -0.36818  -0.35742  -0.35253  -0.33540  -0.32405
  Beta  occ. eigenvalues --   -0.31818  -0.30107  -0.29395  -0.28470  -0.27027
  Beta  occ. eigenvalues --   -0.26421  -0.25902  -0.24101  -0.23252  -0.18892
  Beta  occ. eigenvalues --   -0.18579  -0.16973  -0.11764  -0.11119  -0.10044
  Beta virt. eigenvalues --    0.06379   0.07494   0.07868   0.08452   0.08921
  Beta virt. eigenvalues --    0.10083   0.10171   0.11277   0.11619   0.12451
  Beta virt. eigenvalues --    0.12678   0.13263   0.13571   0.15093   0.15250

 Mulliken charges and spin densities:
               1          2
     1  C    0.160200  -0.626537
     2  C    0.151333  -0.297166
     3  N    0.014817   0.014079
     4  C    1.079093  -0.228972
     5  C   -0.463951  -0.018005
     6  C   -0.652402   0.238743
     7  C    0.851415  -0.054039
     8  C   -0.838313  -0.209504
     9  C   -0.242384  -0.143394
    10  C   -0.325223   0.128957
    11  O   -0.344593   0.100246
    12  N   -0.104950  -0.043643
    13  C    0.765524  -0.292492
    14  N   -0.547254   0.195547
    15  H    0.077172   0.093135
    16  H   -0.235203   0.366519
    17  H    0.098094   0.044387
    18  H   -0.560176   0.705770
    19  H   -0.089737   0.235096
    20  H    0.176670  -0.007106
    21  H    0.111648   0.007701
    22  H    0.047476   0.068769
    23  H    0.054371  -0.013775
    24  H    0.093839   0.193856
    25  H   -0.277467   0.541830
 Sum of Mulliken charges =  -1.00000   1.00000

 Dipole moment (field-independent basis, Debye):
    X=              1.2086    Y=             -3.2702    Z=              0.4789  Tot=              3.5191
 Quadrupole moment (field-independent basis, Debye-Ang):
   XX=           -172.3501   YY=           -104.4990   ZZ=            -99.3570
   XY=              8.7807   XZ=              8.8564   YZ=              0.0406

 Summary of Natural Population Analysis:

                                       Natural Population
                Natural  -----------------------------------------------
    Atom  No    Charge         Core      Valence    Rydberg      Total
 -----------------------------------------------------------------------
      C    1   -0.29227      0.99966     2.28730    0.00531     3.29227
      C    2   -0.08353      0.99963     2.07226    0.01164     3.08353
      N    3   -0.22897      0.99959     2.71924    0.01014     3.72897
      C    4    0.10241      0.99947     1.88838    0.00974     2.89759
      C    5    0.04988      0.99947     1.93852    0.01214     2.95012
      C    6   -0.04061      0.99949     2.03275    0.00838     3.04061
      C    7   -0.08893      0.99950     2.08036    0.00907     3.08893
      C    8   -0.08607      0.99956     2.07759    0.00892     3.08607
      C    9   -0.13812      0.99953     2.13023    0.00836     3.13812
      C   10    0.23393      0.99968     1.74588    0.02051     2.76607
      O   11   -0.26714      0.99988     3.25980    0.00745     4.26714
      N   12   -0.27970      0.99967     2.77085    0.00919     3.77970
      C   13    0.29758      0.99961     1.68432    0.01849     2.70242
      N   14   -0.40441      0.99971     2.89486    0.00984     3.90441
      H   15    0.10488      0.00000     0.39413    0.00099     0.39512
      H   16    0.10016      0.00000     0.39872    0.00112     0.39984
      H   17    0.10050      0.00000     0.39866    0.00084     0.39950
      H   18    0.10113      0.00000     0.39564    0.00323     0.39887
      H   19    0.09909      0.00000     0.39959    0.00132     0.40091
      H   20    0.10847      0.00000     0.38993    0.00160     0.39153
      H   21    0.09379      0.00000     0.40459    0.00162     0.40621
      H   22    0.09897      0.00000     0.39998    0.00105     0.40103
      H   23    0.03273      0.00000     0.46473    0.00254     0.46727
      H   24    0.19339      0.00000     0.30455    0.00206     0.30661
      H   25    0.19284      0.00000     0.30141    0.00575     0.30716
 =======================================================================
   * Total *    0.00000     13.99443    35.83428    0.17129    50.00000

 Normal termination of Gaussian 16 at Thu Dec 10 10:15:26 2020.
