 Gaussian 16, Revision A.03,

 -----------------------------------------------------------
 # opt freq B3LYP/6-31G(d) empiricaldispersion=gd3bj scf=xqc
 -----------------------------------------------------------

 ------------------------------
 CID_20375716_JID_6557_neutraal
 ------------------------------
 Symbolic Z-matrix:
 Charge =  0 Multiplicity = 1

 SCF Done:  E(RB3LYP) =  -750.421868032     A.U. after   15 cycles
 SCF Done:  E(RB3LYP) =  -750.426725526     A.U. after   12 cycles
 SCF Done:  E(RB3LYP) =  -750.426949724     A.U. after   14 cycles
 SCF Done:  E(RB3LYP) =  -750.426438440     A.U. after   14 cycles
 SCF Done:  E(RB3LYP) =  -750.428760030     A.U. after   12 cycles
 SCF Done:  E(RB3LYP) =  -750.428871163     A.U. after   12 cycles
 SCF Done:  E(RB3LYP) =  -750.429161957     A.U. after   11 cycles
 SCF Done:  E(RB3LYP) =  -750.429240151     A.U. after   12 cycles
 SCF Done:  E(RB3LYP) =  -750.429327080     A.U. after   12 cycles
 SCF Done:  E(RB3LYP) =  -750.429396136     A.U. after   12 cycles
 SCF Done:  E(RB3LYP) =  -750.429489684     A.U. after   10 cycles
 SCF Done:  E(RB3LYP) =  -750.429488954     A.U. after    8 cycles
 SCF Done:  E(RB3LYP) =  -750.429488630     A.U. after    7 cycles
 SCF Done:  E(RB3LYP) =  -750.429489638     A.U. after    8 cycles
 SCF Done:  E(RB3LYP) =  -750.429488601     A.U. after    8 cycles
 Optimization completed.
    -- Stationary point found.
 Normal termination of Gaussian 16 at Thu Dec 10 23:46:26 2020.

 --------------------------------------------------------------------
 #N Geom=AllCheck Guess=TCheck SCRF=Check GenChk RB3LYP/6-31G(d) Freq
 --------------------------------------------------------------------

 Structure from the checkpoint file:  "JID_6557.chk"
 ------------------------------
 CID_20375716_JID_6557_neutraal
 ------------------------------
 Charge =  0 Multiplicity = 1

 SCF Done:  E(RB3LYP) =  -750.429488601     A.U. after    1 cycles

  Exact polarizability: 143.291  -2.949 134.034  -4.798  -2.698 129.318
 Approx polarizability: 212.317  -4.980 182.048   0.057  -0.460 191.509

                      1                      2                      3
                      A                      A                      A
 Frequencies --     28.6811                47.9657                61.9211
 Red. masses --      6.9686                 8.0934                 5.4608
 Frc consts  --      0.0034                 0.0110                 0.0123
 IR Inten    --      0.8604                 2.2836                 0.7115

                      4                      5                      6
                      A                      A                      A
 Frequencies --     86.5894               108.3450               134.2199
 Red. masses --      5.7399                 2.7564                 4.2292
 Frc consts  --      0.0254                 0.0191                 0.0449
 IR Inten    --      1.4036                 0.2694                 0.3875

                      7                      8                      9
                      A                      A                      A
 Frequencies --    157.8311               167.9483               229.5696
 Red. masses --      2.7563                 3.0038                 2.9413
 Frc consts  --      0.0405                 0.0499                 0.0913
 IR Inten    --      0.3049                 0.0088                 0.2730

                     10                     11                     12
                      A                      A                      A
 Frequencies --    243.4905               259.5648               275.9899
 Red. masses --      4.2617                 4.1699                 3.2755
 Frc consts  --      0.1489                 0.1655                 0.1470
 IR Inten    --      0.4019                 6.6500                 1.3632

                     13                     14                     15
                      A                      A                      A
 Frequencies --    288.7689               300.5515               325.6641
 Red. masses --      2.4848                 1.9755                 2.8867
 Frc consts  --      0.1221                 0.1051                 0.1804
 IR Inten    --      1.4758                 0.5923                 2.7463

                     16                     17                     18
                      A                      A                      A
 Frequencies --    346.6151               380.3017               382.3085
 Red. masses --      2.0572                 2.6037                 2.6302
 Frc consts  --      0.1456                 0.2219                 0.2265
 IR Inten    --      1.1141                 0.0167                 0.4112

                     19                     20                     21
                      A                      A                      A
 Frequencies --    423.4073               457.4767               466.9427
 Red. masses --      4.5271                 3.1035                 1.6356
 Frc consts  --      0.4782                 0.3827                 0.2101
 IR Inten    --      3.9657                 7.2839                 0.3423

                     22                     23                     24
                      A                      A                      A
 Frequencies --    492.0220               515.5765               609.3865
 Red. masses --      2.0528                 2.2481                 3.4892
 Frc consts  --      0.2928                 0.3521                 0.7634
 IR Inten    --      0.6469                 3.7436                69.3366

                     25                     26                     27
                      A                      A                      A
 Frequencies --    618.9632               637.3272               726.4190
 Red. masses --      1.3747                 1.2406                 1.4744
 Frc consts  --      0.3103                 0.2969                 0.4584
 IR Inten    --     64.7852                85.1728                 6.7642

                     28                     29                     30
                      A                      A                      A
 Frequencies --    750.5083               765.3066               778.3059
 Red. masses --      5.4702                 3.0265                 2.5223
 Frc consts  --      1.8154                 1.0444                 0.9002
 IR Inten    --     62.8866                 4.0494                 1.8851

                     31                     32                     33
                      A                      A                      A
 Frequencies --    808.4199               827.7911               835.5891
 Red. masses --      5.5439                 1.7603                 1.8843
 Frc consts  --      2.1347                 0.7107                 0.7751
 IR Inten    --     38.4018                 4.0445                 5.3110

                     34                     35                     36
                      A                      A                      A
 Frequencies --    837.4632               870.3284               873.6239
 Red. masses --      1.6060                 1.4109                 2.0758
 Frc consts  --      0.6636                 0.6297                 0.9334
 IR Inten    --      1.1910                 1.6519                 8.3418

                     37                     38                     39
                      A                      A                      A
 Frequencies --    921.5592               952.9975               961.3936
 Red. masses --      2.0232                 2.9069                 2.0503
 Frc consts  --      1.0124                 1.5555                 1.1165
 IR Inten    --      0.1644                 0.5317                 2.7494

                     40                     41                     42
                      A                      A                      A
 Frequencies --   1005.9927              1028.7935              1045.5673
 Red. masses --      2.3214                 2.2366                 1.6513
 Frc consts  --      1.3842                 1.3948                 1.0636
 IR Inten    --      2.3576                 1.0508                 1.0163

                     43                     44                     45
                      A                      A                      A
 Frequencies --   1053.3175              1058.0479              1104.3965
 Red. masses --      2.5301                 2.2934                 2.4813
 Frc consts  --      1.6539                 1.5127                 1.7831
 IR Inten    --      0.4519                10.9965                 0.7151

                     46                     47                     48
                      A                      A                      A
 Frequencies --   1114.1764              1116.4654              1127.4611
 Red. masses --      1.9812                 2.2621                 2.6080
 Frc consts  --      1.4490                 1.6613                 1.9533
 IR Inten    --      2.1178                 0.6938                 6.0428

                     49                     50                     51
                      A                      A                      A
 Frequencies --   1163.8739              1170.4162              1182.3935
 Red. masses --      1.1767                 2.7089                 2.9118
 Frc consts  --      0.9391                 2.1864                 2.3985
 IR Inten    --      3.1043                10.7997               271.7025

                     52                     53                     54
                      A                      A                      A
 Frequencies --   1211.3975              1239.6637              1263.3704
 Red. masses --      1.1356                 1.4058                 1.2371
 Frc consts  --      0.9819                 1.2729                 1.1634
 IR Inten    --      1.5093                13.4258                 0.1783

                     55                     56                     57
                      A                      A                      A
 Frequencies --   1282.7592              1284.8656              1315.1529
 Red. masses --      1.3115                 1.2348                 1.2532
 Frc consts  --      1.2715                 1.2010                 1.2771
 IR Inten    --      6.3435                 0.6259                15.8249

                     58                     59                     60
                      A                      A                      A
 Frequencies --   1326.0783              1332.2804              1336.1308
 Red. masses --      1.2450                 1.7162                 1.1664
 Frc consts  --      1.2899                 1.7947                 1.2269
 IR Inten    --      5.8446                35.7886                 0.6084

                     61                     62                     63
                      A                      A                      A
 Frequencies --   1342.5881              1344.3843              1384.0741
 Red. masses --      1.1330                 1.1624                 1.2935
 Frc consts  --      1.2033                 1.2378                 1.4600
 IR Inten    --      0.7057                 2.1690                 2.1242

                     64                     65                     66
                      A                      A                      A
 Frequencies --   1397.7141              1399.5933              1403.3315
 Red. masses --      1.3104                 1.3454                 1.4185
 Frc consts  --      1.5083                 1.5527                 1.6458
 IR Inten    --      4.2663                 0.0944                 1.3662

                     67                     68                     69
                      A                      A                      A
 Frequencies --   1407.1483              1410.3848              1413.3737
 Red. masses --      1.3969                 1.4302                 1.3404
 Frc consts  --      1.6296                 1.6762                 1.5776
 IR Inten    --      2.6542                 1.8392                 2.7009

                     70                     71                     72
                      A                      A                      A
 Frequencies --   1416.7154              1420.4066              1449.5085
 Red. masses --      1.4110                 1.4372                 3.6304
 Frc consts  --      1.6686                 1.7084                 4.4941
 IR Inten    --      0.6199                 1.3599                49.5801

                     73                     74                     75
                      A                      A                      A
 Frequencies --   1507.4522              1511.0880              1514.5653
 Red. masses --      1.4224                 1.0883                 1.1081
 Frc consts  --      1.9045                 1.4642                 1.4976
 IR Inten    --     39.9971                 0.5281                 9.4540

                     76                     77                     78
                      A                      A                      A
 Frequencies --   1519.1298              1522.9860              1524.4408
 Red. masses --      1.0845                 1.0898                 1.1054
 Frc consts  --      1.4746                 1.4894                 1.5136
 IR Inten    --      0.2472                 8.6378                 1.6925

                     79                     80                     81
                      A                      A                      A
 Frequencies --   1530.0568              1535.5640              1545.0441
 Red. masses --      1.1639                 1.0785                 1.0807
 Frc consts  --      1.6054                 1.4983                 1.5199
 IR Inten    --      1.0952                 1.2847                 3.8613

                     82                     83                     84
                      A                      A                      A
 Frequencies --   1555.1202              1790.1009              1828.9794
 Red. masses --      1.0859                 9.2980                10.2485
 Frc consts  --      1.5473                17.5548                20.1988
 IR Inten    --      5.7538               492.2932               231.9661

                     85                     86                     87
                      A                      A                      A
 Frequencies --   3018.2005              3023.2804              3034.2923
 Red. masses --      1.0657                 1.0647                 1.0644
 Frc consts  --      5.7200                 5.7338                 5.7737
 IR Inten    --     30.0368                22.0596                11.4570

                     88                     89                     90
                      A                      A                      A
 Frequencies --   3035.6817              3037.3700              3041.7944
 Red. masses --      1.0651                 1.0622                 1.0658
 Frc consts  --      5.7831                 5.7735                 5.8104
 IR Inten    --      7.7938                10.0515                19.6820

                     91                     92                     93
                      A                      A                      A
 Frequencies --   3042.6422              3046.5363              3051.5748
 Red. masses --      1.0731                 1.0646                 1.0754
 Frc consts  --      5.8530                 5.8219                 5.9003
 IR Inten    --      2.0648                66.4002                 9.6356

                     94                     95                     96
                      A                      A                      A
 Frequencies --   3067.2723              3068.2928              3071.4615
 Red. masses --      1.0962                 1.0931                 1.0955
 Frc consts  --      6.0763                 6.0630                 6.0889
 IR Inten    --     55.4723                40.2218                38.8866

                     97                     98                     99
                      A                      A                      A
 Frequencies --   3074.2481              3076.7279              3084.5577
 Red. masses --      1.1004                 1.1014                 1.1012
 Frc consts  --      6.1276                 6.1427                 6.1732
 IR Inten    --     64.0009                29.6892                31.3587

                    100                    101                    102
                      A                      A                      A
 Frequencies --   3087.6078              3092.7353              3136.6522
 Red. masses --      1.0969                 1.0980                 1.0862
 Frc consts  --      6.1613                 6.1879                 6.2966
 IR Inten    --      6.2188               126.3101                35.0717

                    103                    104                    105
                      A                      A                      A
 Frequencies --   3198.5460              3564.8974              3661.3569
 Red. masses --      1.0824                 1.0753                 1.0638
 Frc consts  --      6.5246                 8.0513                 8.4020
 IR Inten    --      3.8042                18.5263                50.1112

 - Thermochemistry -
 -------------------
 Temperature   298.150 Kelvin.  Pressure   1.00000 Atm.
 Atom     1 has atomic number  6 and mass  12.00000

 Molecular mass:   227.15214 amu.
 Principal axes and moments of inertia in atomic units:
                           1         2         3
     Eigenvalues --  2970.426854032.183034596.94883
           X            0.99960  -0.02392  -0.01490
           Y            0.02379   0.99968  -0.00872
           Z            0.01511   0.00836   0.99985
 This molecule is an asymmetric top.
 Rotational symmetry number  1.
 Warning -- assumption of classical behavior for rotation
           may cause significant error
 Rotational temperatures (Kelvin)      0.02916     0.02148     0.01884
 Rotational constants (GHZ):           0.60757     0.44758     0.39260
 Zero-point vibrational energy     866749.6 (Joules/Mol)
                                  207.15812 (Kcal/Mol)
 Warning -- explicit consideration of  25 degrees of freedom as
           vibrations may cause significant error
 Vibrational temperatures:     41.27    69.01    89.09   124.58   155.88
          (Kelvin)            193.11   227.08   241.64   330.30   350.33
                              373.46   397.09   415.47   432.43   468.56
                              498.70   547.17   550.06   609.19   658.21
                              671.83   707.91   741.80   876.77   890.55
                              916.97  1045.15  1079.81  1101.11  1119.81
                             1163.14  1191.01  1202.23  1204.92  1252.21
                             1256.95  1325.92  1371.15  1383.23  1447.40
                             1480.20  1504.34  1515.49  1522.29  1588.98
                             1603.05  1606.34  1622.16  1674.55  1683.97
                             1701.20  1742.93  1783.60  1817.71  1845.60
                             1848.63  1892.21  1907.93  1916.85  1922.39
                             1931.68  1934.27  1991.37  2011.00  2013.70
                             2019.08  2024.57  2029.23  2033.53  2038.34
                             2043.65  2085.52  2168.89  2174.12  2179.12
                             2185.69  2191.24  2193.33  2201.41  2209.33
                             2222.97  2237.47  2575.56  2631.49  4342.52
                             4349.83  4365.67  4367.67  4370.10  4376.46
                             4377.68  4383.29  4390.54  4413.12  4414.59
                             4419.15  4423.16  4426.73  4437.99  4442.38
                             4449.76  4512.94  4601.99  5129.09  5267.88

 Zero-point correction=                           0.330127 (Hartree/Particle)
 Thermal correction to Energy=                    0.346229
 Thermal correction to Enthalpy=                  0.347173
 Thermal correction to Gibbs Free Energy=         0.286489
 Sum of electronic and zero-point Energies=           -750.099361
 Sum of electronic and thermal Energies=              -750.083259
 Sum of electronic and thermal Enthalpies=            -750.082315
 Sum of electronic and thermal Free Energies=         -750.143000

                     E (Thermal)             CV                S
                      KCal/Mol        Cal/Mol-Kelvin    Cal/Mol-Kelvin
 Total                  217.262             62.230            127.721
 Electronic               0.000              0.000              0.000
 Translational            0.889              2.981             42.164
 Rotational               0.889              2.981             32.376
 Vibrational            215.485             56.269             53.181
 Vibration     1          0.593              1.984              5.919
 Vibration     2          0.595              1.978              4.900
 Vibration     3          0.597              1.972              4.395
 Vibration     4          0.601              1.959              3.736
 Vibration     5          0.606              1.943              3.298
 Vibration     6          0.613              1.919              2.885
 Vibration     7          0.621              1.894              2.576
 Vibration     8          0.625              1.882              2.458
 Vibration     9          0.652              1.796              1.882
 Vibration    10          0.659              1.774              1.777
 Vibration    11          0.668              1.747              1.665
 Vibration    12          0.678              1.718              1.558
 Vibration    13          0.685              1.695              1.481
 Vibration    14          0.693              1.673              1.414
 Vibration    15          0.710              1.624              1.282
 Vibration    16          0.725              1.582              1.182
 Vibration    17          0.750              1.512              1.038
 Vibration    18          0.752              1.508              1.030
 Vibration    19          0.786              1.419              0.880
 Vibration    20          0.816              1.344              0.773
 Vibration    21          0.824              1.323              0.746
 Vibration    22          0.848              1.268              0.678
 Vibration    23          0.871              1.215              0.620
 Vibration    24          0.968              1.012              0.434
 Vibration    25          0.979              0.992              0.418

 Optimization completed.
    -- Stationary point found.
 Normal termination of Gaussian 16 at Fri Dec 11 00:03:16 2020.

 ----------------------------------------------------------------------
 # B3LYP/6-311++G(d,p) empiricaldispersion=gd3bj scf=xqc pop=npa geom=c
 heck
 ----------------------------------------------------------------------

 --------------------------------------
 CID_20375716_JID_6557_Energie_neutraal
 --------------------------------------
 Structure from the checkpoint file:  "JID_6557.chk"
 Charge =  0 Multiplicity = 1

 SCF Done:  E(RB3LYP) =  -750.654508753     A.U. after   15 cycles
 Normal termination of Gaussian 16 at Fri Dec 11 00:11:34 2020.

 ----------------------------------------------------------------------
 # B3LYP/6-311++G(d,p) empiricaldispersion=gd3bj scf=xqc pop=npa geom=c
 heck
 ----------------------------------------------------------------------

 ------------------------------------
 CID_20375716_JID_6557_Energie_kation
 ------------------------------------
 Structure from the checkpoint file:  "JID_6557.chk"
 Charge =  1 Multiplicity = 2

 SCF Done:  E(UB3LYP) =  -750.319251399     A.U. after   27 cycles
 Normal termination of Gaussian 16 at Fri Dec 11 00:32:42 2020.
 Gaussian 16:  ES64L-G16RevA.03 25-Dec-2016

 ----------------------------------------------------------------------
 # B3LYP/6-311++G(d,p) empiricaldispersion=gd3bj scf=xqc pop=npa geom=c
 heck
 ----------------------------------------------------------------------

 -----------------------------------
 CID_20375716_JID_6557_Energie_anion
 -----------------------------------
 Structure from the checkpoint file:  "JID_6557.chk"
 Charge = -1 Multiplicity = 2

                         Standard orientation:
 ---------------------------------------------------------------------
 Center     Atomic      Atomic             Coordinates (Angstroms)
 Number     Number       Type             X           Y           Z
 ---------------------------------------------------------------------
      1          6           0       -2.455646   -0.512955    0.577821
      2          6           0       -1.581745   -1.704050    1.034494
      3          6           0       -1.253078   -2.719912   -0.077908
      4          6           0       -0.086431   -2.359372   -1.022780
      5          6           0       -0.278270   -1.103186   -1.890694
      6          6           0        0.034425    0.215042   -1.144646
      7          6           0       -0.795814    1.431385   -1.611007
      8          6           0       -1.108571    2.428270   -0.480216
      9          6           0       -2.309999    2.077004    0.424574
     10          6           0       -2.172200    0.820577    1.308479
     11          7           0        1.466538    0.518350   -1.225327
     12          6           0        2.404248    0.422493   -0.253365
     13          8           0        3.606209    0.567570   -0.422389
     14          6           0        1.889510    0.201449    1.171905
     15          8           0        1.290286    1.030808    1.820401
     16          8           0        2.267433   -0.997327    1.653546
     17          1           0       -3.513296   -0.778985    0.698722
     18          1           0       -2.336014   -0.368934   -0.497331
     19          1           0       -0.639686   -1.336983    1.463349
     20          1           0       -2.087378   -2.224751    1.857197
     21          1           0       -2.157297   -2.902502   -0.676829
     22          1           0       -1.002155   -3.681284    0.388395
     23          1           0        0.077565   -3.218780   -1.684678
     24          1           0        0.835989   -2.254231   -0.434684
     25          1           0       -1.305750   -1.078861   -2.271495
     26          1           0        0.368834   -1.161206   -2.775702
     27          1           0       -0.161931    0.064312   -0.087863
     28          1           0       -1.732863    1.087235   -2.064386
     29          1           0       -0.243827    1.940379   -2.412138
     30          1           0       -1.313803    3.407662   -0.930381
     31          1           0       -0.212650    2.554860    0.141079
     32          1           0       -3.214995    1.989486   -0.195260
     33          1           0       -2.477001    2.941196    1.080008
     34          1           0       -2.854806    0.912442    2.162420
     35          1           0       -1.164402    0.809978    1.740227
     36          1           0        1.855606    0.703656   -2.144463
     37          1           0        1.984098   -1.022023    2.588697
 ---------------------------------------------------------------------

 SCF Done:  E(UB3LYP) =  -750.643266304     A.U. after   33 cycles
 SCF Done:  E(UB3LYP) =  -750.643266305     a.u. after    1 cycles

 The electronic state is 2-A.
 Alpha  occ. eigenvalues --  -19.08241 -19.02017 -18.99762 -14.24654 -10.20254
 Alpha  occ. eigenvalues --  -10.18275 -10.11887 -10.07470 -10.07255 -10.06822
 Alpha  occ. eigenvalues --  -10.06754 -10.06733 -10.06623 -10.06562 -10.06198
 Alpha  occ. eigenvalues --  -10.06085  -1.02217  -0.94671  -0.92999  -0.83942
 Alpha  occ. eigenvalues --   -0.72439  -0.69604  -0.68570  -0.62625  -0.62313
 Alpha  occ. eigenvalues --   -0.60027  -0.54196  -0.53410  -0.50572  -0.49531
 Alpha  occ. eigenvalues --   -0.47539  -0.45984  -0.43594  -0.39890  -0.39707
 Alpha  occ. eigenvalues --   -0.37225  -0.36609  -0.35761  -0.35511  -0.34389
 Alpha  occ. eigenvalues --   -0.33579  -0.33350  -0.33301  -0.31477  -0.30522
 Alpha  occ. eigenvalues --   -0.29899  -0.28975  -0.28864  -0.27617  -0.26816
 Alpha  occ. eigenvalues --   -0.25256  -0.24650  -0.24213  -0.23289  -0.22820
 Alpha  occ. eigenvalues --   -0.22465  -0.21942  -0.21356  -0.20472  -0.20196
 Alpha  occ. eigenvalues --   -0.16535  -0.15724   0.04404
 Alpha virt. eigenvalues --    0.06037   0.06455   0.06811   0.07462   0.08499
 Alpha virt. eigenvalues --    0.08649   0.08785   0.10274   0.10394   0.10936
 Alpha virt. eigenvalues --    0.11118   0.11811   0.12113   0.12959   0.13531

  Beta  occ. eigenvalues --  -19.08205 -19.01877 -18.99705 -14.24630 -10.20042
  Beta  occ. eigenvalues --  -10.18230 -10.11888 -10.07459 -10.07233 -10.06813
  Beta  occ. eigenvalues --  -10.06747 -10.06724 -10.06605 -10.06552 -10.06182
  Beta  occ. eigenvalues --  -10.06075  -1.02021  -0.94556  -0.92790  -0.83878
  Beta  occ. eigenvalues --   -0.72411  -0.69579  -0.68539  -0.62582  -0.62283
  Beta  occ. eigenvalues --   -0.59694  -0.54157  -0.53375  -0.50477  -0.49478
  Beta  occ. eigenvalues --   -0.47491  -0.45942  -0.43448  -0.39728  -0.39543
  Beta  occ. eigenvalues --   -0.37189  -0.36410  -0.35717  -0.35159  -0.34281
  Beta  occ. eigenvalues --   -0.33508  -0.33314  -0.33213  -0.31380  -0.30352
  Beta  occ. eigenvalues --   -0.29813  -0.28940  -0.28832  -0.27587  -0.26764
  Beta  occ. eigenvalues --   -0.25220  -0.24568  -0.23933  -0.23188  -0.22766
  Beta  occ. eigenvalues --   -0.22378  -0.21797  -0.21265  -0.20444  -0.20153
  Beta  occ. eigenvalues --   -0.16414  -0.15568
  Beta virt. eigenvalues --    0.06572   0.06898   0.07474   0.07655   0.08160
  Beta virt. eigenvalues --    0.08991   0.09115   0.09242   0.10628   0.10791
  Beta virt. eigenvalues --    0.11313   0.11570   0.12240   0.12476   0.13221

 Mulliken charges and spin densities:
               1          2
     1  C    0.689821  -1.039789
     2  C   -1.053051   1.130548
     3  C    1.258932  -1.989896
     4  C   -1.000052   0.797927
     5  C   -0.010163  -0.324540
     6  C    0.118932   0.615573
     7  C    0.509338  -0.906704
     8  C   -0.705153   0.540668
     9  C    0.307994  -1.017850
    10  C   -0.700135   0.657062
    11  N   -0.213690   0.009478
    12  C    0.019674   0.002436
    13  O   -0.277134  -0.004888
    14  C   -0.555239   0.379079
    15  O   -0.217513   0.049604
    16  O   -0.079961   0.007105
    17  H   -0.310243   0.499183
    18  H    0.338452  -0.170751
    19  H   -0.080379   0.186568
    20  H   -0.363129   0.559202
    21  H   -0.236853   0.381106
    22  H   -0.094923   0.243758
    23  H   -0.299172   0.482727
    24  H    0.128486   0.051505
    25  H   -0.290115   0.439812
    26  H   -0.356344   0.519254
    27  H    2.278523  -2.778834
    28  H   -0.062033   0.210748
    29  H   -0.197695   0.345396
    30  H   -0.133826   0.306572
    31  H    0.125519   0.050866
    32  H   -0.122860   0.255370
    33  H    0.080373   0.058947
    34  H   -0.162268   0.346626
    35  H    0.080484   0.107895
    36  H    0.303568  -0.001891
    37  H    0.281836   0.000128
 Sum of Mulliken charges =  -1.00000   1.00000

 Dipole moment (field-independent basis, Debye):
    X=              1.9644    Y=              1.6976    Z=              2.0314  Tot=              3.2965
 Quadrupole moment (field-independent basis, Debye-Ang):
   XX=           -167.9888   YY=           -148.7540   ZZ=           -136.1312
   XY=             -8.3563   XZ=              3.8086   YZ=             -5.1228

 Summary of Natural Population Analysis:

                                       Natural Population
                Natural  -----------------------------------------------
    Atom  No    Charge         Core      Valence    Rydberg      Total
 -----------------------------------------------------------------------
      C    1   -0.19862      0.99962     2.19036    0.00864     3.19862
      C    2   -0.19386      0.99963     2.18527    0.00897     3.19386
      C    3   -0.18480      0.99962     2.17681    0.00836     3.18480
      C    4   -0.19173      0.99962     2.18314    0.00897     3.19173
      C    5   -0.19146      0.99960     2.18267    0.00919     3.19146
      C    6   -0.03531      0.99956     2.02277    0.01298     3.03531
      C    7   -0.18958      0.99960     2.18113    0.00885     3.18958
      C    8   -0.19316      0.99962     2.18502    0.00852     3.19316
      C    9   -0.18390      0.99962     2.17657    0.00770     3.18390
      C   10   -0.19984      0.99962     2.19152    0.00869     3.19984
      N   11   -0.30371      0.99966     2.79410    0.00996     3.80371
      C   12    0.30614      0.99963     1.66978    0.02445     2.69386
      O   13   -0.30773      0.99988     3.30218    0.00567     4.30773
      C   14    0.39331      0.99971     1.58097    0.02601     2.60669
      O   15   -0.29333      0.99987     3.28732    0.00615     4.29333
      O   16   -0.33492      0.99987     3.32944    0.00560     4.33492
      H   17    0.09996      0.00000     0.39865    0.00138     0.40004
      H   18    0.09407      0.00000     0.40335    0.00258     0.40593
      H   19    0.09059      0.00000     0.40672    0.00269     0.40941
      H   20    0.09875      0.00000     0.40013    0.00112     0.40125
      H   21    0.09459      0.00000     0.40387    0.00155     0.40541
      H   22    0.09769      0.00000     0.40122    0.00109     0.40231
      H   23    0.09930      0.00000     0.39974    0.00096     0.40070
      H   24    0.09721      0.00000     0.40061    0.00219     0.40279
      H   25    0.10018      0.00000     0.39827    0.00155     0.39982
      H   26    0.10064      0.00000     0.39788    0.00148     0.39936
      H   27    0.11203      0.00000     0.38222    0.00575     0.38797
      H   28    0.09905      0.00000     0.39967    0.00128     0.40095
      H   29    0.09910      0.00000     0.39964    0.00126     0.40090
      H   30    0.09590      0.00000     0.40324    0.00086     0.40410
      H   31    0.10483      0.00000     0.39385    0.00132     0.39517
      H   32    0.09185      0.00000     0.40697    0.00118     0.40815
      H   33    0.09625      0.00000     0.40289    0.00085     0.40375
      H   34    0.09667      0.00000     0.40241    0.00093     0.40333
      H   35    0.10509      0.00000     0.39334    0.00157     0.39491
      H   36    0.19180      0.00000     0.30608    0.00212     0.30820
      H   37    0.23696      0.00000     0.26040    0.00264     0.26304
 =======================================================================
   * Total *    0.00000     15.99471    45.80022    0.20507    62.00000

 Normal termination of Gaussian 16 at Fri Dec 11 00:59:02 2020.
