 Gaussian 16, Revision A.03,

 -----------------------------------------------------------
 # opt freq B3LYP/6-31G(d) empiricaldispersion=gd3bj scf=xqc
 -----------------------------------------------------------

 -------------------------------
 CID_151890754_JID_2000_neutraal
 -------------------------------
 Symbolic Z-matrix:
 Charge =  0 Multiplicity = 1

 SCF Done:  E(RB3LYP) =  -520.058620879     A.U. after   13 cycles
 SCF Done:  E(RB3LYP) =  -520.060408157     A.U. after   12 cycles
 SCF Done:  E(RB3LYP) =  -520.060563522     A.U. after   10 cycles
 SCF Done:  E(RB3LYP) =  -520.060612046     A.U. after   10 cycles
 SCF Done:  E(RB3LYP) =  -520.060622265     A.U. after   10 cycles
 SCF Done:  E(RB3LYP) =  -520.060627914     A.U. after   10 cycles
 SCF Done:  E(RB3LYP) =  -520.060630799     A.U. after   10 cycles
 SCF Done:  E(RB3LYP) =  -520.060633829     A.U. after   10 cycles
 SCF Done:  E(RB3LYP) =  -520.060650577     A.U. after   11 cycles
 SCF Done:  E(RB3LYP) =  -520.060662174     A.U. after    9 cycles
 SCF Done:  E(RB3LYP) =  -520.060672703     A.U. after   11 cycles
 SCF Done:  E(RB3LYP) =  -520.060671805     A.U. after    8 cycles
 SCF Done:  E(RB3LYP) =  -520.060673827     A.U. after   10 cycles
 SCF Done:  E(RB3LYP) =  -520.060673950     A.U. after    8 cycles
 Optimization completed.
    -- Stationary point found.
 Normal termination of Gaussian 16 at Wed Dec  9 16:47:22 2020.

 --------------------------------------------------------------------
 #N Geom=AllCheck Guess=TCheck SCRF=Check GenChk RB3LYP/6-31G(d) Freq
 --------------------------------------------------------------------

 Structure from the checkpoint file:  "JID_2000.chk"
 -------------------------------
 CID_151890754_JID_2000_neutraal
 -------------------------------
 Charge =  0 Multiplicity = 1

 SCF Done:  E(RB3LYP) =  -520.060673950     A.U. after    1 cycles

  Exact polarizability: 142.442  -9.207  98.031  13.242  14.711  93.706
 Approx polarizability: 188.334 -18.819 154.362  24.475  37.033 152.078

                      1                      2                      3
                      A                      A                      A
 Frequencies --     27.4251                72.0269                89.2173
 Red. masses --      3.5108                 3.7025                 4.0316
 Frc consts  --      0.0016                 0.0113                 0.0189
 IR Inten    --      0.0982                 0.2998                 0.1239

                      4                      5                      6
                      A                      A                      A
 Frequencies --    114.2447               210.9128               221.9854
 Red. masses --      1.9597                 3.0423                 1.3569
 Frc consts  --      0.0151                 0.0797                 0.0394
 IR Inten    --      0.5158                 0.0380                 0.5821

                      7                      8                      9
                      A                      A                      A
 Frequencies --    235.3893               241.1978               289.2579
 Red. masses --      1.1605                 2.3797                 3.5702
 Frc consts  --      0.0379                 0.0816                 0.1760
 IR Inten    --      0.2153                 0.6232                 0.6168

                     10                     11                     12
                      A                      A                      A
 Frequencies --    298.9519               332.5111               351.2720
 Red. masses --      2.7005                 1.2431                 3.1486
 Frc consts  --      0.1422                 0.0810                 0.2289
 IR Inten    --      0.3467                95.2978                59.9368

                     13                     14                     15
                      A                      A                      A
 Frequencies --    393.3428               416.8525               460.4143
 Red. masses --      3.5033                 2.9685                 2.8320
 Frc consts  --      0.3194                 0.3039                 0.3537
 IR Inten    --      3.6269                 0.2243                 7.0492

                     16                     17                     18
                      A                      A                      A
 Frequencies --    547.7866               596.7701               635.9699
 Red. masses --      3.1035                 3.8075                 5.9805
 Frc consts  --      0.5487                 0.7989                 1.4251
 IR Inten    --      6.8878                 8.6319                 0.1476

                     19                     20                     21
                      A                      A                      A
 Frequencies --    659.8869               713.4938               755.5585
 Red. masses --      3.1219                 1.7728                 2.4119
 Frc consts  --      0.8009                 0.5317                 0.8112
 IR Inten    --      2.2013                24.3540                30.4614

                     22                     23                     24
                      A                      A                      A
 Frequencies --    796.1969               801.0813               829.7689
 Red. masses --      2.6449                 2.3068                 1.3573
 Frc consts  --      0.9879                 0.8722                 0.5506
 IR Inten    --      3.3104                 3.1920                 0.5962

                     25                     26                     27
                      A                      A                      A
 Frequencies --    856.9635               920.8777               926.9368
 Red. masses --      1.2494                 1.5468                 2.3991
 Frc consts  --      0.5406                 0.7729                 1.2145
 IR Inten    --      0.1729                 3.9319                22.6795

                     28                     29                     30
                      A                      A                      A
 Frequencies --    963.4628               980.0410               991.7501
 Red. masses --      1.3524                 2.3280                 1.2467
 Frc consts  --      0.7397                 1.3174                 0.7225
 IR Inten    --      0.1045                 0.4092                 0.1018

                     31                     32                     33
                      A                      A                      A
 Frequencies --   1023.0027              1030.7286              1063.6152
 Red. masses --      5.6153                 2.3032                 2.1742
 Frc consts  --      3.4624                 1.4417                 1.4492
 IR Inten    --      0.1525                 7.0028                 6.2560

                     34                     35                     36
                      A                      A                      A
 Frequencies --   1078.1892              1096.1396              1110.6736
 Red. masses --      2.4221                 1.8466                 1.8932
 Frc consts  --      1.6589                 1.3072                 1.3760
 IR Inten    --     10.1310                35.2407                 1.3581

                     37                     38                     39
                      A                      A                      A
 Frequencies --   1137.8064              1148.2750              1194.0196
 Red. masses --      2.0260                 1.9388                 1.0958
 Frc consts  --      1.5454                 1.5062                 0.9204
 IR Inten    --      8.6021                 3.8593                 0.0929

                     40                     41                     42
                      A                      A                      A
 Frequencies --   1203.3944              1218.9382              1241.5829
 Red. masses --      2.0003                 1.1361                 2.1402
 Frc consts  --      1.7067                 0.9945                 1.9438
 IR Inten    --      3.5724                 0.3333                 5.6355

                     43                     44                     45
                      A                      A                      A
 Frequencies --   1325.0428              1333.9740              1367.2787
 Red. masses --      1.2432                 2.1364                 1.5670
 Frc consts  --      1.2860                 2.2399                 1.7260
 IR Inten    --     14.8556                13.1165                 9.1478

                     46                     47                     48
                      A                      A                      A
 Frequencies --   1369.1789              1388.8145              1396.1584
 Red. masses --      1.6962                 1.2305                 1.4667
 Frc consts  --      1.8735                 1.3984                 1.6845
 IR Inten    --      6.7317                24.6263                24.3081

                     49                     50                     51
                      A                      A                      A
 Frequencies --   1412.8040              1428.1606              1440.5153
 Red. masses --      1.2917                 1.2405                 1.3668
 Frc consts  --      1.5191                 1.4907                 1.6711
 IR Inten    --      0.4512                 8.9054                16.2999

                     52                     53                     54
                      A                      A                      A
 Frequencies --   1503.9015              1509.7023              1518.3023
 Red. masses --      2.1105                 1.0842                 1.0486
 Frc consts  --      2.8124                 1.4560                 1.4242
 IR Inten    --      8.0949                 1.2691                 7.5978

                     55                     56                     57
                      A                      A                      A
 Frequencies --   1524.1274              1537.6447              1542.6195
 Red. masses --      1.0558                 1.0640                 1.0574
 Frc consts  --      1.4451                 1.4822                 1.4826
 IR Inten    --      1.9265                 3.4471                 1.7825

                     58                     59                     60
                      A                      A                      A
 Frequencies --   1550.2415              1647.4777              1668.4900
 Red. masses --      2.1600                 5.4671                 5.5981
 Frc consts  --      3.0584                 8.7427                 9.1820
 IR Inten    --      6.8473                 0.9802                 1.3410

                     61                     62                     63
                      A                      A                      A
 Frequencies --   3005.6737              3048.9368              3058.7623
 Red. masses --      1.0664                 1.0842                 1.0361
 Frc consts  --      5.6760                 5.9380                 5.7114
 IR Inten    --     42.1780                11.8637                29.0113

                     64                     65                     66
                      A                      A                      A
 Frequencies --   3068.0404              3077.9799              3126.0599
 Red. masses --      1.0368                 1.0931                 1.1027
 Frc consts  --      5.7499                 6.1018                 6.3487
 IR Inten    --     21.3352                24.7409                29.0995

                     67                     68                     69
                      A                      A                      A
 Frequencies --   3130.7532              3143.5966              3152.4704
 Red. masses --      1.1025                 1.1023                 1.1012
 Frc consts  --      6.3671                 6.4180                 6.4481
 IR Inten    --     41.1652                23.8405                15.0145

                     70                     71                     72
                      A                      A                      A
 Frequencies --   3176.0962              3184.0104              3194.4814
 Red. masses --      1.0857                 1.0874                 1.0921
 Frc consts  --      6.4530                 6.4954                 6.5659
 IR Inten    --      6.5854                 1.4257                32.7704

                     73                     74                     75
                      A                      A                      A
 Frequencies --   3207.0536              3221.3561              3747.9932
 Red. masses --      1.0964                 1.0928                 1.0680
 Frc consts  --      6.6438                 6.6816                 8.8392
 IR Inten    --     32.9937                 8.4359                28.1300

 - Thermochemistry -
 -------------------
 Temperature   298.150 Kelvin.  Pressure   1.00000 Atm.
 Atom     1 has atomic number  6 and mass  12.00000

 Molecular mass:   165.11536 amu.
 Principal axes and moments of inertia in atomic units:
                           1         2         3
     Eigenvalues --   943.805983508.404443617.67443
           X            0.99997   0.00487   0.00515
           Y           -0.00461   0.99879  -0.04903
           Z           -0.00538   0.04900   0.99878
 This molecule is an asymmetric top.
 Rotational symmetry number  1.
 Warning -- assumption of classical behavior for rotation
           may cause significant error
 Rotational temperatures (Kelvin)      0.09177     0.02469     0.02394
 Rotational constants (GHZ):           1.91220     0.51441     0.49887
 Zero-point vibrational energy     617785.1 (Joules/Mol)
                                  147.65419 (Kcal/Mol)
 Warning -- explicit consideration of  17 degrees of freedom as
           vibrations may cause significant error
 Vibrational temperatures:     39.46   103.63   128.36   164.37   303.46
          (Kelvin)            319.39   338.67   347.03   416.18   430.13
                              478.41   505.40   565.93   599.76   662.43
                              788.14   858.62   915.02   949.43  1026.56
                             1087.08  1145.55  1152.58  1193.85  1232.98
                             1324.94  1333.66  1386.21  1410.06  1426.91
                             1471.87  1482.99  1530.31  1551.27  1577.10
                             1598.01  1637.05  1652.11  1717.93  1731.42
                             1753.78  1786.36  1906.44  1919.29  1967.21
                             1969.94  1998.19  2008.76  2032.71  2054.80
                             2072.58  2163.78  2172.12  2184.50  2192.88
                             2212.33  2219.49  2230.45  2370.35  2400.58
                             4324.49  4386.74  4400.88  4414.23  4428.53
                             4497.70  4504.46  4522.93  4535.70  4569.69
                             4581.08  4596.15  4614.23  4634.81  5392.53

 Zero-point correction=                           0.235302 (Hartree/Particle)
 Thermal correction to Energy=                    0.247527
 Thermal correction to Enthalpy=                  0.248471
 Thermal correction to Gibbs Free Energy=         0.196589
 Sum of electronic and zero-point Energies=           -519.825372
 Sum of electronic and thermal Energies=              -519.813147
 Sum of electronic and thermal Enthalpies=            -519.812203
 Sum of electronic and thermal Free Energies=         -519.864085

                     E (Thermal)             CV                S
                      KCal/Mol        Cal/Mol-Kelvin    Cal/Mol-Kelvin
 Total                  155.325             46.715            109.196
 Electronic               0.000              0.000              0.000
 Translational            0.889              2.981             41.213
 Rotational               0.889              2.981             30.861
 Vibrational            153.548             40.754             37.122
 Vibration     1          0.593              1.984              6.007
 Vibration     2          0.598              1.967              4.097
 Vibration     3          0.602              1.957              3.677
 Vibration     4          0.607              1.938              3.195
 Vibration     5          0.643              1.824              2.036
 Vibration     6          0.648              1.808              1.943
 Vibration     7          0.655              1.787              1.837
 Vibration     8          0.658              1.777              1.794
 Vibration     9          0.686              1.694              1.478
 Vibration    10          0.692              1.676              1.423
 Vibration    11          0.714              1.611              1.248
 Vibration    12          0.728              1.573              1.160
 Vibration    13          0.761              1.484              0.987
 Vibration    14          0.780              1.434              0.903
 Vibration    15          0.818              1.338              0.765
 Vibration    16          0.903              1.145              0.549
 Vibration    17          0.955              1.039              0.455

 Optimization completed.
    -- Stationary point found.
 Normal termination of Gaussian 16 at Wed Dec  9 16:53:29 2020.

 ----------------------------------------------------------------------
 # B3LYP/6-311++G(d,p) empiricaldispersion=gd3bj scf=xqc pop=npa geom=c
 heck
 ----------------------------------------------------------------------

 ---------------------------------------
 CID_151890754_JID_2000_Energie_neutraal
 ---------------------------------------
 Structure from the checkpoint file:  "JID_2000.chk"
 Charge =  0 Multiplicity = 1

 SCF Done:  E(RB3LYP) =  -520.211582765     A.U. after   14 cycles
 Normal termination of Gaussian 16 at Wed Dec  9 16:55:48 2020.

 ----------------------------------------------------------------------
 # B3LYP/6-311++G(d,p) empiricaldispersion=gd3bj scf=xqc pop=npa geom=c
 heck
 ----------------------------------------------------------------------

 -------------------------------------
 CID_151890754_JID_2000_Energie_kation
 -------------------------------------
 Structure from the checkpoint file:  "JID_2000.chk"
 Charge =  1 Multiplicity = 2

 SCF Done:  E(UB3LYP) =  -519.905605430     A.U. after   33 cycles
 SCF Done:  E(UB3LYP) =  -519.905627581     a.u. after    4 cycles
 Normal termination of Gaussian 16 at Wed Dec  9 17:18:32 2020.
 Gaussian 16:  ES64L-G16RevA.03 25-Dec-2016

 ----------------------------------------------------------------------
 # B3LYP/6-311++G(d,p) empiricaldispersion=gd3bj scf=xqc pop=npa geom=c
 heck
 ----------------------------------------------------------------------

 ------------------------------------
 CID_151890754_JID_2000_Energie_anion
 ------------------------------------
 Structure from the checkpoint file:  "JID_2000.chk"
 Charge = -1 Multiplicity = 2

                         Standard orientation:
 ---------------------------------------------------------------------
 Center     Atomic      Atomic             Coordinates (Angstroms)
 Number     Number       Type             X           Y           Z
 ---------------------------------------------------------------------
      1          6           0       -3.730136   -1.183433    0.546923
      2          6           0       -2.880117   -0.264644   -0.323290
      3          7           0       -1.475215   -0.307307    0.087466
      4          6           0       -0.552345    0.375672   -0.852709
      5          6           0       -0.849087    1.865204   -1.079481
      6          6           0        0.875194    0.107303   -0.404383
      7          6           0        1.580914   -0.970785   -0.949780
      8          6           0        2.880913   -1.261988   -0.537728
      9          6           0        3.496238   -0.474958    0.436493
     10          6           0        2.801593    0.600494    0.991399
     11          6           0        1.501791    0.889392    0.574083
     12          8           0       -1.414682    0.402024    1.351817
     13          1           0       -3.360985   -2.212961    0.493030
     14          1           0       -4.775333   -1.167597    0.218793
     15          1           0       -3.691795   -0.856012    1.589556
     16          1           0       -2.905923   -0.598478   -1.367824
     17          1           0       -3.279149    0.761204   -0.291376
     18          1           0       -0.700956   -0.158091   -1.799808
     19          1           0       -0.874862    2.406980   -0.130976
     20          1           0       -0.078314    2.311664   -1.715441
     21          1           0       -1.816337    2.002487   -1.572609
     22          1           0        1.102258   -1.590311   -1.704492
     23          1           0        3.412694   -2.101324   -0.977592
     24          1           0        4.509588   -0.696884    0.759490
     25          1           0        3.272740    1.218656    1.750971
     26          1           0        0.969530    1.725397    1.014503
     27          1           0       -0.888945   -0.203321    1.897814
 ---------------------------------------------------------------------

 SCF Done:  E(UB3LYP) =  -520.195793829     A.U. after   33 cycles
 SCF Done:  E(UB3LYP) =  -520.195793828     a.u. after    1 cycles

 The electronic state is 2-A.
 Alpha  occ. eigenvalues --  -19.04303 -14.25161 -10.10453 -10.09233 -10.07900
 Alpha  occ. eigenvalues --  -10.07424 -10.07379 -10.07329 -10.07184 -10.07120
 Alpha  occ. eigenvalues --  -10.05794 -10.05794  -0.95833  -0.77086  -0.74990
 Alpha  occ. eigenvalues --   -0.68339  -0.64625  -0.63341  -0.60796  -0.54058
 Alpha  occ. eigenvalues --   -0.50713  -0.49561  -0.47441  -0.41998  -0.40203
 Alpha  occ. eigenvalues --   -0.38615  -0.36607  -0.35361  -0.33957  -0.33484
 Alpha  occ. eigenvalues --   -0.32656  -0.31660  -0.29622  -0.29109  -0.27713
 Alpha  occ. eigenvalues --   -0.27223  -0.26381  -0.25525  -0.24978  -0.24009
 Alpha  occ. eigenvalues --   -0.23346  -0.19617  -0.15447  -0.15075  -0.13096
 Alpha  occ. eigenvalues --    0.04519
 Alpha virt. eigenvalues --    0.06351   0.07342   0.07802   0.08222   0.08420
 Alpha virt. eigenvalues --    0.08712   0.08965   0.09864   0.10387   0.11271
 Alpha virt. eigenvalues --    0.11515   0.11854   0.12283   0.13396   0.14346

  Beta  occ. eigenvalues --  -19.04277 -14.25145 -10.10442 -10.09212 -10.07901
  Beta  occ. eigenvalues --  -10.07408 -10.07362 -10.07313 -10.07171 -10.07106
  Beta  occ. eigenvalues --  -10.05772 -10.05771  -0.95771  -0.77045  -0.74952
  Beta  occ. eigenvalues --   -0.68307  -0.64588  -0.63306  -0.60755  -0.54013
  Beta  occ. eigenvalues --   -0.50662  -0.49503  -0.47396  -0.41945  -0.40156
  Beta  occ. eigenvalues --   -0.38578  -0.36568  -0.35329  -0.33924  -0.33456
  Beta  occ. eigenvalues --   -0.32620  -0.31627  -0.29587  -0.29078  -0.27676
  Beta  occ. eigenvalues --   -0.27180  -0.26345  -0.25488  -0.24945  -0.23979
  Beta  occ. eigenvalues --   -0.23310  -0.19584  -0.15411  -0.15057  -0.13043
  Beta virt. eigenvalues --    0.06663   0.07360   0.08040   0.08244   0.08445
  Beta virt. eigenvalues --    0.08549   0.09176   0.09619   0.10387   0.10595
  Beta virt. eigenvalues --    0.11649   0.11816   0.12294   0.12690   0.13711

 Mulliken charges and spin densities:
               1          2
     1  C    0.841708  -1.453400
     2  C    0.215637  -0.305025
     3  N    0.123118  -0.003391
     4  C    2.280554  -2.206646
     5  C    0.589741  -1.374995
     6  C   -1.151722   1.710769
     7  C   -0.656840   0.507188
     8  C    0.467850  -0.677216
     9  C    0.854710  -1.214736
    10  C    0.946442  -1.276673
    11  C   -2.395074   1.951827
    12  O   -0.214250   0.019218
    13  H   -0.029205   0.176387
    14  H   -0.205499   0.332858
    15  H   -0.069390   0.208519
    16  H   -0.440432   0.580565
    17  H    0.077408   0.068980
    18  H   -0.291435   0.499865
    19  H    0.065201   0.111818
    20  H   -0.034795   0.160373
    21  H   -0.293972   0.456361
    22  H   -0.365500   0.507500
    23  H   -0.421604   0.595834
    24  H   -0.507256   0.660793
    25  H   -0.532353   0.705947
    26  H   -0.007669   0.163262
    27  H    0.154625   0.094019
 Sum of Mulliken charges =  -1.00000   1.00000

 Dipole moment (field-independent basis, Debye):
    X=             -0.9588    Y=              1.2468    Z=              1.5526  Tot=              2.2100
 Quadrupole moment (field-independent basis, Debye-Ang):
   XX=           -151.1220   YY=           -108.4726   ZZ=           -111.0970
   XY=              0.5998   XZ=             -7.8236   YZ=             -2.5404

 Summary of Natural Population Analysis:

                                       Natural Population
                Natural  -----------------------------------------------
    Atom  No    Charge         Core      Valence    Rydberg      Total
 -----------------------------------------------------------------------
      C    1   -0.28707      0.99966     2.28250    0.00491     3.28707
      C    2   -0.09225      0.99962     2.08050    0.01213     3.09225
      N    3   -0.12537      0.99969     2.61117    0.01452     3.62537
      C    4   -0.02837      0.99956     2.01069    0.01811     3.02837
      C    5   -0.29977      0.99965     2.29353    0.00660     3.29977
      C    6    0.02712      0.99949     1.96523    0.00817     2.97288
      C    7   -0.10901      0.99954     2.09375    0.01573     3.10901
      C    8   -0.09931      0.99956     2.08937    0.01037     3.09931
      C    9   -0.10314      0.99956     2.09342    0.01016     3.10314
      C   10   -0.10051      0.99956     2.09011    0.01083     3.10051
      C   11   -0.11600      0.99953     2.10211    0.01436     3.11600
      O   12   -0.30556      0.99991     3.29843    0.00722     4.30556
      H   13    0.09836      0.00000     0.40004    0.00160     0.40164
      H   14    0.09727      0.00000     0.40166    0.00107     0.40273
      H   15    0.10134      0.00000     0.39724    0.00142     0.39866
      H   16    0.09790      0.00000     0.39954    0.00256     0.40210
      H   17    0.08589      0.00000     0.41251    0.00160     0.41411
      H   18    0.10262      0.00000     0.39468    0.00271     0.39738
      H   19    0.10541      0.00000     0.39341    0.00119     0.39459
      H   20    0.10340      0.00000     0.39558    0.00101     0.39660
      H   21    0.10172      0.00000     0.39729    0.00098     0.39828
      H   22    0.10151      0.00000     0.39664    0.00186     0.39849
      H   23    0.10089      0.00000     0.39779    0.00132     0.39911
      H   24    0.10129      0.00000     0.39706    0.00164     0.39871
      H   25    0.10030      0.00000     0.39844    0.00126     0.39970
      H   26    0.10590      0.00000     0.39289    0.00120     0.39410
      H   27    0.23573      0.00000     0.26105    0.00322     0.26427
 =======================================================================
   * Total *    0.00031     11.99532    32.84661    0.15776    44.99969

 Normal termination of Gaussian 16 at Wed Dec  9 17:25:29 2020.
