 Gaussian 16, Revision A.03,

 -----------------------------------------------------------
 # opt freq B3LYP/6-31G(d) empiricaldispersion=gd3bj scf=xqc
 -----------------------------------------------------------

 -------------------------------
 CID_64661487_JID_10165_neutraal
 -------------------------------
 Symbolic Z-matrix:
 Charge =  0 Multiplicity = 1

 SCF Done:  E(RB3LYP) =  -1311.18834894     A.U. after   16 cycles
 SCF Done:  E(RB3LYP) =  -1311.19276061     A.U. after   14 cycles
 SCF Done:  E(RB3LYP) =  -1311.19025320     A.U. after   15 cycles
 SCF Done:  E(RB3LYP) =  -1311.19123808     A.U. after   15 cycles
 SCF Done:  E(RB3LYP) =  -1311.19329445     A.U. after   10 cycles
 SCF Done:  E(RB3LYP) =  -1311.19372521     A.U. after   14 cycles
 SCF Done:  E(RB3LYP) =  -1311.19440617     A.U. after   15 cycles
 SCF Done:  E(RB3LYP) =  -1311.19540122     A.U. after   17 cycles
 SCF Done:  E(RB3LYP) =  -1311.19628243     A.U. after   14 cycles
 SCF Done:  E(RB3LYP) =  -1311.19687699     A.U. after   14 cycles
 SCF Done:  E(RB3LYP) =  -1311.19714723     A.U. after   11 cycles
 SCF Done:  E(RB3LYP) =  -1311.19714984     A.U. after   10 cycles
 SCF Done:  E(RB3LYP) =  -1311.19715000     A.U. after    9 cycles
 SCF Done:  E(RB3LYP) =  -1311.19715020     A.U. after    9 cycles
 SCF Done:  E(RB3LYP) =  -1311.19715021     A.U. after    7 cycles
 SCF Done:  E(RB3LYP) =  -1311.19715022     A.U. after    6 cycles
 Optimization completed.
    -- Stationary point found.
 Normal termination of Gaussian 16 at Sun Dec 13 16:55:30 2020.

 --------------------------------------------------------------------
 #N Geom=AllCheck Guess=TCheck SCRF=Check GenChk RB3LYP/6-31G(d) Freq
 --------------------------------------------------------------------

 Structure from the checkpoint file:  "JID_10165.chk"
 -------------------------------
 CID_64661487_JID_10165_neutraal
 -------------------------------
 Charge =  0 Multiplicity = 1

 SCF Done:  E(RB3LYP) =  -1311.19715022     A.U. after    1 cycles

  Exact polarizability: 280.034   6.981 199.977  11.747   1.847  90.842
 Approx polarizability: 413.602  10.882 367.964  27.568   5.384 144.624

                      1                      2                      3
                      A                      A                      A
 Frequencies --     10.8008                25.7663                28.0257
 Red. masses --      6.1630                 5.0157                 1.4859
 Frc consts  --      0.0004                 0.0020                 0.0007
 IR Inten    --      0.9544                 1.1522                 2.1461

                      4                      5                      6
                      A                      A                      A
 Frequencies --     37.5274                45.1228                57.0021
 Red. masses --      3.3118                 7.3673                 9.1800
 Frc consts  --      0.0027                 0.0088                 0.0176
 IR Inten    --      0.4568                 0.0683                 0.1615

                      7                      8                      9
                      A                      A                      A
 Frequencies --     96.1357               101.0206               108.4256
 Red. masses --      6.6032                 4.7586                 5.1907
 Frc consts  --      0.0360                 0.0286                 0.0360
 IR Inten    --      0.1092                 0.9544                 0.0709

                     10                     11                     12
                      A                      A                      A
 Frequencies --    172.5831               196.3081               213.3968
 Red. masses --      5.8348                 6.8732                 4.6748
 Frc consts  --      0.1024                 0.1561                 0.1254
 IR Inten    --      0.1742                 1.7474                 4.5780

                     13                     14                     15
                      A                      A                      A
 Frequencies --    244.4021               262.8107               283.6185
 Red. masses --      3.6450                 1.0793                 4.1159
 Frc consts  --      0.1283                 0.0439                 0.1951
 IR Inten    --      1.0435                 0.2976                 0.4303

                     16                     17                     18
                      A                      A                      A
 Frequencies --    291.4176               302.5474               357.0398
 Red. masses --      6.1513                 4.2413                 5.8575
 Frc consts  --      0.3078                 0.2287                 0.4399
 IR Inten    --      0.2751                 1.9173                 0.8886

                     19                     20                     21
                      A                      A                      A
 Frequencies --    366.6956               390.6817               426.9255
 Red. masses --      7.2359                 3.9608                 2.2129
 Frc consts  --      0.5733                 0.3562                 0.2376
 IR Inten    --      1.5400                 5.7639                 3.1896

                     22                     23                     24
                      A                      A                      A
 Frequencies --    461.9564               470.7576               519.5113
 Red. masses --      3.4245                 4.5795                 5.3250
 Frc consts  --      0.4306                 0.5979                 0.8468
 IR Inten    --      1.1559                 4.8847                 1.4367

                     25                     26                     27
                      A                      A                      A
 Frequencies --    534.5259               563.2311               573.1271
 Red. masses --      4.8968                 4.7018                 4.3345
 Frc consts  --      0.8243                 0.8788                 0.8389
 IR Inten    --      5.0886                11.0319                34.2176

                     28                     29                     30
                      A                      A                      A
 Frequencies --    599.0718               630.6119               649.7537
 Red. masses --      3.9508                 3.2859                 6.7075
 Frc consts  --      0.8354                 0.7699                 1.6684
 IR Inten    --     10.9980                27.5381                10.1728

                     31                     32                     33
                      A                      A                      A
 Frequencies --    659.5231               677.5319               694.6875
 Red. masses --      5.7101                 2.6693                 3.4333
 Frc consts  --      1.4634                 0.7219                 0.9762
 IR Inten    --      6.2398                18.2292                84.0217

                     34                     35                     36
                      A                      A                      A
 Frequencies --    722.5078               730.1057               752.0314
 Red. masses --      7.0021                 3.7746                 5.1654
 Frc consts  --      2.1536                 1.1855                 1.7212
 IR Inten    --     17.0026                 1.1968                22.7659

                     37                     38                     39
                      A                      A                      A
 Frequencies --    803.1330               810.0469               848.0689
 Red. masses --      4.6726                 5.8308                 1.4175
 Frc consts  --      1.7758                 2.2542                 0.6007
 IR Inten    --     32.8421                22.3050                10.1516

                     40                     41                     42
                      A                      A                      A
 Frequencies --    865.9513               891.6096               906.8849
 Red. masses --      5.5960                 5.4274                 3.3405
 Frc consts  --      2.4724                 2.5421                 1.6187
 IR Inten    --     14.1023                 0.7709                 1.3250

                     43                     44                     45
                      A                      A                      A
 Frequencies --    973.0607               979.9127               998.9584
 Red. masses --      1.3742                 1.3534                 2.3510
 Frc consts  --      0.7666                 0.7657                 1.3823
 IR Inten    --      5.3741                 4.2597                20.4516

                     46                     47                     48
                      A                      A                      A
 Frequencies --   1029.1232              1043.2026              1049.7972
 Red. masses --      1.5554                 1.7737                 3.5867
 Frc consts  --      0.9706                 1.1373                 2.3289
 IR Inten    --     16.5560                13.3520                20.1299

                     49                     50                     51
                      A                      A                      A
 Frequencies --   1071.9950              1076.3723              1121.4514
 Red. masses --      1.5393                 1.5008                 2.0535
 Frc consts  --      1.0422                 1.0244                 1.5216
 IR Inten    --      4.0452                 4.0767                69.9669

                     52                     53                     54
                      A                      A                      A
 Frequencies --   1173.5219              1177.7231              1199.6261
 Red. masses --      1.5682                 2.2456                 3.5707
 Frc consts  --      1.2724                 1.8352                 3.0276
 IR Inten    --     18.2416               193.8133                14.2487

                     55                     56                     57
                      A                      A                      A
 Frequencies --   1223.0748              1253.6201              1272.7939
 Red. masses --      2.8134                 2.4617                 1.7635
 Frc consts  --      2.4796                 2.2793                 1.6832
 IR Inten    --      7.2403                36.6275                17.8750

                     58                     59                     60
                      A                      A                      A
 Frequencies --   1305.5294              1328.0347              1357.7293
 Red. masses --      1.3984                 1.5269                 5.9678
 Frc consts  --      1.4043                 1.5866                 6.4818
 IR Inten    --     26.2883                 0.4743                10.3575

                     61                     62                     63
                      A                      A                      A
 Frequencies --   1380.9921              1390.4027              1401.0736
 Red. masses --      4.9062                 2.5643                13.2279
 Frc consts  --      5.5129                 2.9208                15.2990
 IR Inten    --      8.2146                76.5993               353.5568

                     64                     65                     66
                      A                      A                      A
 Frequencies --   1442.2808              1446.3172              1448.5481
 Red. masses --      1.3516                 1.2920                 3.3904
 Frc consts  --      1.6565                 1.5924                 4.1914
 IR Inten    --      6.5058                 4.0361                 1.3466

                     67                     68                     69
                      A                      A                      A
 Frequencies --   1486.9463              1498.2328              1510.0265
 Red. masses --      5.6686                 1.1075                 1.1138
 Frc consts  --      7.3844                 1.4648                 1.4963
 IR Inten    --      6.5373                12.8577                 7.1394

                     70                     71                     72
                      A                      A                      A
 Frequencies --   1517.3988              1522.9685              1527.5210
 Red. masses --      1.0433                 1.0989                 1.1690
 Frc consts  --      1.4154                 1.5017                 1.6071
 IR Inten    --     11.1169                 0.7263                22.6422

                     73                     74                     75
                      A                      A                      A
 Frequencies --   1535.2720              1595.0017              1614.8277
 Red. masses --      2.5944                 5.3579                 8.8158
 Frc consts  --      3.6029                 8.0309                13.5446
 IR Inten    --     25.0279                54.2739                99.6075

                     76                     77                     78
                      A                      A                      A
 Frequencies --   1643.0457              1676.7858              1856.2319
 Red. masses --      7.5120                 8.4669                 9.7879
 Frc consts  --     11.9483                14.0259                19.8704
 IR Inten    --     64.6476                45.2719               261.1468

                     79                     80                     81
                      A                      A                      A
 Frequencies --   3049.7308              3056.7886              3095.6527
 Red. masses --      1.0381                 1.0427                 1.0590
 Frc consts  --      5.6885                 5.7404                 5.9792
 IR Inten    --      8.1241                20.0498                10.5809

                     82                     83                     84
                      A                      A                      A
 Frequencies --   3104.9285              3121.8239              3135.4371
 Red. masses --      1.1004                 1.0943                 1.1002
 Frc consts  --      6.2502                 6.2838                 6.3724
 IR Inten    --      6.7305                 8.7919                20.2847

                     85                     86                     87
                      A                      A                      A
 Frequencies --   3147.4063              3158.9376              3200.9868
 Red. masses --      1.1066                 1.1020                 1.0902
 Frc consts  --      6.4585                 6.4788                 6.5814
 IR Inten    --      3.3572                 7.3488                15.5191

                     88                     89                     90
                      A                      A                      A
 Frequencies --   3257.5883              3271.9640              3680.7792
 Red. masses --      1.0928                 1.0903                 1.0640
 Frc consts  --      6.8327                 6.8773                 8.4930
 IR Inten    --      2.5086                 8.8292                56.8274

 - Thermochemistry -
 -------------------
 Temperature   298.150 Kelvin.  Pressure   1.00000 Atm.
 Atom     1 has atomic number  6 and mass  12.00000

 Molecular mass:   292.05178 amu.
 Principal axes and moments of inertia in atomic units:
                           1         2         3
     Eigenvalues --  2715.68144********************
           X            0.99983   0.01857   0.00216
           Y           -0.01858   0.99982   0.00459
           Z           -0.00208  -0.00463   0.99999
 This molecule is an asymmetric top.
 Rotational symmetry number  1.
 Warning -- assumption of classical behavior for rotation
           may cause significant error
 Rotational temperatures (Kelvin)      0.03189     0.00719     0.00613
 Rotational constants (GHZ):           0.66456     0.14972     0.12770
 Zero-point vibrational energy     626809.2 (Joules/Mol)
                                  149.81098 (Kcal/Mol)
 Warning -- explicit consideration of  28 degrees of freedom as
           vibrations may cause significant error
 Vibrational temperatures:     15.54    37.07    40.32    53.99    64.92
          (Kelvin)             82.01   138.32   145.35   156.00   248.31
                              282.44   307.03   351.64   378.13   408.06
                              419.28   435.30   513.70   527.59   562.10
                              614.25   664.65   677.32   747.46   769.06
                              810.36   824.60   861.93   907.31   934.85
                              948.91   974.82   999.50  1039.53  1050.46
                             1082.01  1155.53  1165.48  1220.18  1245.91
                             1282.83  1304.81  1400.02  1409.88  1437.28
                             1480.68  1500.94  1510.42  1542.36  1548.66
                             1613.52  1688.44  1694.48  1725.99  1759.73
                             1803.68  1831.27  1878.37  1910.75  1953.47
                             1986.94  2000.48  2015.83  2075.12  2080.93
                             2084.14  2139.38  2155.62  2172.59  2183.20
                             2191.21  2197.76  2208.91  2294.85  2323.38
                             2363.98  2412.52  2670.70  4387.88  4398.04
                             4453.95  4467.30  4491.61  4511.19  4528.42
                             4545.01  4605.51  4686.94  4707.63  5295.82

 Zero-point correction=                           0.238739 (Hartree/Particle)
 Thermal correction to Energy=                    0.257504
 Thermal correction to Enthalpy=                  0.258448
 Thermal correction to Gibbs Free Energy=         0.187152
 Sum of electronic and zero-point Energies=          -1310.958411
 Sum of electronic and thermal Energies=             -1310.939646
 Sum of electronic and thermal Enthalpies=           -1310.938702
 Sum of electronic and thermal Free Energies=        -1311.009998

                     E (Thermal)             CV                S
                      KCal/Mol        Cal/Mol-Kelvin    Cal/Mol-Kelvin
 Total                  161.586             68.237            150.056
 Electronic               0.000              0.000              0.000
 Translational            0.889              2.981             42.913
 Rotational               0.889              2.981             34.491
 Vibrational            159.809             62.275             72.652
 Vibration     1          0.593              1.987              7.858
 Vibration     2          0.593              1.985              6.131
 Vibration     3          0.593              1.984              5.964
 Vibration     4          0.594              1.982              5.386
 Vibration     5          0.595              1.979              5.020
 Vibration     6          0.596              1.975              4.558
 Vibration     7          0.603              1.952              3.531
 Vibration     8          0.604              1.948              3.435
 Vibration     9          0.606              1.942              3.297
 Vibration    10          0.626              1.876              2.407
 Vibration    11          0.636              1.845              2.167
 Vibration    12          0.644              1.821              2.014
 Vibration    13          0.660              1.772              1.771
 Vibration    14          0.670              1.741              1.643
 Vibration    15          0.682              1.704              1.512
 Vibration    16          0.687              1.690              1.466
 Vibration    17          0.694              1.669              1.403
 Vibration    18          0.732              1.561              1.135
 Vibration    19          0.740              1.541              1.094
 Vibration    20          0.758              1.490              0.998
 Vibration    21          0.789              1.412              0.869
 Vibration    22          0.820              1.334              0.760
 Vibration    23          0.828              1.315              0.735
 Vibration    24          0.874              1.207              0.611
 Vibration    25          0.890              1.174              0.577
 Vibration    26          0.919              1.111              0.517
 Vibration    27          0.929              1.089              0.498
 Vibration    28          0.957              1.034              0.451

 Optimization completed.
    -- Stationary point found.
 Normal termination of Gaussian 16 at Sun Dec 13 17:09:28 2020.

 ----------------------------------------------------------------------
 # B3LYP/6-311++G(d,p) empiricaldispersion=gd3bj scf=xqc pop=npa geom=c
 heck
 ----------------------------------------------------------------------

 ---------------------------------------
 CID_64661487_JID_10165_Energie_neutraal
 ---------------------------------------
 Structure from the checkpoint file:  "JID_10165.chk"
 Charge =  0 Multiplicity = 1

 SCF Done:  E(RB3LYP) =  -1311.48258922     A.U. after   17 cycles
 Normal termination of Gaussian 16 at Sun Dec 13 17:15:29 2020.

 ----------------------------------------------------------------------
 # B3LYP/6-311++G(d,p) empiricaldispersion=gd3bj scf=xqc pop=npa geom=c
 heck
 ----------------------------------------------------------------------

 -------------------------------------
 CID_64661487_JID_10165_Energie_kation
 -------------------------------------
 Structure from the checkpoint file:  "JID_10165.chk"
 Charge =  1 Multiplicity = 2

 SCF Done:  E(UB3LYP) =  -1311.18441206     A.U. after   26 cycles
 Normal termination of Gaussian 16 at Sun Dec 13 17:27:27 2020.
 Gaussian 16:  ES64L-G16RevA.03 25-Dec-2016

 ----------------------------------------------------------------------
 # B3LYP/6-311++G(d,p) empiricaldispersion=gd3bj scf=xqc pop=npa geom=c
 heck
 ----------------------------------------------------------------------

 ------------------------------------
 CID_64661487_JID_10165_Energie_anion
 ------------------------------------
 Structure from the checkpoint file:  "JID_10165.chk"
 Charge = -1 Multiplicity = 2

                         Standard orientation:
 ---------------------------------------------------------------------
 Center     Atomic      Atomic             Coordinates (Angstroms)
 Number     Number       Type             X           Y           Z
 ---------------------------------------------------------------------
      1          6           0        0.811082    3.080949   -0.142469
      2          6           0        1.722161    1.885443   -0.046014
      3          6           0        1.268391    0.544605   -0.118027
      4          6           0        2.205139   -0.499076   -0.014398
      5          6           0        3.548423   -0.214718    0.154509
      6          6           0        4.021366    1.093142    0.227921
      7          6           0        3.095309    2.120773    0.126214
      8          7           0        4.504149   -1.326874    0.258726
      9          8           0        4.063333   -2.472876    0.190221
     10          8           0        5.692605   -1.041141    0.408837
     11          6           0       -0.131379    0.115816   -0.292657
     12          7           0       -0.461577   -1.153177   -0.303335
     13          6           0       -1.805368   -1.359635   -0.479222
     14          6           0       -2.551568   -0.214467   -0.627438
     15         16           0       -1.522041    1.180899   -0.509742
     16          6           0       -4.038489   -0.072626   -0.801122
     17          6           0       -4.700913    0.119721    0.554454
     18          8           0       -4.853051    1.180658    1.112574
     19          8           0       -5.062506   -1.066962    1.099359
     20          6           0       -2.325799   -2.766801   -0.501755
     21          1           0        0.289534    3.120208   -1.106012
     22          1           0        0.044837    3.076083    0.641326
     23          1           0        1.384690    4.005742   -0.039776
     24          1           0        1.866774   -1.524490   -0.067024
     25          1           0        5.078790    1.281750    0.360256
     26          1           0        3.440278    3.148823    0.181887
     27          1           0       -4.280769    0.799040   -1.414165
     28          1           0       -4.440179   -0.964065   -1.288277
     29          1           0       -5.420774   -0.866438    1.984959
     30          1           0       -2.136139   -3.240390   -1.472927
     31          1           0       -1.807781   -3.361004    0.256509
     32          1           0       -3.397795   -2.805491   -0.296529
 ---------------------------------------------------------------------

 SCF Done:  E(UB3LYP) =  -1311.52507206     A.U. after   25 cycles

 The electronic state is 2-A.
 Alpha  occ. eigenvalues --  -88.76969 -19.10695 -19.04461 -18.97688 -18.97460
 Alpha  occ. eigenvalues --  -14.35763 -14.19248 -10.23463 -10.12696 -10.12038
 Alpha  occ. eigenvalues --  -10.10837 -10.10192 -10.08081 -10.07668 -10.06937
 Alpha  occ. eigenvalues --  -10.06321 -10.05825 -10.05510 -10.05297 -10.04055
 Alpha  occ. eigenvalues --   -7.85657  -5.81935  -5.81580  -5.81253  -1.05433
 Alpha  occ. eigenvalues --   -1.04401  -0.95414  -0.88267  -0.85650  -0.74996
 Alpha  occ. eigenvalues --   -0.72912  -0.68961  -0.67136  -0.66013  -0.63460
 Alpha  occ. eigenvalues --   -0.60455  -0.57873  -0.54717  -0.52568  -0.50529
 Alpha  occ. eigenvalues --   -0.48145  -0.44039  -0.43455  -0.42176  -0.41623
 Alpha  occ. eigenvalues --   -0.40316  -0.39070  -0.37240  -0.36165  -0.35557
 Alpha  occ. eigenvalues --   -0.34664  -0.34471  -0.34261  -0.33456  -0.33288
 Alpha  occ. eigenvalues --   -0.32779  -0.32146  -0.30927  -0.29701  -0.29243
 Alpha  occ. eigenvalues --   -0.28827  -0.28267  -0.26086  -0.24902  -0.24240
 Alpha  occ. eigenvalues --   -0.23978  -0.22993  -0.21792  -0.18016  -0.16510
 Alpha  occ. eigenvalues --   -0.16305  -0.15744  -0.14794  -0.13608  -0.12855
 Alpha  occ. eigenvalues --   -0.11237   0.01299
 Alpha virt. eigenvalues --    0.04611   0.05147   0.06935   0.07526   0.08030
 Alpha virt. eigenvalues --    0.08406   0.09471   0.10309   0.10510   0.11360
 Alpha virt. eigenvalues --    0.11706   0.12059   0.12390   0.12643   0.12754

  Beta  occ. eigenvalues --  -88.76945 -19.10686 -19.04441 -18.97434 -18.97067
  Beta  occ. eigenvalues --  -14.35326 -14.19171 -10.23419 -10.12600 -10.12050
  Beta  occ. eigenvalues --  -10.10864 -10.10086 -10.08080 -10.07650 -10.06953
  Beta  occ. eigenvalues --  -10.06346 -10.05523 -10.05460 -10.05405 -10.03727
  Beta  occ. eigenvalues --   -7.85635  -5.81924  -5.81570  -5.81173  -1.04715
  Beta  occ. eigenvalues --   -1.04366  -0.95380  -0.87656  -0.85511  -0.74717
  Beta  occ. eigenvalues --   -0.72768  -0.68763  -0.66791  -0.65896  -0.63315
  Beta  occ. eigenvalues --   -0.60119  -0.57727  -0.54647  -0.52037  -0.50221
  Beta  occ. eigenvalues --   -0.48031  -0.43878  -0.43321  -0.42045  -0.41581
  Beta  occ. eigenvalues --   -0.39940  -0.38904  -0.35936  -0.35392  -0.35148
  Beta  occ. eigenvalues --   -0.34584  -0.34171  -0.34150  -0.33277  -0.33059
  Beta  occ. eigenvalues --   -0.32740  -0.31729  -0.30900  -0.29604  -0.29208
  Beta  occ. eigenvalues --   -0.28512  -0.28200  -0.25984  -0.24797  -0.23847
  Beta  occ. eigenvalues --   -0.23607  -0.22861  -0.21702  -0.17417  -0.16265
  Beta  occ. eigenvalues --   -0.15773  -0.14486  -0.13719  -0.12665  -0.12528
  Beta  occ. eigenvalues --   -0.10262
  Beta virt. eigenvalues --    0.05072   0.05377   0.07305   0.07619   0.07720
  Beta virt. eigenvalues --    0.08027   0.08406   0.09469   0.10411   0.10513
  Beta virt. eigenvalues --    0.11617   0.11777   0.12305   0.12426   0.12679

 Mulliken charges and spin densities:
               1          2
     1  C   -0.684226  -0.031023
     2  C    0.241958   0.266419
     3  C    1.132465   0.001321
     4  C   -0.535418  -0.013167
     5  C   -0.869776  -0.064411
     6  C    0.583232   0.333134
     7  C   -0.837125  -0.104437
     8  N   -0.213514   0.149438
     9  O   -0.147952   0.144843
    10  O   -0.126443   0.099606
    11  C   -0.261583   0.042474
    12  N    0.235088   0.034769
    13  C   -0.610456  -0.030089
    14  C    1.327633   0.049171
    15  S   -0.698707   0.046487
    16  C   -0.571212   0.012755
    17  C   -0.003224   0.019476
    18  O   -0.277432   0.007620
    19  O   -0.150415   0.001177
    20  C   -0.646055   0.001674
    21  H    0.135025   0.010831
    22  H    0.136142   0.010484
    23  H    0.147934   0.000835
    24  H    0.283063   0.000277
    25  H    0.233252  -0.018664
    26  H    0.083027   0.005808
    27  H    0.174202   0.018335
    28  H    0.185421   0.006039
    29  H    0.279417   0.000362
    30  H    0.160428  -0.000585
    31  H    0.161164  -0.000901
    32  H    0.134089  -0.000056
 Sum of Mulliken charges =  -1.00000   1.00000

 Dipole moment (field-independent basis, Debye):
    X=            -13.0096    Y=              2.8552    Z=             -1.0979  Tot=             13.3644
 Quadrupole moment (field-independent basis, Debye-Ang):
   XX=           -213.2868   YY=           -146.8790   ZZ=           -127.2945
   XY=             32.6713   XZ=             -2.8254   YZ=             -1.6840

 Summary of Natural Population Analysis:

                                       Natural Population
                Natural  -----------------------------------------------
    Atom  No    Charge         Core      Valence    Rydberg      Total
 -----------------------------------------------------------------------
      C    1   -0.30250      0.99965     2.29799    0.00486     3.30250
      C    2    0.06987      0.99950     1.92267    0.00796     2.93013
      C    3   -0.07437      0.99945     2.06440    0.01051     3.07437
      C    4   -0.06645      0.99941     2.05762    0.00942     3.06645
      C    5    0.03096      0.99939     1.95813    0.01151     2.96904
      C    6   -0.02543      0.99953     2.01600    0.00990     3.02543
      C    7   -0.13230      0.99954     2.12410    0.00866     3.13230
      N    8    0.28726      0.99972     2.18562    0.02741     3.21274
      O    9   -0.18653      0.99990     3.17865    0.00798     4.18653
      O   10   -0.21023      0.99990     3.20254    0.00779     4.21023
      C   11    0.07117      0.99946     1.91414    0.01523     2.92883
      N   12   -0.24329      0.99963     2.73170    0.01196     3.74329
      C   13    0.06404      0.99943     1.92282    0.01371     2.93596
      C   14   -0.11394      0.99942     2.10413    0.01039     3.11394
      S   15    0.19913      4.99940     2.78235    0.01913     7.80087
      C   16   -0.24832      0.99954     2.23914    0.00965     3.24832
      C   17    0.41246      0.99974     1.56141    0.02640     2.58754
      O   18   -0.30428      0.99987     3.29669    0.00773     4.30428
      O   19   -0.34731      0.99988     3.34114    0.00629     4.34731
      C   20   -0.29701      0.99963     2.29240    0.00498     3.29701
      H   21    0.10472      0.00000     0.39408    0.00120     0.39528
      H   22    0.10618      0.00000     0.39262    0.00120     0.39382
      H   23    0.09838      0.00000     0.40068    0.00094     0.40162
      H   24    0.12675      0.00000     0.37169    0.00156     0.37325
      H   25    0.10934      0.00000     0.38940    0.00126     0.39066
      H   26    0.09164      0.00000     0.40732    0.00104     0.40836
      H   27    0.11470      0.00000     0.38414    0.00115     0.38530
      H   28    0.11380      0.00000     0.38506    0.00114     0.38620
      H   29    0.23826      0.00000     0.25902    0.00272     0.26174
      H   30    0.10250      0.00000     0.39644    0.00106     0.39750
      H   31    0.10978      0.00000     0.38914    0.00107     0.39022
      H   32    0.10116      0.00000     0.39790    0.00094     0.39884
 =======================================================================
   * Total *    0.00012     23.99199    51.76111    0.24678    75.99988

 Normal termination of Gaussian 16 at Sun Dec 13 17:38:57 2020.
