 Gaussian 16, Revision A.03,

 -----------------------------------------------------------
 # opt freq B3LYP/6-31G(d) empiricaldispersion=gd3bj scf=xqc
 -----------------------------------------------------------

 ------------------------------
 CID_76952815_JID_5373_neutraal
 ------------------------------
 Symbolic Z-matrix:
 Charge =  0 Multiplicity = 1

 SCF Done:  E(RB3LYP) =  -708.423494173     A.U. after   14 cycles
 SCF Done:  E(RB3LYP) =  -708.427041849     A.U. after   12 cycles
 SCF Done:  E(RB3LYP) =  -708.427769069     A.U. after   12 cycles
 SCF Done:  E(RB3LYP) =  -708.428100618     A.U. after   12 cycles
 SCF Done:  E(RB3LYP) =  -708.427681787     A.U. after   12 cycles
 SCF Done:  E(RB3LYP) =  -708.428350800     A.U. after   11 cycles
 SCF Done:  E(RB3LYP) =  -708.428438981     A.U. after   11 cycles
 SCF Done:  E(RB3LYP) =  -708.428468097     A.U. after   10 cycles
 SCF Done:  E(RB3LYP) =  -708.428487518     A.U. after   10 cycles
 SCF Done:  E(RB3LYP) =  -708.428505921     A.U. after   10 cycles
 SCF Done:  E(RB3LYP) =  -708.428624169     A.U. after   11 cycles
 SCF Done:  E(RB3LYP) =  -708.428624137     A.U. after   10 cycles
 SCF Done:  E(RB3LYP) =  -708.428625549     A.U. after    9 cycles
 SCF Done:  E(RB3LYP) =  -708.428625464     A.U. after    8 cycles
 SCF Done:  E(RB3LYP) =  -708.428625568     A.U. after    7 cycles
 Optimization completed.
    -- Stationary point found.
 Normal termination of Gaussian 16 at Thu Dec 10 15:52:48 2020.

 --------------------------------------------------------------------
 #N Geom=AllCheck Guess=TCheck SCRF=Check GenChk RB3LYP/6-31G(d) Freq
 --------------------------------------------------------------------

 Structure from the checkpoint file:  "JID_5373.chk"
 ------------------------------
 CID_76952815_JID_5373_neutraal
 ------------------------------
 Charge =  0 Multiplicity = 1

 SCF Done:  E(RB3LYP) =  -708.428625568     A.U. after    1 cycles

  Exact polarizability: 156.150  -5.515 134.223   9.123  -4.790 105.726
 Approx polarizability: 186.875 -17.789 207.392  18.991 -19.091 162.412

                      1                      2                      3
                      A                      A                      A
 Frequencies --     19.8704                27.0995                39.8595
 Red. masses --      3.5492                 4.3171                 4.5898
 Frc consts  --      0.0008                 0.0019                 0.0043
 IR Inten    --      0.1706                 0.7466                 1.3193

                      4                      5                      6
                      A                      A                      A
 Frequencies --     52.9711                59.8357                73.6977
 Red. masses --      4.1163                 4.5549                 3.9094
 Frc consts  --      0.0068                 0.0096                 0.0125
 IR Inten    --      0.5387                 0.9240                 1.4343

                      7                      8                      9
                      A                      A                      A
 Frequencies --     99.0478               116.4036               167.7776
 Red. masses --      3.5348                 1.8589                 2.3029
 Frc consts  --      0.0204                 0.0148                 0.0382
 IR Inten    --      0.2292                 0.1134                 0.6428

                     10                     11                     12
                      A                      A                      A
 Frequencies --    171.0512               207.9661               230.6634
 Red. masses --      3.0811                 1.4284                 2.8693
 Frc consts  --      0.0531                 0.0364                 0.0899
 IR Inten    --      1.9739                 0.0955                 2.5556

                     13                     14                     15
                      A                      A                      A
 Frequencies --    234.1687               268.4402               280.5377
 Red. masses --      1.5261                 3.1537                 1.6714
 Frc consts  --      0.0493                 0.1339                 0.0775
 IR Inten    --      0.3346                22.6273                 0.5327

                     16                     17                     18
                      A                      A                      A
 Frequencies --    298.2339               325.8404               341.7956
 Red. masses --      1.8880                 2.8694                 1.6522
 Frc consts  --      0.0989                 0.1795                 0.1137
 IR Inten    --     18.2822                 4.2650                62.2293

                     19                     20                     21
                      A                      A                      A
 Frequencies --    356.0766               371.3735               383.5191
 Red. masses --      1.5485                 1.9541                 1.9087
 Frc consts  --      0.1157                 0.1588                 0.1654
 IR Inten    --     52.0813                28.6627                12.5893

                     22                     23                     24
                      A                      A                      A
 Frequencies --    429.1194               435.4281               463.3266
 Red. masses --      2.4813                 2.3212                 2.5018
 Frc consts  --      0.2692                 0.2593                 0.3164
 IR Inten    --      1.5662                 3.7554                 7.7096

                     25                     26                     27
                      A                      A                      A
 Frequencies --    541.3810               587.0615               599.7405
 Red. masses --      3.1581                 2.0714                 2.1170
 Frc consts  --      0.5454                 0.4206                 0.4486
 IR Inten    --      8.5409                14.0410                73.1845

                     28                     29                     30
                      A                      A                      A
 Frequencies --    622.3805               641.8693               711.7340
 Red. masses --      2.8395                 3.0550                 1.7764
 Frc consts  --      0.6480                 0.7416                 0.5302
 IR Inten    --     18.4412                43.7052                17.9442

                     31                     32                     33
                      A                      A                      A
 Frequencies --    729.9151               760.0787               770.8658
 Red. masses --      1.7297                 4.7568                 1.4813
 Frc consts  --      0.5430                 1.6191                 0.5186
 IR Inten    --    222.1172                14.8298                16.2274

                     34                     35                     36
                      A                      A                      A
 Frequencies --    812.2579               842.9686               876.0066
 Red. masses --      2.1203                 2.3091                 1.6135
 Frc consts  --      0.8242                 0.9667                 0.7295
 IR Inten    --      0.6308                 9.7138                 1.7169

                     37                     38                     39
                      A                      A                      A
 Frequencies --    880.6439               899.7240               928.4268
 Red. masses --      2.0978                 2.5713                 1.7424
 Frc consts  --      0.9585                 1.2264                 0.8849
 IR Inten    --      0.6851                 8.1658                 2.3647

                     40                     41                     42
                      A                      A                      A
 Frequencies --    970.9005               983.5713              1025.1930
 Red. masses --      3.7759                 1.8866                 1.4126
 Frc consts  --      2.0971                 1.0753                 0.8747
 IR Inten    --     85.7659                24.7028                14.2092

                     43                     44                     45
                      A                      A                      A
 Frequencies --   1029.9508              1046.6868              1080.9150
 Red. masses --      1.6827                 1.7748                 2.0810
 Frc consts  --      1.0517                 1.1456                 1.4325
 IR Inten    --      2.2853                12.5195                 2.4414

                     46                     47                     48
                      A                      A                      A
 Frequencies --   1095.2023              1111.0157              1142.6132
 Red. masses --      2.2228                 2.2203                 1.9316
 Frc consts  --      1.5709                 1.6147                 1.4858
 IR Inten    --      4.8372                18.3703                28.2707

                     49                     50                     51
                      A                      A                      A
 Frequencies --   1150.8101              1170.7035              1192.3168
 Red. masses --      2.1654                 1.7830                 1.9928
 Frc consts  --      1.6896                 1.4398                 1.6692
 IR Inten    --      0.3482                15.1139                 8.3277

                     52                     53                     54
                      A                      A                      A
 Frequencies --   1210.0196              1241.2646              1284.6494
 Red. masses --      1.2737                 1.3310                 1.3080
 Frc consts  --      1.0987                 1.2083                 1.2718
 IR Inten    --      5.1996                25.8642                 1.8831

                     55                     56                     57
                      A                      A                      A
 Frequencies --   1299.4099              1320.8705              1333.2878
 Red. masses --      1.2981                 1.2475                 1.5860
 Frc consts  --      1.2914                 1.2824                 1.6612
 IR Inten    --     17.7854                10.7217                57.8655

                     58                     59                     60
                      A                      A                      A
 Frequencies --   1347.9974              1373.8050              1382.7182
 Red. masses --      1.2663                 1.5871                 1.3147
 Frc consts  --      1.3557                 1.7648                 1.4810
 IR Inten    --     22.6091               101.6732                 0.7096

                     61                     62                     63
                      A                      A                      A
 Frequencies --   1385.4212              1402.9062              1404.3993
 Red. masses --      1.4439                 1.3882                 1.5461
 Frc consts  --      1.6329                 1.6098                 1.7967
 IR Inten    --     45.1171                14.1628                13.9195

                     64                     65                     66
                      A                      A                      A
 Frequencies --   1411.1903              1429.2239              1444.5036
 Red. masses --      1.3282                 1.4606                 1.2406
 Frc consts  --      1.5584                 1.7578                 1.5252
 IR Inten    --      0.5323                25.3637                10.7968

                     67                     68                     69
                      A                      A                      A
 Frequencies --   1447.3789              1452.0074              1504.9146
 Red. masses --      1.2827                 1.9097                 1.5320
 Frc consts  --      1.5833                 2.3721                 2.0443
 IR Inten    --      5.5300                 1.0593                66.3720

                     70                     71                     72
                      A                      A                      A
 Frequencies --   1509.9633              1514.0153              1519.9974
 Red. masses --      1.0894                 1.1100                 1.0826
 Frc consts  --      1.4635                 1.4992                 1.4737
 IR Inten    --      1.8315                 7.0675                 0.2446

                     73                     74                     75
                      A                      A                      A
 Frequencies --   1521.0018              1526.2134              1529.4061
 Red. masses --      1.1503                 1.0593                 1.0731
 Frc consts  --      1.5679                 1.4537                 1.4789
 IR Inten    --      9.9627                 5.2430                11.7901

                     76                     77                     78
                      A                      A                      A
 Frequencies --   1535.3074              1537.6029              1543.9385
 Red. masses --      1.0444                 1.0988                 1.0656
 Frc consts  --      1.4505                 1.5306                 1.4966
 IR Inten    --      4.7666                11.9125                 4.3291

                     79                     80                     81
                      A                      A                      A
 Frequencies --   1670.1902              1739.6541              1772.0110
 Red. masses --      1.1864                 5.9289                 7.0349
 Frc consts  --      1.9500                10.5719                13.0149
 IR Inten    --     45.3777                89.9541               339.1777

                     82                     83                     84
                      A                      A                      A
 Frequencies --   3037.5165              3040.3653              3047.0141
 Red. masses --      1.0662                 1.0613                 1.0746
 Frc consts  --      5.7961                 5.7803                 5.8783
 IR Inten    --     23.2855                21.9067                24.9379

                     85                     86                     87
                      A                      A                      A
 Frequencies --   3048.6023              3060.3530              3066.9995
 Red. masses --      1.0369                 1.0374                 1.0634
 Frc consts  --      5.6782                 5.7243                 5.8933
 IR Inten    --     21.1315                13.7250                18.3620

                     88                     89                     90
                      A                      A                      A
 Frequencies --   3069.1566              3071.2692              3083.9632
 Red. masses --      1.0643                 1.0957                 1.0909
 Frc consts  --      5.9070                 6.0893                 6.1130
 IR Inten    --     23.0882                37.4099                12.1038

                     91                     92                     93
                      A                      A                      A
 Frequencies --   3100.3951              3114.2960              3114.3802
 Red. masses --      1.0916                 1.1005                 1.1019
 Frc consts  --      6.1823                 6.2886                 6.2971
 IR Inten    --     34.1164                 2.4868                40.7533

                     94                     95                     96
                      A                      A                      A
 Frequencies --   3118.9837              3124.2430              3126.3137
 Red. masses --      1.1016                 1.1026                 1.1019
 Frc consts  --      6.3141                 6.3408                 6.3452
 IR Inten    --     50.9477                20.3295                27.9194

                     97                     98                     99
                      A                      A                      A
 Frequencies --   3129.7912              3178.9823              3530.0037
 Red. masses --      1.1006                 1.0880                 1.0473
 Frc consts  --      6.3521                 6.4782                 7.6888
 IR Inten    --     44.5220                14.6238                 8.0912

                    100                    101                    102
                      A                      A                      A
 Frequencies --   3574.8039              3635.3782              3775.6363
 Red. masses --      1.0742                 1.0980                 1.0678
 Frc consts  --      8.0883                 8.5495                 8.9687
 IR Inten    --      3.3687                 9.5200                64.4257

 - Thermochemistry -
 -------------------
 Temperature   298.150 Kelvin.  Pressure   1.00000 Atm.
 Atom     1 has atomic number  6 and mass  12.00000

 Molecular mass:   215.16338 amu.
 Principal axes and moments of inertia in atomic units:
                           1         2         3
     Eigenvalues --  1698.977367458.407758303.68099
           X            0.99986   0.01674  -0.00252
           Y           -0.01666   0.99942   0.02976
           Z            0.00302  -0.02971   0.99955
 This molecule is an asymmetric top.
 Rotational symmetry number  1.
 Warning -- assumption of classical behavior for rotation
           may cause significant error
 Rotational temperatures (Kelvin)      0.05098     0.01161     0.01043
 Rotational constants (GHZ):           1.06225     0.24197     0.21734
 Zero-point vibrational energy     839196.8 (Joules/Mol)
                                  200.57285 (Kcal/Mol)
 Warning -- explicit consideration of  27 degrees of freedom as
           vibrations may cause significant error
 Vibrational temperatures:     28.59    38.99    57.35    76.21    86.09
          (Kelvin)            106.03   142.51   167.48   241.39   246.10
                              299.22   331.87   336.92   386.23   403.63
                              429.09   468.81   491.77   512.31   534.32
                              551.80   617.41   626.48   666.62   778.93
                              844.65   862.89   895.47   923.51  1024.03
                             1050.19  1093.58  1109.10  1168.66  1212.84
                             1260.38  1267.05  1294.50  1335.80  1396.91
                             1415.14  1475.02  1481.87  1505.95  1555.20
                             1575.75  1598.50  1643.97  1655.76  1684.38
                             1715.48  1740.95  1785.90  1848.32  1869.56
                             1900.44  1918.30  1939.47  1976.60  1989.42
                             1993.31  2018.47  2020.62  2030.39  2056.33
                             2078.32  2082.46  2089.11  2165.24  2172.50
                             2178.33  2186.94  2188.38  2195.88  2200.47
                             2208.96  2212.27  2221.38  2403.03  2502.97
                             2549.53  4370.31  4374.41  4383.97  4386.26
                             4403.17  4412.73  4415.83  4418.87  4437.14
                             4460.78  4480.78  4480.90  4487.52  4495.09
                             4498.07  4503.07  4573.85  5078.89  5143.35
                             5230.50  5432.30

 Zero-point correction=                           0.319633 (Hartree/Particle)
 Thermal correction to Energy=                    0.337777
 Thermal correction to Enthalpy=                  0.338722
 Thermal correction to Gibbs Free Energy=         0.271340
 Sum of electronic and zero-point Energies=           -708.108992
 Sum of electronic and thermal Energies=              -708.090848
 Sum of electronic and thermal Enthalpies=            -708.089904
 Sum of electronic and thermal Free Energies=         -708.157285

                     E (Thermal)             CV                S
                      KCal/Mol        Cal/Mol-Kelvin    Cal/Mol-Kelvin
 Total                  211.958             65.852            141.816
 Electronic               0.000              0.000              0.000
 Translational            0.889              2.981             42.002
 Rotational               0.889              2.981             33.020
 Vibrational            210.181             59.890             66.794
 Vibration     1          0.593              1.986              6.647
 Vibration     2          0.593              1.984              6.031
 Vibration     3          0.594              1.981              5.266
 Vibration     4          0.596              1.976              4.703
 Vibration     5          0.597              1.973              4.463
 Vibration     6          0.599              1.966              4.052
 Vibration     7          0.604              1.950              3.473
 Vibration     8          0.608              1.936              3.159
 Vibration     9          0.625              1.882              2.460
 Vibration    10          0.626              1.878              2.424
 Vibration    11          0.641              1.828              2.061
 Vibration    12          0.652              1.794              1.874
 Vibration    13          0.654              1.789              1.847
 Vibration    14          0.673              1.731              1.606
 Vibration    15          0.680              1.710              1.530
 Vibration    16          0.691              1.677              1.427
 Vibration    17          0.710              1.624              1.281
 Vibration    18          0.721              1.592              1.204
 Vibration    19          0.732              1.563              1.139
 Vibration    20          0.743              1.531              1.074
 Vibration    21          0.753              1.505              1.025
 Vibration    22          0.790              1.407              0.862
 Vibration    23          0.796              1.393              0.841
 Vibration    24          0.821              1.331              0.756
 Vibration    25          0.896              1.159              0.562
 Vibration    26          0.944              1.059              0.472
 Vibration    27          0.958              1.032              0.450

 Optimization completed.
    -- Stationary point found.
 Normal termination of Gaussian 16 at Thu Dec 10 16:03:47 2020.

 ----------------------------------------------------------------------
 # B3LYP/6-311++G(d,p) empiricaldispersion=gd3bj scf=xqc pop=npa geom=c
 heck
 ----------------------------------------------------------------------

 --------------------------------------
 CID_76952815_JID_5373_Energie_neutraal
 --------------------------------------
 Structure from the checkpoint file:  "JID_5373.chk"
 Charge =  0 Multiplicity = 1

 SCF Done:  E(RB3LYP) =  -708.654634792     A.U. after   15 cycles
 Normal termination of Gaussian 16 at Thu Dec 10 16:09:43 2020.

 ----------------------------------------------------------------------
 # B3LYP/6-311++G(d,p) empiricaldispersion=gd3bj scf=xqc pop=npa geom=c
 heck
 ----------------------------------------------------------------------

 ------------------------------------
 CID_76952815_JID_5373_Energie_kation
 ------------------------------------
 Structure from the checkpoint file:  "JID_5373.chk"
 Charge =  1 Multiplicity = 2

 SCF Done:  E(UB3LYP) =  -708.352149729     A.U. after   27 cycles
 Normal termination of Gaussian 16 at Thu Dec 10 16:25:26 2020.
 Gaussian 16:  ES64L-G16RevA.03 25-Dec-2016

 ----------------------------------------------------------------------
 # B3LYP/6-311++G(d,p) empiricaldispersion=gd3bj scf=xqc pop=npa geom=c
 heck
 ----------------------------------------------------------------------

 -----------------------------------
 CID_76952815_JID_5373_Energie_anion
 -----------------------------------
 Structure from the checkpoint file:  "JID_5373.chk"
 Charge = -1 Multiplicity = 2

                         Standard orientation:
 ---------------------------------------------------------------------
 Center     Atomic      Atomic             Coordinates (Angstroms)
 Number     Number       Type             X           Y           Z
 ---------------------------------------------------------------------
      1          6           0       -5.024510   -1.054861   -0.589010
      2          6           0       -3.737003   -1.686263   -0.051997
      3          6           0       -2.467039   -0.865641   -0.329289
      4          6           0       -2.482704    0.555215    0.275681
      5          6           0       -2.593577    0.578121    1.809886
      6          6           0       -1.351962    1.439178   -0.263773
      7          8           0       -1.607912    2.386221   -1.000867
      8          7           0       -0.045717    1.214782    0.109552
      9          6           0        0.589312    0.048109    0.708844
     10          6           0        1.260545   -0.885420   -0.306461
     11          6           0        2.435868   -0.240075   -1.065567
     12          6           0        3.557503    0.179778   -0.147284
     13          7           0        4.360644   -0.618870    0.463668
     14          8           0        4.107354   -1.970486    0.084707
     15          7           0        3.773538    1.546920    0.013359
     16          1           0       -5.263242   -0.114797   -0.079870
     17          1           0       -5.877499   -1.728137   -0.450874
     18          1           0       -4.938635   -0.836998   -1.660452
     19          1           0       -3.835657   -1.864350    1.026687
     20          1           0       -3.604433   -2.675795   -0.508202
     21          1           0       -1.604861   -1.430676    0.042105
     22          1           0       -2.334587   -0.774649   -1.416093
     23          1           0       -3.363567    1.067070   -0.121174
     24          1           0       -1.821178   -0.019667    2.303927
     25          1           0       -2.517768    1.602758    2.188090
     26          1           0       -3.563730    0.180197    2.124347
     27          1           0        0.565554    1.870597   -0.363266
     28          1           0        1.333096    0.395024    1.438174
     29          1           0       -0.158673   -0.501937    1.276442
     30          1           0        1.634581   -1.768738    0.220455
     31          1           0        0.512083   -1.221418   -1.033329
     32          1           0        2.836077   -0.969151   -1.776675
     33          1           0        2.098125    0.625177   -1.647093
     34          1           0        4.797992   -2.437768    0.577202
     35          1           0        2.934462    2.110299    0.086001
     36          1           0        4.438479    1.758411    0.750632
 ---------------------------------------------------------------------

 SCF Done:  E(UB3LYP) =  -708.644192965     A.U. after   33 cycles
 SCF Done:  E(UB3LYP) =  -708.644192965     a.u. after    1 cycles

 The electronic state is 2-A.
 Alpha  occ. eigenvalues --  -19.06787 -18.99126 -14.25055 -14.24154 -14.23504
 Alpha  occ. eigenvalues --  -10.17695 -10.15165 -10.11881 -10.09558 -10.09070
 Alpha  occ. eigenvalues --  -10.08658 -10.08130 -10.07737 -10.07379 -10.07028
 Alpha  occ. eigenvalues --   -0.98228  -0.94309  -0.84971  -0.82787  -0.73588
 Alpha  occ. eigenvalues --   -0.72526  -0.70031  -0.66730  -0.62253  -0.59792
 Alpha  occ. eigenvalues --   -0.55652  -0.53703  -0.49675  -0.48489  -0.47230
 Alpha  occ. eigenvalues --   -0.44283  -0.41457  -0.39891  -0.39479  -0.38513
 Alpha  occ. eigenvalues --   -0.37136  -0.36680  -0.35758  -0.34528  -0.33815
 Alpha  occ. eigenvalues --   -0.33477  -0.32549  -0.32127  -0.31530  -0.29843
 Alpha  occ. eigenvalues --   -0.28934  -0.27979  -0.27541  -0.27107  -0.26503
 Alpha  occ. eigenvalues --   -0.26357  -0.24584  -0.23765  -0.23549  -0.22974
 Alpha  occ. eigenvalues --   -0.19076  -0.16478  -0.15659  -0.13516   0.04002
 Alpha virt. eigenvalues --    0.05531   0.06136   0.07074   0.07475   0.08065
 Alpha virt. eigenvalues --    0.08867   0.09476   0.09953   0.10237   0.10340
 Alpha virt. eigenvalues --    0.10738   0.10948   0.11709   0.11890   0.12272

  Beta  occ. eigenvalues --  -19.06772 -18.99119 -14.25039 -14.24133 -14.23443
  Beta  occ. eigenvalues --  -10.17694 -10.15165 -10.11856 -10.09541 -10.09065
  Beta  occ. eigenvalues --  -10.08649 -10.08120 -10.07713 -10.07346 -10.07003
  Beta  occ. eigenvalues --   -0.98208  -0.94294  -0.84908  -0.82752  -0.73515
  Beta  occ. eigenvalues --   -0.72498  -0.70002  -0.66693  -0.62204  -0.59744
  Beta  occ. eigenvalues --   -0.55598  -0.53650  -0.49611  -0.48406  -0.47180
  Beta  occ. eigenvalues --   -0.44237  -0.41414  -0.39847  -0.39447  -0.38448
  Beta  occ. eigenvalues --   -0.37101  -0.36635  -0.35729  -0.34499  -0.33787
  Beta  occ. eigenvalues --   -0.33444  -0.32514  -0.32102  -0.31509  -0.29818
  Beta  occ. eigenvalues --   -0.28900  -0.27947  -0.27512  -0.27080  -0.26469
  Beta  occ. eigenvalues --   -0.26328  -0.24547  -0.23737  -0.23509  -0.22946
  Beta  occ. eigenvalues --   -0.19025  -0.16447  -0.15642  -0.13483
  Beta virt. eigenvalues --    0.06018   0.06516   0.06875   0.07527   0.07837
  Beta virt. eigenvalues --    0.08415   0.09196   0.09966   0.10283   0.10390
  Beta virt. eigenvalues --    0.10531   0.10896   0.11151   0.11867   0.12068

 Mulliken charges and spin densities:
               1          2
     1  C    0.387222  -0.999270
     2  C    0.104310  -0.372166
     3  C   -0.191872   0.045918
     4  C   -0.060106   0.202069
     5  C    0.410161  -1.026944
     6  C   -0.136822  -0.096694
     7  O   -0.312085   0.006290
     8  N   -0.124505   0.018334
     9  C    0.015105  -0.270020
    10  C   -0.536246   0.439374
    11  C    0.954466  -1.556868
    12  C    0.106755  -0.339025
    13  N   -0.339841   0.114682
    14  O   -0.122605  -0.028677
    15  N   -0.293323   0.066859
    16  H   -0.034541   0.172374
    17  H   -0.281147   0.425690
    18  H    0.034406   0.103785
    19  H   -0.125816   0.280289
    20  H   -0.251628   0.406182
    21  H   -0.253515   0.375915
    22  H    0.064386   0.100678
    23  H    0.287622  -0.045789
    24  H   -0.305034   0.462817
    25  H    0.059033   0.097325
    26  H   -0.172065   0.324021
    27  H    0.150507   0.191385
    28  H   -0.420872   0.667905
    29  H    0.184538  -0.041737
    30  H    0.081632   0.108368
    31  H    0.073554   0.058958
    32  H    0.036273   0.159424
    33  H    0.175065  -0.000887
    34  H    0.113533   0.160887
    35  H   -0.018897   0.257612
    36  H   -0.257648   0.530936
 Sum of Mulliken charges =  -1.00000   1.00000

 Dipole moment (field-independent basis, Debye):
    X=              1.1561    Y=             -1.6212    Z=             -1.6826  Tot=              2.6069
 Quadrupole moment (field-independent basis, Debye-Ang):
   XX=           -190.0395   YY=           -142.7202   ZZ=           -129.0894
   XY=            -15.1889   XZ=             -3.0077   YZ=              0.8884

 Summary of Natural Population Analysis:

                                       Natural Population
                Natural  -----------------------------------------------
    Atom  No    Charge         Core      Valence    Rydberg      Total
 -----------------------------------------------------------------------
      C    1   -0.28846      0.99967     2.28282    0.00597     3.28846
      C    2   -0.19050      0.99964     2.18246    0.00840     3.19050
      C    3   -0.18620      0.99961     2.17734    0.00925     3.18620
      C    4   -0.15263      0.99955     2.14279    0.01029     3.15263
      C    5   -0.28540      0.99965     2.27940    0.00636     3.28540
      C    6    0.35307      0.99963     1.62443    0.02287     2.64693
      O    7   -0.32659      0.99988     3.32108    0.00564     4.32659
      N    8   -0.32264      0.99967     2.81151    0.01146     3.82264
      C    9   -0.09391      0.99960     2.08293    0.01138     3.09391
      C   10   -0.19149      0.99961     2.18523    0.00666     3.19149
      C   11   -0.22394      0.99958     2.21591    0.00845     3.22394
      C   12    0.20089      0.99962     1.77982    0.01967     2.79911
      N   13   -0.13257      0.99958     2.61831    0.01468     3.63257
      O   14   -0.29640      0.99990     3.29011    0.00639     4.29640
      N   15   -0.39389      0.99971     2.88448    0.00969     3.89389
      H   16    0.09615      0.00000     0.40292    0.00092     0.40385
      H   17    0.10052      0.00000     0.39852    0.00096     0.39948
      H   18    0.09601      0.00000     0.40313    0.00087     0.40399
      H   19    0.09613      0.00000     0.40254    0.00133     0.40387
      H   20    0.09784      0.00000     0.40095    0.00121     0.40216
      H   21    0.09698      0.00000     0.40131    0.00171     0.40302
      H   22    0.09801      0.00000     0.40078    0.00121     0.40199
      H   23    0.11011      0.00000     0.38782    0.00207     0.38989
      H   24    0.09743      0.00000     0.40136    0.00120     0.40257
      H   25    0.10377      0.00000     0.39529    0.00094     0.39623
      H   26    0.10235      0.00000     0.39672    0.00093     0.39765
      H   27    0.18926      0.00000     0.30766    0.00308     0.31074
      H   28    0.09885      0.00000     0.39903    0.00212     0.40115
      H   29    0.10351      0.00000     0.39475    0.00173     0.39649
      H   30    0.11017      0.00000     0.38818    0.00165     0.38983
      H   31    0.09928      0.00000     0.39961    0.00111     0.40072
      H   32    0.11876      0.00000     0.37990    0.00134     0.38124
      H   33    0.10348      0.00000     0.39505    0.00147     0.39652
      H   34    0.23340      0.00000     0.26310    0.00350     0.26660
      H   35    0.18702      0.00000     0.30943    0.00355     0.31298
      H   36    0.19163      0.00000     0.30416    0.00421     0.30837
 =======================================================================
   * Total *   -0.00000     14.99488    43.81082    0.19429    59.00000

 Normal termination of Gaussian 16 at Thu Dec 10 16:47:40 2020.
