 Gaussian 16, Revision A.03,

 -----------------------------------------------------------
 # opt freq B3LYP/6-31G(d) empiricaldispersion=gd3bj scf=xqc
 -----------------------------------------------------------

 -------------------------------
 CID_142212331_JID_3578_neutraal
 -------------------------------
 Symbolic Z-matrix:
 Charge =  0 Multiplicity = 1

 SCF Done:  E(RB3LYP) =  -643.406070125     A.U. after   15 cycles
 SCF Done:  E(RB3LYP) =  -643.416381241     A.U. after   13 cycles
 SCF Done:  E(RB3LYP) =  -643.415293416     A.U. after   15 cycles
 SCF Done:  E(RB3LYP) =  -643.419684324     A.U. after   13 cycles
 SCF Done:  E(RB3LYP) =  -643.421917772     A.U. after   13 cycles
 SCF Done:  E(RB3LYP) =  -643.423264308     A.U. after   14 cycles
 SCF Done:  E(RB3LYP) =  -643.424878494     A.U. after   12 cycles
 SCF Done:  E(RB3LYP) =  -643.424493925     A.U. after   12 cycles
 SCF Done:  E(RB3LYP) =  -643.425392674     A.U. after   12 cycles
 SCF Done:  E(RB3LYP) =  -643.425562672     A.U. after   12 cycles
 SCF Done:  E(RB3LYP) =  -643.425638374     A.U. after   11 cycles
 SCF Done:  E(RB3LYP) =  -643.425641047     A.U. after   10 cycles
 SCF Done:  E(RB3LYP) =  -643.425644959     A.U. after    9 cycles
 SCF Done:  E(RB3LYP) =  -643.425645623     A.U. after    8 cycles
 SCF Done:  E(RB3LYP) =  -643.425645848     A.U. after    8 cycles
 Optimization completed.
    -- Stationary point found.
 Normal termination of Gaussian 16 at Wed Dec  9 23:44:42 2020.

 --------------------------------------------------------------------
 #N Geom=AllCheck Guess=TCheck SCRF=Check GenChk RB3LYP/6-31G(d) Freq
 --------------------------------------------------------------------

 Structure from the checkpoint file:  "JID_3578.chk"
 -------------------------------
 CID_142212331_JID_3578_neutraal
 -------------------------------
 Charge =  0 Multiplicity = 1

 SCF Done:  E(RB3LYP) =  -643.425645848     A.U. after    1 cycles

  Exact polarizability: 126.685 -14.078  83.885   0.684   2.643  86.118
 Approx polarizability: 184.541 -29.491 119.376  -2.559   3.306 150.885

                      1                      2                      3
                      A                      A                      A
 Frequencies --     41.7730                71.9886                82.3819
 Red. masses --      4.7138                 4.4680                 6.0025
 Frc consts  --      0.0048                 0.0136                 0.0240
 IR Inten    --      0.8058                 0.2954                 1.3952

                      4                      5                      6
                      A                      A                      A
 Frequencies --     99.4012               107.3801               163.6880
 Red. masses --      4.0122                 5.5514                 2.1586
 Frc consts  --      0.0234                 0.0377                 0.0341
 IR Inten    --      0.7215                 0.8529                 1.2752

                      7                      8                      9
                      A                      A                      A
 Frequencies --    175.8601               217.0232               258.1665
 Red. masses --      2.3469                 1.5409                 6.0520
 Frc consts  --      0.0428                 0.0428                 0.2377
 IR Inten    --      2.6615                 0.6668                 1.5655

                     10                     11                     12
                      A                      A                      A
 Frequencies --    335.8602               343.9758               370.5033
 Red. masses --      2.9310                 4.1600                 2.8844
 Frc consts  --      0.1948                 0.2900                 0.2333
 IR Inten    --      4.2724                23.5837                16.6800

                     13                     14                     15
                      A                      A                      A
 Frequencies --    390.0181               439.4240               473.3731
 Red. masses --      4.1666                 8.0003                 1.4720
 Frc consts  --      0.3734                 0.9102                 0.1943
 IR Inten    --      6.5503                 7.7790                59.4293

                     16                     17                     18
                      A                      A                      A
 Frequencies --    497.5420               510.1608               565.0549
 Red. masses --      2.1345                 1.5076                 1.2908
 Frc consts  --      0.3113                 0.2312                 0.2428
 IR Inten    --     10.7512                55.3872                97.2264

                     19                     20                     21
                      A                      A                      A
 Frequencies --    611.4506               681.7916               704.7306
 Red. masses --      4.2121                 3.5248                 3.4321
 Frc consts  --      0.9278                 0.9654                 1.0043
 IR Inten    --      3.2815                 5.3828                38.7762

                     22                     23                     24
                      A                      A                      A
 Frequencies --    719.5991               744.3859               776.4286
 Red. masses --      1.5881                 4.3879                 2.2157
 Frc consts  --      0.4845                 1.4325                 0.7870
 IR Inten    --     87.4183                37.4594                70.9819

                     25                     26                     27
                      A                      A                      A
 Frequencies --    802.4870               870.8309               888.7353
 Red. masses --      1.2366                 3.3916                 1.3571
 Frc consts  --      0.4692                 1.5154                 0.6315
 IR Inten    --     67.4063                11.9812                 2.4677

                     28                     29                     30
                      A                      A                      A
 Frequencies --    938.2522               955.3008               997.5059
 Red. masses --      5.4529                 2.6178                 2.3828
 Frc consts  --      2.8282                 1.4076                 1.3969
 IR Inten    --     24.1623                 6.4044                11.5373

                     31                     32                     33
                      A                      A                      A
 Frequencies --   1028.3934              1055.6956              1075.1971
 Red. masses --      2.3247                 1.9938                 1.8480
 Frc consts  --      1.4485                 1.3092                 1.2587
 IR Inten    --     21.9283                11.4993                 5.1964

                     34                     35                     36
                      A                      A                      A
 Frequencies --   1114.4326              1139.2460              1147.7324
 Red. masses --      3.4759                 3.2631                 1.8783
 Frc consts  --      2.5434                 2.4952                 1.4578
 IR Inten    --    111.4740                17.2139                14.2985

                     37                     38                     39
                      A                      A                      A
 Frequencies --   1163.4799              1202.1961              1256.1414
 Red. masses --      1.4090                 2.3722                 1.8138
 Frc consts  --      1.1238                 2.0200                 1.6862
 IR Inten    --     17.0710                28.8860                13.5349

                     40                     41                     42
                      A                      A                      A
 Frequencies --   1272.4384              1304.7697              1314.9693
 Red. masses --      1.5415                 1.4058                 1.9553
 Frc consts  --      1.4705                 1.4101                 1.9921
 IR Inten    --     11.6314                36.1727               168.9530

                     43                     44                     45
                      A                      A                      A
 Frequencies --   1325.9405              1358.0091              1372.7918
 Red. masses --      2.1839                 1.7544                 1.7765
 Frc consts  --      2.2622                 1.9063                 1.9725
 IR Inten    --     12.7666                30.2503                66.5396

                     46                     47                     48
                      A                      A                      A
 Frequencies --   1397.6567              1427.2651              1480.0689
 Red. masses --      1.3357                 2.2700                 1.8350
 Frc consts  --      1.5373                 2.7245                 2.3684
 IR Inten    --     63.3747                 7.1767                42.9926

                     49                     50                     51
                      A                      A                      A
 Frequencies --   1482.5050              1486.8738              1506.8578
 Red. masses --      1.1867                 1.5444                 1.1184
 Frc consts  --      1.5366                 2.0117                 1.4962
 IR Inten    --      6.0027                11.5836                 4.3594

                     52                     53                     54
                      A                      A                      A
 Frequencies --   1508.7221              1513.0857              1525.6536
 Red. masses --      3.5055                 1.2637                 1.0979
 Frc consts  --      4.7014                 1.7045                 1.5057
 IR Inten    --     28.8853                 0.9196                11.9466

                     55                     56                     57
                      A                      A                      A
 Frequencies --   1547.6742              1638.9095              1776.7411
 Red. masses --      1.0518                 4.6315                 8.1746
 Frc consts  --      1.4844                 7.3296                15.2043
 IR Inten    --      8.6116               105.8027               325.9168

                     58                     59                     60
                      A                      A                      A
 Frequencies --   2997.1102              3050.3045              3079.4352
 Red. masses --      1.0537                 1.0615                 1.0809
 Frc consts  --      5.5765                 5.8189                 6.0391
 IR Inten    --     49.4284                27.2618                47.1922

                     61                     62                     63
                      A                      A                      A
 Frequencies --   3100.0464              3113.9882              3126.1505
 Red. masses --      1.0967                 1.0921                 1.1020
 Frc consts  --      6.2098                 6.2396                 6.3450
 IR Inten    --     13.0418                36.8780                23.7780

                     64                     65                     66
                      A                      A                      A
 Frequencies --   3263.8019              3283.5920              3533.2821
 Red. masses --      1.0935                 1.1016                 1.0734
 Frc consts  --      6.8629                 6.9977                 7.8951
 IR Inten    --      5.7834                 0.1442                 0.7729

                     67                     68                     69
                      A                      A                      A
 Frequencies --   3562.6248              3633.8493              3654.4623
 Red. masses --      1.0754                 1.0644                 1.0819
 Frc consts  --      8.0416                 8.2814                 8.5127
 IR Inten    --     37.3599                57.7101                73.0445

 - Thermochemistry -
 -------------------
 Temperature   298.150 Kelvin.  Pressure   1.00000 Atm.
 Atom     1 has atomic number  6 and mass  12.00000

 Molecular mass:   184.09603 amu.
 Principal axes and moments of inertia in atomic units:
                           1         2         3
     Eigenvalues --  1541.215742878.499983538.24545
           X            0.99996  -0.00007   0.00859
           Y            0.00004   1.00000   0.00313
           Z           -0.00859  -0.00313   0.99996
 This molecule is an asymmetric top.
 Rotational symmetry number  1.
 Warning -- assumption of classical behavior for rotation
           may cause significant error
 Rotational temperatures (Kelvin)      0.05620     0.03009     0.02448
 Rotational constants (GHZ):           1.17099     0.62697     0.51007
 Zero-point vibrational energy     542250.3 (Joules/Mol)
                                  129.60093 (Kcal/Mol)
 Warning -- explicit consideration of  19 degrees of freedom as
           vibrations may cause significant error
 Vibrational temperatures:     60.10   103.58   118.53   143.02   154.50
          (Kelvin)            235.51   253.02   312.25   371.44   483.23
                              494.90   533.07   561.15   632.23   681.08
                              715.85   734.01   812.99   879.74   980.95
                             1013.95  1035.34  1071.01  1117.11  1154.60
                             1252.93  1278.69  1349.94  1374.46  1435.19
                             1479.63  1518.91  1546.97  1603.42  1639.12
                             1651.33  1673.99  1729.69  1807.31  1830.76
                             1877.27  1891.95  1907.73  1953.87  1975.14
                             2010.92  2053.52  2129.49  2132.99  2139.28
                             2168.03  2170.71  2176.99  2195.08  2226.76
                             2358.03  2556.33  4312.17  4388.71  4430.62
                             4460.28  4480.33  4497.83  4695.88  4724.36
                             5083.60  5125.82  5228.30  5257.96

 Zero-point correction=                           0.206532 (Hartree/Particle)
 Thermal correction to Energy=                    0.219321
 Thermal correction to Enthalpy=                  0.220266
 Thermal correction to Gibbs Free Energy=         0.166851
 Sum of electronic and zero-point Energies=           -643.219114
 Sum of electronic and thermal Energies=              -643.206325
 Sum of electronic and thermal Enthalpies=            -643.205380
 Sum of electronic and thermal Free Energies=         -643.258795

                     E (Thermal)             CV                S
                      KCal/Mol        Cal/Mol-Kelvin    Cal/Mol-Kelvin
 Total                  137.626             47.488            112.421
 Electronic               0.000              0.000              0.000
 Translational            0.889              2.981             41.537
 Rotational               0.889              2.981             31.129
 Vibrational            135.849             41.526             39.754
 Vibration     1          0.594              1.980              5.173
 Vibration     2          0.598              1.967              4.098
 Vibration     3          0.600              1.961              3.833
 Vibration     4          0.604              1.950              3.466
 Vibration     5          0.606              1.943              3.316
 Vibration     6          0.623              1.887              2.507
 Vibration     7          0.628              1.872              2.372
 Vibration     8          0.646              1.815              1.984
 Vibration     9          0.667              1.749              1.674
 Vibration    10          0.717              1.604              1.232
 Vibration    11          0.723              1.588              1.194
 Vibration    12          0.743              1.533              1.078
 Vibration    13          0.758              1.492              1.000
 Vibration    14          0.799              1.384              0.828
 Vibration    15          0.830              1.309              0.728
 Vibration    16          0.853              1.255              0.664
 Vibration    17          0.865              1.227              0.633
 Vibration    18          0.921              1.107              0.514
 Vibration    19          0.971              1.008              0.430

                           ! Non-Optimized Parameters !
 Normal termination of Gaussian 16 at Wed Dec  9 23:51:13 2020.

 ----------------------------------------------------------------------
 # B3LYP/6-311++G(d,p) empiricaldispersion=gd3bj scf=xqc pop=npa geom=c
 heck
 ----------------------------------------------------------------------

 ---------------------------------------
 CID_142212331_JID_3578_Energie_neutraal
 ---------------------------------------
 Structure from the checkpoint file:  "JID_3578.chk"
 Charge =  0 Multiplicity = 1

 SCF Done:  E(RB3LYP) =  -643.627817728     A.U. after   15 cycles
 Normal termination of Gaussian 16 at Wed Dec  9 23:53:58 2020.

 ----------------------------------------------------------------------
 # B3LYP/6-311++G(d,p) empiricaldispersion=gd3bj scf=xqc pop=npa geom=c
 heck
 ----------------------------------------------------------------------

 -------------------------------------
 CID_142212331_JID_3578_Energie_kation
 -------------------------------------
 Structure from the checkpoint file:  "JID_3578.chk"
 Charge =  1 Multiplicity = 2

 SCF Done:  E(UB3LYP) =  -643.321544135     A.U. after   21 cycles
 Normal termination of Gaussian 16 at Wed Dec  9 23:59:19 2020.
 Gaussian 16:  ES64L-G16RevA.03 25-Dec-2016

 ----------------------------------------------------------------------
 # B3LYP/6-311++G(d,p) empiricaldispersion=gd3bj scf=xqc pop=npa geom=c
 heck
 ----------------------------------------------------------------------

 ------------------------------------
 CID_142212331_JID_3578_Energie_anion
 ------------------------------------
 Structure from the checkpoint file:  "JID_3578.chk"
 Charge = -1 Multiplicity = 2

                         Standard orientation:
 ---------------------------------------------------------------------
 Center     Atomic      Atomic             Coordinates (Angstroms)
 Number     Number       Type             X           Y           Z
 ---------------------------------------------------------------------
      1          6           0       -0.446689    2.523509    0.090534
      2          7           0        0.497756    1.973434   -0.875271
      3          6           0        1.704176    1.409846   -0.303923
      4          6           0        1.576735    0.131314    0.583377
      5          6           0        1.350424   -1.091801   -0.305920
      6          8           0        2.315268   -1.747411   -0.682181
      7          7           0        0.082666   -1.407802   -0.744123
      8          6           0       -1.144325   -0.884848   -0.313549
      9          6           0       -2.188975   -0.314952   -1.019881
     10          6           0       -3.163346   -0.025324   -0.038021
     11          7           0       -2.765001   -0.377865    1.184524
     12          7           0       -1.541050   -0.913876    0.991725
     13          8           0        2.770829   -0.075061    1.306856
     14          1           0        0.046763    3.328448    0.647386
     15          1           0       -0.852140    1.804694    0.821407
     16          1           0       -1.294376    2.959044   -0.446811
     17          1           0        0.031840    1.303886   -1.480654
     18          1           0        2.417608    1.187379   -1.107384
     19          1           0        2.170969    2.162856    0.340739
     20          1           0        0.766470    0.271498    1.303242
     21          1           0        0.064858   -2.180968   -1.401332
     22          1           0       -2.227304   -0.132101   -2.083633
     23          1           0       -4.133226    0.434793   -0.170129
     24          1           0       -1.030167   -1.287878    1.778416
     25          1           0        3.301333   -0.675567    0.747661
 ---------------------------------------------------------------------

 SCF Done:  E(UB3LYP) =  -643.618423480     A.U. after   33 cycles
 SCF Done:  E(UB3LYP) =  -643.618423480     a.u. after    1 cycles

 The electronic state is 2-A.
 Alpha  occ. eigenvalues --  -19.03102 -19.01118 -14.28757 -14.26214 -14.23436
 Alpha  occ. eigenvalues --  -14.20670 -10.18984 -10.14979 -10.13833 -10.10590
 Alpha  occ. eigenvalues --  -10.09398 -10.09303 -10.06924  -0.97220  -0.95502
 Alpha  occ. eigenvalues --   -0.92870  -0.84732  -0.81325  -0.71931  -0.68373
 Alpha  occ. eigenvalues --   -0.65444  -0.59102  -0.54495  -0.52518  -0.50959
 Alpha  occ. eigenvalues --   -0.50254  -0.47543  -0.43073  -0.40727  -0.39026
 Alpha  occ. eigenvalues --   -0.37397  -0.36193  -0.35070  -0.34572  -0.34093
 Alpha  occ. eigenvalues --   -0.33418  -0.32406  -0.31192  -0.29236  -0.27913
 Alpha  occ. eigenvalues --   -0.27592  -0.25749  -0.21914  -0.20559  -0.19383
 Alpha  occ. eigenvalues --   -0.18237  -0.16795  -0.14801  -0.12833   0.04595
 Alpha virt. eigenvalues --    0.07179   0.07386   0.08163   0.08614   0.09351
 Alpha virt. eigenvalues --    0.09698   0.10299   0.10982   0.11626   0.12278
 Alpha virt. eigenvalues --    0.13274   0.13371   0.14486   0.15288   0.15771

  Beta  occ. eigenvalues --  -19.03099 -19.01083 -14.28679 -14.26179 -14.23405
  Beta  occ. eigenvalues --  -14.20663 -10.18945 -10.14929 -10.13822 -10.10582
  Beta  occ. eigenvalues --  -10.09395 -10.09297 -10.06885  -0.97161  -0.95418
  Beta  occ. eigenvalues --   -0.92846  -0.84638  -0.81307  -0.71814  -0.68285
  Beta  occ. eigenvalues --   -0.65404  -0.59057  -0.54428  -0.52410  -0.50888
  Beta  occ. eigenvalues --   -0.50165  -0.47475  -0.42977  -0.40679  -0.38980
  Beta  occ. eigenvalues --   -0.37324  -0.36158  -0.34963  -0.34492  -0.33982
  Beta  occ. eigenvalues --   -0.33346  -0.32367  -0.31130  -0.29189  -0.27876
  Beta  occ. eigenvalues --   -0.27578  -0.25713  -0.21826  -0.20541  -0.19291
  Beta  occ. eigenvalues --   -0.18174  -0.16676  -0.14642  -0.12802
  Beta virt. eigenvalues --    0.07258   0.07949   0.08465   0.08839   0.09037
  Beta virt. eigenvalues --    0.09660   0.10106   0.10995   0.11538   0.11764
  Beta virt. eigenvalues --    0.12420   0.13374   0.13582   0.14553   0.15405

 Mulliken charges and spin densities:
               1          2
     1  C   -0.165206  -0.186665
     2  N   -0.059889   0.012765
     3  C   -0.445586  -0.005837
     4  C    0.426779  -0.706750
     5  C    0.032274   0.085203
     6  O   -0.367363   0.048017
     7  N   -0.268634   0.119324
     8  C    2.483182  -3.373912
     9  C   -1.538587   2.084523
    10  C    0.876283  -1.168860
    11  N   -0.102143  -0.082459
    12  N   -0.084440   0.124574
    13  O   -0.210945   0.014916
    14  H    0.108568   0.028637
    15  H    0.004093   0.064069
    16  H    0.058432   0.100957
    17  H    0.207898   0.023945
    18  H    0.128696   0.054834
    19  H    0.153344   0.002410
    20  H    0.231431  -0.019415
    21  H   -0.529417   0.883169
    22  H   -1.419977   1.623392
    23  H   -0.507675   0.677653
    24  H   -0.251466   0.582976
    25  H    0.240350   0.012534
 Sum of Mulliken charges =  -1.00000   1.00000

 Dipole moment (field-independent basis, Debye):
    X=              3.9489    Y=              4.3518    Z=              3.3903  Tot=              6.7843
 Quadrupole moment (field-independent basis, Debye-Ang):
   XX=           -129.2086   YY=           -114.5736   ZZ=           -123.0715
   XY=              0.7375   XZ=             -6.1005   YZ=             -2.6470

 Summary of Natural Population Analysis:

                                       Natural Population
                Natural  -----------------------------------------------
    Atom  No    Charge         Core      Valence    Rydberg      Total
 -----------------------------------------------------------------------
      C    1   -0.18006      0.99965     2.17321    0.00720     3.18006
      N    2   -0.33997      0.99975     2.82896    0.01125     3.83997
      C    3   -0.09287      0.99961     2.07926    0.01400     3.09287
      C    4    0.01314      0.99954     1.97244    0.01489     2.98686
      C    5    0.34340      0.99965     1.63294    0.02400     2.65660
      O    6   -0.32191      0.99987     3.31572    0.00631     4.32191
      N    7   -0.32052      0.99964     2.80778    0.01310     3.82052
      C    8    0.15778      0.99950     1.82590    0.01682     2.84222
      C    9   -0.16243      0.99950     2.15155    0.01138     3.16243
      C   10   -0.01107      0.99962     1.99642    0.01503     3.01107
      N   11   -0.15153      0.99974     2.63831    0.01348     3.65153
      N   12   -0.16935      0.99965     2.65562    0.01409     3.66935
      O   13   -0.37183      0.99990     3.36538    0.00655     4.37183
      H   14    0.08723      0.00000     0.41189    0.00088     0.41277
      H   15    0.08455      0.00000     0.41373    0.00172     0.41545
      H   16    0.09757      0.00000     0.40151    0.00093     0.40243
      H   17    0.17799      0.00000     0.31819    0.00383     0.32201
      H   18    0.09639      0.00000     0.40255    0.00106     0.40361
      H   19    0.09548      0.00000     0.40328    0.00124     0.40452
      H   20    0.09432      0.00000     0.40359    0.00210     0.40568
      H   21    0.21249      0.00000     0.27032    0.01720     0.28751
      H   22    0.11776      0.00000     0.37568    0.00657     0.38224
      H   23    0.09899      0.00000     0.39970    0.00131     0.40101
      H   24    0.20553      0.00000     0.28816    0.00631     0.29447
      H   25    0.23894      0.00000     0.25793    0.00312     0.26106
 =======================================================================
   * Total *    0.00000     12.99563    35.79002    0.21436    49.00000

 Normal termination of Gaussian 16 at Thu Dec 10 00:07:50 2020.
