 Gaussian 16, Revision A.03,

 -----------------------------------------------------------
 # opt freq B3LYP/6-31G(d) empiricaldispersion=gd3bj scf=xqc
 -----------------------------------------------------------

 ------------------------------
 CID_65909953_JID_5719_neutraal
 ------------------------------
 Symbolic Z-matrix:
 Charge =  0 Multiplicity = 1

 SCF Done:  E(RB3LYP) =  -619.368692653     A.U. after   14 cycles
 SCF Done:  E(RB3LYP) =  -619.393817292     A.U. after   13 cycles
 SCF Done:  E(RB3LYP) =  -619.395914696     A.U. after   12 cycles
 SCF Done:  E(RB3LYP) =  -619.396550790     A.U. after   12 cycles
 SCF Done:  E(RB3LYP) =  -619.396833143     A.U. after   12 cycles
 SCF Done:  E(RB3LYP) =  -619.397263871     A.U. after   10 cycles
 SCF Done:  E(RB3LYP) =  -619.398093834     A.U. after   13 cycles
 SCF Done:  E(RB3LYP) =  -619.389692690     A.U. after   14 cycles
 SCF Done:  E(RB3LYP) =  -619.398729891     A.U. after   11 cycles
 SCF Done:  E(RB3LYP) =  -619.399298625     A.U. after   12 cycles
 SCF Done:  E(RB3LYP) =  -619.399442182     A.U. after    9 cycles
 SCF Done:  E(RB3LYP) =  -619.399442098     A.U. after    8 cycles
 SCF Done:  E(RB3LYP) =  -619.399442689     A.U. after    7 cycles
 SCF Done:  E(RB3LYP) =  -619.399442675     A.U. after    8 cycles
 SCF Done:  E(RB3LYP) =  -619.399442793     A.U. after    7 cycles
 SCF Done:  E(RB3LYP) =  -619.399442907     A.U. after    7 cycles
 Optimization completed.
    -- Stationary point found.
 Normal termination of Gaussian 16 at Thu Dec 10 16:19:18 2020.

 --------------------------------------------------------------------
 #N Geom=AllCheck Guess=TCheck SCRF=Check GenChk RB3LYP/6-31G(d) Freq
 --------------------------------------------------------------------

 Structure from the checkpoint file:  "JID_5719.chk"
 ------------------------------
 CID_65909953_JID_5719_neutraal
 ------------------------------
 Charge =  0 Multiplicity = 1

 SCF Done:  E(RB3LYP) =  -619.399442907     A.U. after    1 cycles

  Exact polarizability: 164.690  -6.253 135.012  -1.004  -5.740 127.558
 Approx polarizability: 192.519  -6.162 211.926   4.244 -12.504 190.494

                      1                      2                      3
                      A                      A                      A
 Frequencies --     19.2645                26.1841                50.8207
 Red. masses --      5.0626                 4.6191                 3.1899
 Frc consts  --      0.0011                 0.0019                 0.0049
 IR Inten    --      1.2713                 2.4246                 2.2962

                      4                      5                      6
                      A                      A                      A
 Frequencies --     69.7155                90.6851               121.4937
 Red. masses --      3.1473                 3.1968                 2.1883
 Frc consts  --      0.0090                 0.0155                 0.0190
 IR Inten    --      0.7393                 0.5510                 2.5685

                      7                      8                      9
                      A                      A                      A
 Frequencies --    138.2283               163.6586               176.8397
 Red. masses --      2.9506                 2.2966                 2.6623
 Frc consts  --      0.0332                 0.0362                 0.0491
 IR Inten    --      2.9682                 0.5972                 2.8838

                     10                     11                     12
                      A                      A                      A
 Frequencies --    218.6232               231.1627               254.9604
 Red. masses --      3.0948                 2.2763                 1.3996
 Frc consts  --      0.0872                 0.0717                 0.0536
 IR Inten    --      0.5623                 0.1942                 0.7334

                     13                     14                     15
                      A                      A                      A
 Frequencies --    281.5998               310.5537               324.7891
 Red. masses --      2.2152                 3.0456                 2.1931
 Frc consts  --      0.1035                 0.1731                 0.1363
 IR Inten    --      2.2570                 0.3145                 0.1012

                     16                     17                     18
                      A                      A                      A
 Frequencies --    328.0259               389.4917               396.5679
 Red. masses --      2.7232                 3.7988                 2.8171
 Frc consts  --      0.1726                 0.3395                 0.2610
 IR Inten    --      0.8481                 0.6041                 0.5863

                     19                     20                     21
                      A                      A                      A
 Frequencies --    409.9838               432.7911               490.1326
 Red. masses --      2.2737                 2.5889                 1.8174
 Frc consts  --      0.2252                 0.2857                 0.2572
 IR Inten    --      0.2520                 1.0148                 0.1230

                     22                     23                     24
                      A                      A                      A
 Frequencies --    492.0990               524.7352               573.0092
 Red. masses --      2.3944                 2.0076                 2.4363
 Frc consts  --      0.3416                 0.3257                 0.4713
 IR Inten    --      0.8090                 1.2024                 0.2070

                     25                     26                     27
                      A                      A                      A
 Frequencies --    653.6599               735.6081               769.5594
 Red. masses --      2.6325                 2.6780                 2.0839
 Frc consts  --      0.6627                 0.8538                 0.7271
 IR Inten    --      5.5052                 0.4973                43.1989

                     28                     29                     30
                      A                      A                      A
 Frequencies --    786.8705               812.2352               825.4883
 Red. masses --      1.5593                 1.8033                 1.5577
 Frc consts  --      0.5688                 0.7010                 0.6254
 IR Inten    --     16.8269                 0.8808                 2.7422

                     31                     32                     33
                      A                      A                      A
 Frequencies --    847.2763               853.3515               869.2961
 Red. masses --      2.3817                 1.6384                 1.4602
 Frc consts  --      1.0074                 0.7029                 0.6501
 IR Inten    --      2.6046                27.2936                 4.9291

                     34                     35                     36
                      A                      A                      A
 Frequencies --    893.0609               935.4518               942.1107
 Red. masses --      1.9533                 2.1071                 1.6909
 Frc consts  --      0.9179                 1.0864                 0.8842
 IR Inten    --      3.0277                 2.9735                 5.2717

                     37                     38                     39
                      A                      A                      A
 Frequencies --    950.7159               977.9947               984.7351
 Red. masses --      2.0007                 2.1986                 1.9702
 Frc consts  --      1.0655                 1.2390                 1.1256
 IR Inten    --      3.7144                 1.8704                 8.3258

                     40                     41                     42
                      A                      A                      A
 Frequencies --   1001.0362              1037.7886              1042.1884
 Red. masses --      2.0568                 2.2094                 1.9915
 Frc consts  --      1.2143                 1.4020                 1.2745
 IR Inten    --      4.6427                 0.2340                 1.7557

                     43                     44                     45
                      A                      A                      A
 Frequencies --   1061.4334              1071.6293              1097.4421
 Red. masses --      1.8735                 1.8901                 1.7179
 Frc consts  --      1.2436                 1.2789                 1.2190
 IR Inten    --      4.3714                 0.0275                 0.4618

                     46                     47                     48
                      A                      A                      A
 Frequencies --   1110.0069              1129.6065              1137.2749
 Red. masses --      1.6750                 1.9831                 1.8988
 Frc consts  --      1.2159                 1.4909                 1.4470
 IR Inten    --      1.3530                 6.0920                 0.3203

                     49                     50                     51
                      A                      A                      A
 Frequencies --   1150.0352              1165.0701              1181.7039
 Red. masses --      2.3078                 2.8341                 1.6530
 Frc consts  --      1.7984                 2.2666                 1.3600
 IR Inten    --      4.1592                63.1529                 8.2986

                     52                     53                     54
                      A                      A                      A
 Frequencies --   1216.4171              1239.5999              1250.5797
 Red. masses --      2.1235                 1.2181                 1.2427
 Frc consts  --      1.8513                 1.1028                 1.1451
 IR Inten    --      0.2656                 0.0748                16.2629

                     55                     56                     57
                      A                      A                      A
 Frequencies --   1253.2487              1271.8757              1274.7434
 Red. masses --      1.2622                 1.2896                 1.2531
 Frc consts  --      1.1680                 1.2291                 1.1997
 IR Inten    --      0.5137                 4.4675                 0.2476

                     58                     59                     60
                      A                      A                      A
 Frequencies --   1290.2283              1312.9919              1332.9781
 Red. masses --      1.3473                 1.2523                 1.1634
 Frc consts  --      1.3214                 1.2720                 1.2180
 IR Inten    --      7.2698                 7.3270                 1.2895

                     61                     62                     63
                      A                      A                      A
 Frequencies --   1333.7741              1337.9507              1358.8627
 Red. masses --      1.1980                 1.2360                 1.2576
 Frc consts  --      1.2557                 1.3036                 1.3682
 IR Inten    --      7.4335                 5.8465                 0.4721

                     64                     65                     66
                      A                      A                      A
 Frequencies --   1375.5378              1385.2640              1386.8214
 Red. masses --      1.2821                 1.4149                 1.2821
 Frc consts  --      1.4292                 1.5997                 1.4529
 IR Inten    --      1.0435                 0.6940                 7.2910

                     67                     68                     69
                      A                      A                      A
 Frequencies --   1400.4957              1407.3334              1411.5519
 Red. masses --      1.3884                 1.3767                 1.4841
 Frc consts  --      1.6044                 1.6065                 1.7423
 IR Inten    --      4.2003                 9.5318                 0.7021

                     70                     71                     72
                      A                      A                      A
 Frequencies --   1413.9420              1417.2012              1430.1075
 Red. masses --      1.4605                 1.4285                 1.4565
 Frc consts  --      1.7204                 1.6905                 1.7551
 IR Inten    --      1.1686                 2.4570                 0.7283

                     73                     74                     75
                      A                      A                      A
 Frequencies --   1439.3809              1444.5127              1500.6003
 Red. masses --      1.4196                 1.2487                 1.0912
 Frc consts  --      1.7328                 1.5352                 1.4478
 IR Inten    --      1.2400                 1.4045                13.9609

                     76                     77                     78
                      A                      A                      A
 Frequencies --   1512.9781              1516.8837              1519.3665
 Red. masses --      1.0827                 1.0903                 1.0917
 Frc consts  --      1.4603                 1.4781                 1.4848
 IR Inten    --      0.7302                 0.4503                 4.2112

                     79                     80                     81
                      A                      A                      A
 Frequencies --   1520.1137              1521.3494              1529.9409
 Red. masses --      1.1240                 1.0592                 1.1354
 Frc consts  --      1.5302                 1.4444                 1.5658
 IR Inten    --     21.0698                 2.1174                19.5546

                     82                     83                     84
                      A                      A                      A
 Frequencies --   1532.8959              1535.0864              1540.6410
 Red. masses --      1.0633                 1.0837                 1.0913
 Frc consts  --      1.4721                 1.5046                 1.5262
 IR Inten    --      6.7562                 5.4616                42.0558

                     85                     86                     87
                      A                      A                      A
 Frequencies --   1541.4818              1544.4583              2362.7795
 Red. masses --      1.0596                 1.1122                12.5822
 Frc consts  --      1.4834                 1.5631                41.3858
 IR Inten    --      2.3070                 9.3691                 9.5465

                     88                     89                     90
                      A                      A                      A
 Frequencies --   2934.5024              3012.2260              3017.8144
 Red. masses --      1.0709                 1.0690                 1.0658
 Frc consts  --      5.4334                 5.7149                 5.7189
 IR Inten    --     53.9484                12.7731                15.5365

                     91                     92                     93
                      A                      A                      A
 Frequencies --   3020.8114              3025.8538              3030.2471
 Red. masses --      1.0646                 1.0654                 1.0649
 Frc consts  --      5.7240                 5.7471                 5.7612
 IR Inten    --     21.7120                 4.0981                37.5675

                     94                     95                     96
                      A                      A                      A
 Frequencies --   3031.8515              3034.8267              3037.4872
 Red. masses --      1.0724                 1.0782                 1.0718
 Frc consts  --      5.8081                 5.8509                 5.8261
 IR Inten    --      4.1313                 4.6501                 9.2779

                     97                     98                     99
                      A                      A                      A
 Frequencies --   3044.5531              3049.0418              3053.4603
 Red. masses --      1.0598                 1.0493                 1.0874
 Frc consts  --      5.7878                 5.7476                 5.9735
 IR Inten    --      6.6650                39.4655                42.4603

                    100                    101                    102
                      A                      A                      A
 Frequencies --   3059.0140              3063.4496              3064.5149
 Red. masses --      1.0942                 1.1018                 1.1007
 Frc consts  --      6.0327                 6.0921                 6.0904
 IR Inten    --    103.4709                 5.0786                48.2348

                    103                    104                    105
                      A                      A                      A
 Frequencies --   3068.5754              3074.7075              3076.7962
 Red. masses --      1.0985                 1.0968                 1.0985
 Frc consts  --      6.0941                 6.1092                 6.1271
 IR Inten    --     80.4323                54.1739               109.5500

                    106                    107                    108
                      A                      A                      A
 Frequencies --   3079.2866              3092.0325              3113.4857
 Red. masses --      1.0602                 1.0971                 1.1028
 Frc consts  --      5.9228                 6.1799                 6.2984
 IR Inten    --     14.7628                 1.1091                28.6266

                    109                    110                    111
                      A                      A                      A
 Frequencies --   3116.1586              3123.0234              3496.9991
 Red. masses --      1.1020                 1.1006                 1.0729
 Frc consts  --      6.3047                 6.3245                 7.7304
 IR Inten    --     31.7306                34.6900                 0.4773

 - Thermochemistry -
 -------------------
 Temperature   298.150 Kelvin.  Pressure   1.00000 Atm.
 Atom     1 has atomic number  6 and mass  12.00000

 Molecular mass:   208.19395 amu.
 Principal axes and moments of inertia in atomic units:
                           1         2         3
     Eigenvalues --  1615.781726963.101227271.11373
           X            0.99991  -0.01324  -0.00178
           Y            0.01311   0.99823  -0.05801
           Z            0.00255   0.05798   0.99831
 This molecule is an asymmetric top.
 Rotational symmetry number  1.
 Warning -- assumption of classical behavior for rotation
           may cause significant error
 Rotational temperatures (Kelvin)      0.05360     0.01244     0.01191
 Rotational constants (GHZ):           1.11695     0.25919     0.24821
 Zero-point vibrational energy     944587.7 (Joules/Mol)
                                  225.76189 (Kcal/Mol)
 Warning -- explicit consideration of  24 degrees of freedom as
           vibrations may cause significant error
 Vibrational temperatures:     27.72    37.67    73.12   100.31   130.48
          (Kelvin)            174.80   198.88   235.47   254.43   314.55
                              332.59   366.83   405.16   446.82   467.30
                              471.96   560.39   570.57   589.88   622.69
                              705.19   708.02   754.98   824.43   940.47
                             1058.38  1107.22  1132.13  1168.63  1187.69
                             1219.04  1227.78  1250.72  1284.92  1345.91
                             1355.49  1367.87  1407.12  1416.81  1440.27
                             1493.15  1499.48  1527.17  1541.84  1578.97
                             1597.05  1625.25  1636.28  1654.64  1676.28
                             1700.21  1750.15  1783.51  1799.31  1803.15
                             1829.95  1834.07  1856.35  1889.10  1917.86
                             1919.00  1925.01  1955.10  1979.09  1993.09
                             1995.33  2015.00  2024.84  2030.91  2034.35
                             2039.04  2057.61  2070.95  2078.33  2159.03
                             2176.84  2182.46  2186.03  2187.10  2188.88
                             2201.24  2205.50  2208.65  2216.64  2217.85
                             2222.13  3399.51  4222.09  4333.92  4341.96
                             4346.27  4353.53  4359.85  4362.16  4366.44
                             4370.27  4380.43  4386.89  4393.25  4401.24
                             4407.62  4409.15  4415.00  4423.82  4426.82
                             4430.41  4448.75  4479.61  4483.46  4493.33
                             5031.40

 Zero-point correction=                           0.359774 (Hartree/Particle)
 Thermal correction to Energy=                    0.376149
 Thermal correction to Enthalpy=                  0.377094
 Thermal correction to Gibbs Free Energy=         0.314312
 Sum of electronic and zero-point Energies=           -619.039668
 Sum of electronic and thermal Energies=              -619.023294
 Sum of electronic and thermal Enthalpies=            -619.022349
 Sum of electronic and thermal Free Energies=         -619.085131

                     E (Thermal)             CV                S
                      KCal/Mol        Cal/Mol-Kelvin    Cal/Mol-Kelvin
 Total                  236.037             61.892            132.136
 Electronic               0.000              0.000              0.000
 Translational            0.889              2.981             41.904
 Rotational               0.889              2.981             32.770
 Vibrational            234.260             55.930             57.462
 Vibration     1          0.593              1.986              6.709
 Vibration     2          0.593              1.985              6.099
 Vibration     3          0.595              1.977              4.785
 Vibration     4          0.598              1.969              4.161
 Vibration     5          0.602              1.956              3.645
 Vibration     6          0.609              1.931              3.076
 Vibration     7          0.614              1.915              2.828
 Vibration     8          0.623              1.887              2.507
 Vibration     9          0.628              1.871              2.362
 Vibration    10          0.646              1.813              1.970
 Vibration    11          0.653              1.793              1.870
 Vibration    12          0.665              1.754              1.696
 Vibration    13          0.681              1.708              1.524
 Vibration    14          0.699              1.654              1.359
 Vibration    15          0.709              1.626              1.286
 Vibration    16          0.711              1.619              1.270
 Vibration    17          0.757              1.493              1.002
 Vibration    18          0.763              1.477              0.975
 Vibration    19          0.774              1.449              0.927
 Vibration    20          0.794              1.399              0.850
 Vibration    21          0.846              1.272              0.683
 Vibration    22          0.848              1.268              0.678
 Vibration    23          0.880              1.195              0.599
 Vibration    24          0.929              1.090              0.498

                           ! Non-Optimized Parameters !
 Normal termination of Gaussian 16 at Thu Dec 10 16:32:35 2020.

 ----------------------------------------------------------------------
 # B3LYP/6-311++G(d,p) empiricaldispersion=gd3bj scf=xqc pop=npa geom=c
 heck
 ----------------------------------------------------------------------

 --------------------------------------
 CID_65909953_JID_5719_Energie_neutraal
 --------------------------------------
 Structure from the checkpoint file:  "JID_5719.chk"
 Charge =  0 Multiplicity = 1

 SCF Done:  E(RB3LYP) =  -619.572444753     A.U. after   13 cycles
 Normal termination of Gaussian 16 at Thu Dec 10 16:38:13 2020.

 ----------------------------------------------------------------------
 # B3LYP/6-311++G(d,p) empiricaldispersion=gd3bj scf=xqc pop=npa geom=c
 heck
 ----------------------------------------------------------------------

 ------------------------------------
 CID_65909953_JID_5719_Energie_kation
 ------------------------------------
 Structure from the checkpoint file:  "JID_5719.chk"
 Charge =  1 Multiplicity = 2

 SCF Done:  E(UB3LYP) =  -619.258304383     A.U. after   22 cycles
 Normal termination of Gaussian 16 at Thu Dec 10 16:52:21 2020.
 Gaussian 16:  ES64L-G16RevA.03 25-Dec-2016

 ----------------------------------------------------------------------
 # B3LYP/6-311++G(d,p) empiricaldispersion=gd3bj scf=xqc pop=npa geom=c
 heck
 ----------------------------------------------------------------------

 -----------------------------------
 CID_65909953_JID_5719_Energie_anion
 -----------------------------------
 Structure from the checkpoint file:  "JID_5719.chk"
 Charge = -1 Multiplicity = 2

                         Standard orientation:
 ---------------------------------------------------------------------
 Center     Atomic      Atomic             Coordinates (Angstroms)
 Number     Number       Type             X           Y           Z
 ---------------------------------------------------------------------
      1          6           0        5.031092   -0.627764   -0.452209
      2          6           0        3.580813   -0.515531   -0.927970
      3          6           0        2.528200   -0.648035    0.180392
      4          6           0        2.680138    0.462743    1.270910
      5          6           0        2.367299    1.779143    0.717154
      6          7           0        2.085800    2.787800    0.215090
      7          7           0        1.207870   -0.694571   -0.429662
      8          6           0        0.090278   -0.914854    0.484495
      9          6           0       -1.237438   -1.097732   -0.265226
     10          6           0       -2.365401   -1.433910    0.734077
     11          6           0       -3.048614   -0.242067    1.430689
     12          6           0       -4.225279    0.336554    0.630629
     13          6           0       -3.852608    1.080858   -0.656830
     14          6           0       -2.964962    0.310746   -1.647329
     15          6           0       -1.515780    0.126183   -1.164469
     16          1           0        5.325804    0.215049    0.182979
     17          1           0        5.715794   -0.641046   -1.306380
     18          1           0        5.192803   -1.551340    0.117246
     19          1           0        3.434105    0.443736   -1.443666
     20          1           0        3.364276   -1.299330   -1.661678
     21          1           0        2.683678   -1.602177    0.702493
     22          1           0        1.997953    0.266114    2.104609
     23          1           0        3.694483    0.470690    1.682955
     24          1           0        1.058450    0.165571   -0.954637
     25          1           0        0.310030   -1.825528    1.057372
     26          1           0       -0.037186   -0.099868    1.222877
     27          1           0       -1.110340   -1.969723   -0.920804
     28          1           0       -3.140345   -2.014508    0.217547
     29          1           0       -1.950023   -2.111464    1.492173
     30          1           0       -2.317966    0.548366    1.651559
     31          1           0       -3.431494   -0.577813    2.402646
     32          1           0       -4.795624    1.021428    1.272139
     33          1           0       -4.908331   -0.489705    0.383883
     34          1           0       -3.336186    2.015746   -0.394534
     35          1           0       -4.780416    1.378292   -1.163396
     36          1           0       -2.945751    0.874131   -2.588579
     37          1           0       -3.415155   -0.662809   -1.887157
     38          1           0       -1.214029    1.043238   -0.635827
     39          1           0       -0.856636    0.052349   -2.037694
 ---------------------------------------------------------------------

 SCF Done:  E(UB3LYP) =  -619.561196886     A.U. after   32 cycles

 The electronic state is 2-A.
 Alpha  occ. eigenvalues --  -14.21986 -14.20674 -10.12006 -10.11954 -10.11338
 Alpha  occ. eigenvalues --  -10.09563 -10.07952 -10.07883 -10.07794 -10.07731
 Alpha  occ. eigenvalues --  -10.07532 -10.07470 -10.07217 -10.07112 -10.06907
 Alpha  occ. eigenvalues --   -0.83040  -0.81312  -0.74108  -0.70950  -0.67643
 Alpha  occ. eigenvalues --   -0.67083  -0.66086  -0.59941  -0.56514  -0.55556
 Alpha  occ. eigenvalues --   -0.52403  -0.50304  -0.47685  -0.44769  -0.41417
 Alpha  occ. eigenvalues --   -0.40480  -0.39701  -0.38250  -0.37239  -0.37127
 Alpha  occ. eigenvalues --   -0.35113  -0.34211  -0.33108  -0.32396  -0.31709
 Alpha  occ. eigenvalues --   -0.31599  -0.30185  -0.28876  -0.28713  -0.27826
 Alpha  occ. eigenvalues --   -0.27534  -0.26719  -0.25729  -0.25058  -0.24148
 Alpha  occ. eigenvalues --   -0.23694  -0.23652  -0.23441  -0.23160  -0.21874
 Alpha  occ. eigenvalues --   -0.21802  -0.21377  -0.13988   0.04095
 Alpha virt. eigenvalues --    0.05571   0.06695   0.07113   0.07552   0.08026
 Alpha virt. eigenvalues --    0.08349   0.09468   0.09636   0.09948   0.10170
 Alpha virt. eigenvalues --    0.10657   0.11177   0.11457   0.11726   0.11801

  Beta  occ. eigenvalues --  -14.21979 -14.20673 -10.12003 -10.11937 -10.11297
  Beta  occ. eigenvalues --  -10.09542 -10.07946 -10.07880 -10.07787 -10.07725
  Beta  occ. eigenvalues --  -10.07518 -10.07467 -10.07201 -10.07099 -10.06865
  Beta  occ. eigenvalues --   -0.83021  -0.81297  -0.74088  -0.70915  -0.67618
  Beta  occ. eigenvalues --   -0.67062  -0.66030  -0.59898  -0.56481  -0.55511
  Beta  occ. eigenvalues --   -0.52356  -0.50244  -0.47651  -0.44733  -0.41353
  Beta  occ. eigenvalues --   -0.40449  -0.39664  -0.38216  -0.37211  -0.37099
  Beta  occ. eigenvalues --   -0.35081  -0.34194  -0.33070  -0.32369  -0.31673
  Beta  occ. eigenvalues --   -0.31571  -0.30147  -0.28836  -0.28690  -0.27801
  Beta  occ. eigenvalues --   -0.27509  -0.26683  -0.25697  -0.25023  -0.24129
  Beta  occ. eigenvalues --   -0.23669  -0.23628  -0.23416  -0.23131  -0.21852
  Beta  occ. eigenvalues --   -0.21777  -0.21354  -0.13976
  Beta virt. eigenvalues --    0.05861   0.06655   0.07194   0.07345   0.08010
  Beta virt. eigenvalues --    0.08423   0.08941   0.09715   0.10048   0.10143
  Beta virt. eigenvalues --    0.10333   0.10808   0.11338   0.11677   0.11988

 Mulliken charges and spin densities:
               1          2
     1  C    1.068202  -1.789984
     2  C   -1.197982   1.191857
     3  C    0.518214  -1.016891
     4  C    0.063143   0.234923
     5  C    0.918532  -1.189713
     6  N   -0.381299   0.067126
     7  N    0.124453   0.066349
     8  C   -0.839989  -0.180746
     9  C    1.091403  -0.391268
    10  C   -0.050045  -0.370896
    11  C   -0.093314  -0.016059
    12  C    0.194405  -0.697974
    13  C   -0.398116   0.096760
    14  C   -0.374615  -0.074779
    15  C   -0.346001  -0.031362
    16  H   -0.028860   0.167473
    17  H   -0.131465   0.267314
    18  H   -0.405801   0.556750
    19  H    0.079243   0.049150
    20  H    0.073494   0.111639
    21  H   -0.283818   0.501479
    22  H   -0.675177   0.881314
    23  H   -0.493355   0.719451
    24  H    0.073506   0.170128
    25  H   -0.346042   0.512803
    26  H    0.730883  -0.631201
    27  H    0.108275   0.092832
    28  H    0.061412   0.074421
    29  H   -0.145650   0.309170
    30  H   -0.042657   0.176883
    31  H   -0.240215   0.409477
    32  H   -0.038049   0.185470
    33  H   -0.025052   0.159925
    34  H    0.085993   0.055905
    35  H   -0.023592   0.171995
    36  H    0.071616   0.086227
    37  H    0.023197   0.110182
    38  H    0.051641   0.045004
    39  H    0.223483  -0.081133
 Sum of Mulliken charges =  -1.00000   1.00000

 Dipole moment (field-independent basis, Debye):
    X=             -4.8449    Y=              0.9747    Z=             -4.8797  Tot=              6.9451
 Quadrupole moment (field-independent basis, Debye-Ang):
   XX=           -192.0442   YY=           -144.2081   ZZ=           -137.1519
   XY=              4.6456   XZ=             -4.0212   YZ=              4.7328

 Summary of Natural Population Analysis:

                                       Natural Population
                Natural  -----------------------------------------------
    Atom  No    Charge         Core      Valence    Rydberg      Total
 -----------------------------------------------------------------------
      C    1   -0.28684      0.99966     2.28214    0.00503     3.28684
      C    2   -0.19488      0.99961     2.18597    0.00930     3.19488
      C    3    0.00034      0.99959     1.98539    0.01468     2.99966
      C    4   -0.26321      0.99953     2.25186    0.01182     3.26321
      C    5    0.16449      0.99966     1.81876    0.01709     2.83551
      N    6   -0.19210      0.99979     2.68156    0.01074     3.69210
      N    7   -0.34106      0.99972     2.83039    0.01094     3.84106
      C    8   -0.08326      0.99959     2.07251    0.01116     3.08326
      C    9   -0.10907      0.99959     2.09836    0.01113     3.10907
      C   10   -0.19136      0.99961     2.18214    0.00961     3.19136
      C   11   -0.19560      0.99962     2.18694    0.00904     3.19560
      C   12   -0.18661      0.99962     2.17885    0.00813     3.18661
      C   13   -0.18881      0.99962     2.18028    0.00891     3.18881
      C   14   -0.18989      0.99963     2.18300    0.00725     3.18989
      C   15   -0.19596      0.99961     2.18897    0.00739     3.19596
      H   16    0.09653      0.00000     0.40210    0.00137     0.40347
      H   17    0.09977      0.00000     0.39946    0.00078     0.40023
      H   18    0.10097      0.00000     0.39741    0.00162     0.39903
      H   19    0.09597      0.00000     0.40292    0.00111     0.40403
      H   20    0.10431      0.00000     0.39440    0.00129     0.39569
      H   21    0.09990      0.00000     0.39747    0.00264     0.40010
      H   22    0.12642      0.00000     0.37133    0.00225     0.37358
      H   23    0.12655      0.00000     0.37113    0.00232     0.37345
      H   24    0.17453      0.00000     0.32219    0.00328     0.32547
      H   25    0.09622      0.00000     0.40204    0.00174     0.40378
      H   26    0.07825      0.00000     0.41932    0.00243     0.42175
      H   27    0.09683      0.00000     0.40147    0.00170     0.40317
      H   28    0.09501      0.00000     0.40371    0.00128     0.40499
      H   29    0.10238      0.00000     0.39638    0.00124     0.39762
      H   30    0.09575      0.00000     0.40282    0.00143     0.40425
      H   31    0.10066      0.00000     0.39821    0.00113     0.39934
      H   32    0.09739      0.00000     0.40165    0.00096     0.40261
      H   33    0.09051      0.00000     0.40827    0.00122     0.40949
      H   34    0.09249      0.00000     0.40635    0.00115     0.40751
      H   35    0.09599      0.00000     0.40312    0.00090     0.40401
      H   36    0.09703      0.00000     0.40201    0.00096     0.40297
      H   37    0.09404      0.00000     0.40485    0.00111     0.40596
      H   38    0.09563      0.00000     0.40294    0.00144     0.40437
      H   39    0.10068      0.00000     0.39827    0.00105     0.39932
 =======================================================================
   * Total *   -0.00000     14.99446    42.81693    0.18861    58.00000

 Normal termination of Gaussian 16 at Thu Dec 10 17:23:11 2020.
