 Gaussian 16, Revision A.03,

 -----------------------------------------------------------
 # opt freq B3LYP/6-31G(d) empiricaldispersion=gd3bj scf=xqc
 -----------------------------------------------------------

 -------------------------------
 CID_141800226_JID_2319_neutraal
 -------------------------------
 Symbolic Z-matrix:
 Charge =  0 Multiplicity = 1

 SCF Done:  E(RB3LYP) =  -506.449247478     A.U. after   14 cycles
 SCF Done:  E(RB3LYP) =  -506.452440242     A.U. after   11 cycles
 SCF Done:  E(RB3LYP) =  -506.453216161     A.U. after   11 cycles
 SCF Done:  E(RB3LYP) =  -506.453696658     A.U. after   11 cycles
 SCF Done:  E(RB3LYP) =  -506.454002060     A.U. after   11 cycles
 SCF Done:  E(RB3LYP) =  -506.454280399     A.U. after   12 cycles
 SCF Done:  E(RB3LYP) =  -506.454622832     A.U. after   12 cycles
 SCF Done:  E(RB3LYP) =  -506.454732655     A.U. after   13 cycles
 SCF Done:  E(RB3LYP) =  -506.454401215     A.U. after   13 cycles
 SCF Done:  E(RB3LYP) =  -506.454868423     A.U. after   11 cycles
 SCF Done:  E(RB3LYP) =  -506.455594952     A.U. after    7 cycles
 SCF Done:  E(RB3LYP) =  -506.455595102     A.U. after    6 cycles
 SCF Done:  E(RB3LYP) =  -506.455595157     A.U. after    6 cycles
 SCF Done:  E(RB3LYP) =  -506.455595180     A.U. after    6 cycles
 SCF Done:  E(RB3LYP) =  -506.455595182     A.U. after    6 cycles
 Optimization completed.
    -- Stationary point found.
 Normal termination of Gaussian 16 at Wed Dec  9 17:17:18 2020.

 --------------------------------------------------------------------
 #N Geom=AllCheck Guess=TCheck SCRF=Check GenChk RB3LYP/6-31G(d) Freq
 --------------------------------------------------------------------

 Structure from the checkpoint file:  "JID_2319.chk"
 -------------------------------
 CID_141800226_JID_2319_neutraal
 -------------------------------
 Charge =  0 Multiplicity = 1

 SCF Done:  E(RB3LYP) =  -506.455595182     A.U. after    1 cycles

  Exact polarizability: 145.610  20.171 109.411   5.842  -5.434 110.465
 Approx polarizability: 186.840  31.477 156.368   6.369 -12.073 174.941

                      1                      2                      3
                      A                      A                      A
 Frequencies --     22.1230                34.5795                49.5339
 Red. masses --      3.1747                 3.2637                 2.9624
 Frc consts  --      0.0009                 0.0023                 0.0043
 IR Inten    --      0.0530                 0.5100                 1.5485

                      4                      5                      6
                      A                      A                      A
 Frequencies --     67.7847                73.2377                80.9010
 Red. masses --      2.4018                 2.3843                 3.7861
 Frc consts  --      0.0065                 0.0075                 0.0146
 IR Inten    --      2.0234                 2.2699                 0.0895

                      7                      8                      9
                      A                      A                      A
 Frequencies --     93.4931               113.4717               158.2757
 Red. masses --      1.8185                 2.2681                 1.8204
 Frc consts  --      0.0094                 0.0172                 0.0269
 IR Inten    --      0.1675                 1.1980                 0.2578

                     10                     11                     12
                      A                      A                      A
 Frequencies --    183.7114               200.4276               236.4361
 Red. masses --      1.1827                 1.2114                 1.2090
 Frc consts  --      0.0235                 0.0287                 0.0398
 IR Inten    --      1.3840                 1.2832                 0.2503

                     13                     14                     15
                      A                      A                      A
 Frequencies --    237.6677               282.4788               329.4226
 Red. masses --      2.2204                 1.1436                 2.4769
 Frc consts  --      0.0739                 0.0538                 0.1584
 IR Inten    --      1.6939                 0.0402                 0.2971

                     16                     17                     18
                      A                      A                      A
 Frequencies --    348.9963               371.5214               401.8940
 Red. masses --      3.0402                 2.0707                 3.4504
 Frc consts  --      0.2182                 0.1684                 0.3284
 IR Inten    --      2.2282                 0.2087                 4.6133

                     19                     20                     21
                      A                      A                      A
 Frequencies --    441.2561               477.2813               520.5739
 Red. masses --      2.8185                 3.5414                 2.3911
 Frc consts  --      0.3233                 0.4753                 0.3818
 IR Inten    --      2.8537                 5.8356                 2.1611

                     22                     23                     24
                      A                      A                      A
 Frequencies --    582.4026               708.3103               758.9576
 Red. masses --      3.9966                 3.9853                 1.0805
 Frc consts  --      0.7987                 1.1780                 0.3667
 IR Inten    --      8.3347                20.9805                 8.9466

                     25                     26                     27
                      A                      A                      A
 Frequencies --    781.7207               782.7726               858.5372
 Red. masses --      4.4084                 1.8417                 1.2729
 Frc consts  --      1.5872                 0.6649                 0.5528
 IR Inten    --      1.8831                 0.2248                37.0878

                     28                     29                     30
                      A                      A                      A
 Frequencies --    883.6990               902.6500               922.3537
 Red. masses --      2.5539                 1.4766                 1.0986
 Frc consts  --      1.1751                 0.7089                 0.5506
 IR Inten    --      0.4762                 1.0463                 0.3728

                     31                     32                     33
                      A                      A                      A
 Frequencies --    943.4140               955.3351               995.1759
 Red. masses --      1.1965                 2.0561                 2.1518
 Frc consts  --      0.6274                 1.1056                 1.2556
 IR Inten    --      1.8209                 1.0608                 3.6668

                     34                     35                     36
                      A                      A                      A
 Frequencies --   1024.7858              1046.5055              1060.7378
 Red. masses --      1.8191                 2.6705                 2.0438
 Frc consts  --      1.1256                 1.7232                 1.3549
 IR Inten    --      6.2447                29.0001                25.5958

                     37                     38                     39
                      A                      A                      A
 Frequencies --   1070.2144              1087.8258              1107.3228
 Red. masses --      2.4031                 1.7864                 1.5794
 Frc consts  --      1.6217                 1.2455                 1.1410
 IR Inten    --      0.5852                 7.5162                 9.4978

                     40                     41                     42
                      A                      A                      A
 Frequencies --   1183.3588              1192.9609              1194.6945
 Red. masses --      1.2685                 1.9240                 1.7742
 Frc consts  --      1.0466                 1.6133                 1.4920
 IR Inten    --      5.4306                49.0308                 1.1368

                     43                     44                     45
                      A                      A                      A
 Frequencies --   1202.4588              1219.1781              1231.1078
 Red. masses --      1.5720                 1.3637                 1.6539
 Frc consts  --      1.3392                 1.1942                 1.4769
 IR Inten    --     23.2784                13.2946                 1.7408

                     46                     47                     48
                      A                      A                      A
 Frequencies --   1261.2050              1294.8542              1330.6234
 Red. masses --      1.7589                 2.0471                 1.2741
 Frc consts  --      1.6484                 2.0222                 1.3291
 IR Inten    --     74.4359               125.3432                 1.4414

                     49                     50                     51
                      A                      A                      A
 Frequencies --   1331.6297              1369.5679              1385.9937
 Red. masses --      1.1707                 1.4345                 1.4020
 Frc consts  --      1.2231                 1.5853                 1.5868
 IR Inten    --      0.6150                 1.9509                 2.8193

                     52                     53                     54
                      A                      A                      A
 Frequencies --   1403.9637              1418.3544              1432.7988
 Red. masses --      2.1420                 1.8073                 1.2948
 Frc consts  --      2.4877                 2.1422                 1.5662
 IR Inten    --     24.8659                38.0111                 4.6107

                     55                     56                     57
                      A                      A                      A
 Frequencies --   1443.1431              1449.2077              1496.7584
 Red. masses --      1.2874                 1.2338                 1.0762
 Frc consts  --      1.5797                 1.5267                 1.4205
 IR Inten    --      0.7400                 3.2751                 1.7370

                     58                     59                     60
                      A                      A                      A
 Frequencies --   1503.5618              1504.4925              1509.3622
 Red. masses --      1.1272                 1.0986                 1.0920
 Frc consts  --      1.5014                 1.4651                 1.4657
 IR Inten    --      2.1567                 3.8663                10.3552

                     61                     62                     63
                      A                      A                      A
 Frequencies --   1518.0958              1520.2054              1522.9228
 Red. masses --      1.0630                 1.0431                 1.0567
 Frc consts  --      1.4434                 1.4203                 1.4440
 IR Inten    --      3.7425                 2.0682                 4.2083

                     64                     65                     66
                      A                      A                      A
 Frequencies --   1523.2766              1533.7385              1534.5194
 Red. masses --      1.0579                 1.0525                 1.0493
 Frc consts  --      1.4462                 1.4587                 1.4558
 IR Inten    --      2.9851                 0.5144                18.7691

                     67                     68                     69
                      A                      A                      A
 Frequencies --   1537.9187              1547.8921              1687.2313
 Red. masses --      1.0462                 1.0673                 7.3208
 Frc consts  --      1.4579                 1.5067                12.2788
 IR Inten    --      8.9182                 3.7589                74.3445

                     70                     71                     72
                      A                      A                      A
 Frequencies --   1737.4003              2997.9138              3009.1305
 Red. masses --      6.1431                 1.0724                 1.0656
 Frc consts  --     10.9255                 5.6785                 5.6848
 IR Inten    --     55.4074                11.7930                36.1396

                     73                     74                     75
                      A                      A                      A
 Frequencies --   3019.3652              3026.7821              3034.1757
 Red. masses --      1.0408                 1.0364                 1.0607
 Frc consts  --      5.5905                 5.5943                 5.7534
 IR Inten    --     59.2489                82.5232                36.0399

                     76                     77                     78
                      A                      A                      A
 Frequencies --   3040.8026              3044.3833              3058.9395
 Red. masses --      1.0362                 1.0387                 1.0994
 Frc consts  --      5.6452                 5.6720                 6.0610
 IR Inten    --     36.6443                11.1321                58.4168

                     79                     80                     81
                      A                      A                      A
 Frequencies --   3062.0342              3073.4949              3083.0168
 Red. masses --      1.0989                 1.0914                 1.1002
 Frc consts  --      6.0703                 6.0742                 6.1616
 IR Inten    --      7.2110                38.2406                13.4879

                     82                     83                     84
                      A                      A                      A
 Frequencies --   3091.2593              3100.7393              3106.8723
 Red. masses --      1.0947                 1.1021                 1.1014
 Frc consts  --      6.1635                 6.2429                 6.2636
 IR Inten    --     53.1073                20.9466                67.2521

                     85                     86                     87
                      A                      A                      A
 Frequencies --   3119.4741              3120.4642              3125.8536
 Red. masses --      1.1009                 1.0992                 1.1013
 Frc consts  --      6.3121                 6.3061                 6.3401
 IR Inten    --     20.7890                10.2889                62.8024

                     88                     89                     90
                      A                      A                      A
 Frequencies --   3153.7558              3171.2085              3209.3605
 Red. masses --      1.1000                 1.0892                 1.0916
 Frc consts  --      6.4463                 6.4539                 6.6246
 IR Inten    --     29.2548                29.0579                13.5888

 - Thermochemistry -
 -------------------
 Temperature   298.150 Kelvin.  Pressure   1.00000 Atm.
 Atom     1 has atomic number  6 and mass  12.00000

 Molecular mass:   168.15142 amu.
 Principal axes and moments of inertia in atomic units:
                           1         2         3
     Eigenvalues --  1487.211463584.329264227.61121
           X            0.99992  -0.00798   0.00934
           Y            0.00802   0.99996  -0.00448
           Z           -0.00931   0.00455   0.99995
 This molecule is an asymmetric top.
 Rotational symmetry number  1.
 Warning -- assumption of classical behavior for rotation
           may cause significant error
 Rotational temperatures (Kelvin)      0.05824     0.02416     0.02049
 Rotational constants (GHZ):           1.21351     0.50351     0.42689
 Zero-point vibrational energy     758846.9 (Joules/Mol)
                                  181.36876 (Kcal/Mol)
 Warning -- explicit consideration of  22 degrees of freedom as
           vibrations may cause significant error
 Vibrational temperatures:     31.83    49.75    71.27    97.53   105.37
          (Kelvin)            116.40   134.52   163.26   227.72   264.32
                              288.37   340.18   341.95   406.42   473.97
                              502.13   534.54   578.24   634.87   686.70
                              748.99   837.95  1019.10  1091.97  1124.72
                             1126.24  1235.24  1271.45  1298.71  1327.06
                             1357.36  1374.51  1431.84  1474.44  1505.69
                             1526.17  1539.80  1565.14  1593.19  1702.59
                             1716.40  1718.90  1730.07  1754.13  1771.29
                             1814.59  1863.01  1914.47  1915.92  1970.50
                             1994.14  2019.99  2040.70  2061.48  2076.36
                             2085.09  2153.50  2163.29  2164.63  2171.64
                             2184.20  2187.24  2191.15  2191.66  2206.71
                             2207.83  2212.72  2227.07  2427.55  2499.73
                             4313.33  4329.47  4344.19  4354.86  4365.50
                             4375.04  4380.19  4401.13  4405.58  4422.07
                             4435.77  4447.63  4461.27  4470.10  4488.23
                             4489.65  4497.41  4537.55  4562.66  4617.55

 Zero-point correction=                           0.289030 (Hartree/Particle)
 Thermal correction to Energy=                    0.304928
 Thermal correction to Enthalpy=                  0.305872
 Thermal correction to Gibbs Free Energy=         0.243772
 Sum of electronic and zero-point Energies=           -506.166566
 Sum of electronic and thermal Energies=              -506.150667
 Sum of electronic and thermal Enthalpies=            -506.149723
 Sum of electronic and thermal Free Energies=         -506.211823

                     E (Thermal)             CV                S
                      KCal/Mol        Cal/Mol-Kelvin    Cal/Mol-Kelvin
 Total                  191.345             55.193            130.699
 Electronic               0.000              0.000              0.000
 Translational            0.889              2.981             41.267
 Rotational               0.889              2.981             31.489
 Vibrational            189.568             49.232             57.943
 Vibration     1          0.593              1.985              6.434
 Vibration     2          0.594              1.983              5.548
 Vibration     3          0.595              1.978              4.836
 Vibration     4          0.598              1.970              4.217
 Vibration     5          0.599              1.967              4.064
 Vibration     6          0.600              1.962              3.869
 Vibration     7          0.603              1.954              3.586
 Vibration     8          0.607              1.938              3.209
 Vibration     9          0.621              1.893              2.570
 Vibration    10          0.631              1.862              2.290
 Vibration    11          0.638              1.839              2.129
 Vibration    12          0.655              1.785              1.830
 Vibration    13          0.656              1.783              1.820
 Vibration    14          0.682              1.706              1.519
 Vibration    15          0.712              1.617              1.263
 Vibration    16          0.726              1.577              1.171
 Vibration    17          0.743              1.531              1.074
 Vibration    18          0.768              1.466              0.956
 Vibration    19          0.801              1.380              0.823
 Vibration    20          0.834              1.300              0.717
 Vibration    21          0.876              1.204              0.609
 Vibration    22          0.939              1.069              0.481

 Optimization completed on the basis of negligible forces.
    -- Stationary point found.
 Normal termination of Gaussian 16 at Wed Dec  9 17:24:39 2020.

 ----------------------------------------------------------------------
 # B3LYP/6-311++G(d,p) empiricaldispersion=gd3bj scf=xqc pop=npa geom=c
 heck
 ----------------------------------------------------------------------

 ---------------------------------------
 CID_141800226_JID_2319_Energie_neutraal
 ---------------------------------------
 Structure from the checkpoint file:  "JID_2319.chk"
 Charge =  0 Multiplicity = 1

 SCF Done:  E(RB3LYP) =  -506.599112454     A.U. after   15 cycles
 Normal termination of Gaussian 16 at Wed Dec  9 17:28:29 2020.

 ----------------------------------------------------------------------
 # B3LYP/6-311++G(d,p) empiricaldispersion=gd3bj scf=xqc pop=npa geom=c
 heck
 ----------------------------------------------------------------------

 -------------------------------------
 CID_141800226_JID_2319_Energie_kation
 -------------------------------------
 Structure from the checkpoint file:  "JID_2319.chk"
 Charge =  1 Multiplicity = 2

 SCF Done:  E(UB3LYP) =  -506.334892078     A.U. after   19 cycles
 Normal termination of Gaussian 16 at Wed Dec  9 17:35:24 2020.
 Gaussian 16:  ES64L-G16RevA.03 25-Dec-2016

 ----------------------------------------------------------------------
 # B3LYP/6-311++G(d,p) empiricaldispersion=gd3bj scf=xqc pop=npa geom=c
 heck
 ----------------------------------------------------------------------

 ------------------------------------
 CID_141800226_JID_2319_Energie_anion
 ------------------------------------
 Structure from the checkpoint file:  "JID_2319.chk"
 Charge = -1 Multiplicity = 2

                         Standard orientation:
 ---------------------------------------------------------------------
 Center     Atomic      Atomic             Coordinates (Angstroms)
 Number     Number       Type             X           Y           Z
 ---------------------------------------------------------------------
      1          6           0        3.524996   -0.799984    0.691663
      2          6           0        2.956644   -1.237185   -0.660443
      3          6           0        1.763243   -2.185446   -0.519831
      4          6           0        1.694716    2.456796   -0.063360
      5          6           0        0.537264    1.513065    0.071907
      6          6           0        0.154251    0.967471    1.241344
      7          6           0       -0.948503    0.014581    1.331565
      8          6           0       -1.788090   -0.159292    0.295045
      9          6           0       -1.637813    0.672417   -0.959828
     10          6           0       -0.172554    1.076098   -1.193396
     11          8           0       -2.781905   -1.099794    0.375287
     12          6           0       -4.061540   -0.721303   -0.116851
     13          1           0        2.758294   -0.286493    1.281770
     14          1           0        4.373696   -0.116716    0.570705
     15          1           0        3.871514   -1.665005    1.270726
     16          1           0        2.651538   -0.348626   -1.228857
     17          1           0        3.745120   -1.721398   -1.252599
     18          1           0        0.947764   -1.712472    0.038164
     19          1           0        1.371100   -2.486878   -1.498482
     20          1           0        2.049630   -3.097897    0.017953
     21          1           0        2.175717    2.645872    0.901469
     22          1           0        1.382064    3.422476   -0.485183
     23          1           0        2.456276    2.051642   -0.745567
     24          1           0        0.681668    1.221784    2.158369
     25          1           0       -1.104578   -0.548794    2.246073
     26          1           0       -2.263222    1.575323   -0.872767
     27          1           0       -2.005596    0.119411   -1.830682
     28          1           0        0.376202    0.219668   -1.616841
     29          1           0       -0.131393    1.866404   -1.952387
     30          1           0       -4.459366    0.141377    0.434740
     31          1           0       -4.043018   -0.482385   -1.187473
     32          1           0       -4.713858   -1.582246    0.041687
 ---------------------------------------------------------------------

 SCF Done:  E(UB3LYP) =  -506.584038357     A.U. after   33 cycles
 SCF Done:  E(UB3LYP) =  -506.584038357     a.u. after    1 cycles

 The electronic state is 2-A.
 Alpha  occ. eigenvalues --  -19.04194 -10.12090 -10.11325 -10.07232 -10.07085
 Alpha  occ. eigenvalues --  -10.07017 -10.06694 -10.06669 -10.06099 -10.05821
 Alpha  occ. eigenvalues --  -10.05429 -10.05427  -0.95604  -0.74057  -0.68191
 Alpha  occ. eigenvalues --   -0.66822  -0.64465  -0.60683  -0.58167  -0.56389
 Alpha  occ. eigenvalues --   -0.52432  -0.48634  -0.46601  -0.42017  -0.38613
 Alpha  occ. eigenvalues --   -0.37040  -0.36394  -0.36111  -0.34195  -0.33886
 Alpha  occ. eigenvalues --   -0.33273  -0.32356  -0.31100  -0.30019  -0.29753
 Alpha  occ. eigenvalues --   -0.28282  -0.27524  -0.26934  -0.25968  -0.24149
 Alpha  occ. eigenvalues --   -0.24087  -0.23540  -0.23203  -0.22665  -0.20306
 Alpha  occ. eigenvalues --   -0.17939  -0.09367   0.04509
 Alpha virt. eigenvalues --    0.06282   0.06941   0.07639   0.07844   0.08602
 Alpha virt. eigenvalues --    0.09317   0.09344   0.09789   0.10212   0.10937
 Alpha virt. eigenvalues --    0.11374   0.11594   0.12541   0.12874   0.13108

  Beta  occ. eigenvalues --  -19.04190 -10.12070 -10.11265 -10.07201 -10.07071
  Beta  occ. eigenvalues --  -10.06998 -10.06673 -10.06655 -10.06077 -10.05801
  Beta  occ. eigenvalues --  -10.05427 -10.05415  -0.95580  -0.74019  -0.68166
  Beta  occ. eigenvalues --   -0.66777  -0.64419  -0.60614  -0.58129  -0.56320
  Beta  occ. eigenvalues --   -0.52373  -0.48579  -0.46543  -0.41970  -0.38560
  Beta  occ. eigenvalues --   -0.36999  -0.36347  -0.36084  -0.34159  -0.33847
  Beta  occ. eigenvalues --   -0.33227  -0.32315  -0.31060  -0.29995  -0.29718
  Beta  occ. eigenvalues --   -0.28263  -0.27481  -0.26881  -0.25931  -0.24115
  Beta  occ. eigenvalues --   -0.24050  -0.23500  -0.23180  -0.22628  -0.20252
  Beta  occ. eigenvalues --   -0.17882  -0.09286
  Beta virt. eigenvalues --    0.06505   0.07201   0.07409   0.08042   0.08095
  Beta virt. eigenvalues --    0.09106   0.09677   0.09898   0.10096   0.10470
  Beta virt. eigenvalues --    0.11276   0.11762   0.12155   0.12735   0.13210

 Mulliken charges and spin densities:
               1          2
     1  C   -0.090231  -0.460712
     2  C   -0.173511   0.219800
     3  C   -0.116168  -0.496916
     4  C    1.301244  -1.812962
     5  C   -0.367961   1.298946
     6  C   -0.355266  -0.266577
     7  C   -0.617734   0.557688
     8  C   -0.225667   0.042683
     9  C    0.051614  -0.694224
    10  C    0.266699  -0.718848
    11  O   -0.174986   0.068655
    12  C    1.223259  -1.494488
    13  H   -0.004298   0.152854
    14  H   -0.127220   0.252215
    15  H   -0.013535   0.131013
    16  H    0.061280   0.025687
    17  H   -0.102907   0.255329
    18  H    0.562323  -0.300019
    19  H   -0.188290   0.315107
    20  H    0.082127   0.027820
    21  H   -0.119745   0.258715
    22  H    0.022474   0.124104
    23  H   -0.060779   0.208859
    24  H   -0.024019   0.167227
    25  H    0.006185   0.171644
    26  H    0.120847   0.049620
    27  H   -0.275136   0.450378
    28  H    0.231763  -0.055417
    29  H   -0.524443   0.714826
    30  H   -0.297741   0.436340
    31  H   -0.611611   0.758340
    32  H   -0.458567   0.612315
 Sum of Mulliken charges =  -1.00000   1.00000

 Dipole moment (field-independent basis, Debye):
    X=              4.0651    Y=              0.2663    Z=              2.8684  Tot=              4.9823
 Quadrupole moment (field-independent basis, Debye-Ang):
   XX=           -161.8569   YY=           -115.4601   ZZ=           -112.7030
   XY=             -5.1689   XZ=             -6.5965   YZ=             -0.1948

 Summary of Natural Population Analysis:

                                       Natural Population
                Natural  -----------------------------------------------
    Atom  No    Charge         Core      Valence    Rydberg      Total
 -----------------------------------------------------------------------
      C    1   -0.28505      0.99966     2.28088    0.00450     3.28505
      C    2   -0.19257      0.99966     2.18536    0.00755     3.19257
      C    3   -0.28788      0.99966     2.28358    0.00464     3.28788
      C    4   -0.29505      0.99962     2.28932    0.00611     3.29505
      C    5   -0.00269      0.99950     1.99225    0.01094     3.00269
      C    6   -0.11355      0.99945     2.10551    0.00859     3.11355
      C    7   -0.15377      0.99947     2.14469    0.00961     3.15377
      C    8    0.18412      0.99937     1.80134    0.01516     2.81588
      C    9   -0.21886      0.99959     2.21079    0.00849     3.21886
      C   10   -0.20076      0.99959     2.19106    0.01011     3.20076
      O   11   -0.28295      0.99986     3.27210    0.01099     4.28295
      C   12   -0.09817      0.99959     2.08956    0.00901     3.09817
      H   13    0.10107      0.00000     0.39749    0.00144     0.39893
      H   14    0.09639      0.00000     0.40239    0.00122     0.40361
      H   15    0.09141      0.00000     0.40750    0.00109     0.40859
      H   16    0.09368      0.00000     0.40449    0.00183     0.40632
      H   17    0.08846      0.00000     0.41040    0.00114     0.41154
      H   18    0.10514      0.00000     0.39335    0.00150     0.39486
      H   19    0.09772      0.00000     0.40118    0.00110     0.40228
      H   20    0.09151      0.00000     0.40752    0.00097     0.40849
      H   21    0.10088      0.00000     0.39818    0.00094     0.39912
      H   22    0.10033      0.00000     0.39852    0.00116     0.39967
      H   23    0.10213      0.00000     0.39645    0.00143     0.39787
      H   24    0.09560      0.00000     0.40313    0.00127     0.40440
      H   25    0.10274      0.00000     0.39584    0.00141     0.39726
      H   26    0.10374      0.00000     0.39462    0.00164     0.39626
      H   27    0.11018      0.00000     0.38795    0.00187     0.38982
      H   28    0.10305      0.00000     0.39481    0.00214     0.39695
      H   29    0.10266      0.00000     0.39605    0.00129     0.39734
      H   30    0.08228      0.00000     0.41593    0.00179     0.41772
      H   31    0.08604      0.00000     0.41137    0.00259     0.41396
      H   32    0.09217      0.00000     0.40623    0.00160     0.40783
 =======================================================================
   * Total *    0.00000     11.99502    34.86985    0.13513    47.00000

 Normal termination of Gaussian 16 at Wed Dec  9 17:49:14 2020.
