 Gaussian 16, Revision A.03,

 -----------------------------------------------------------
 # opt freq B3LYP/6-31G(d) empiricaldispersion=gd3bj scf=xqc
 -----------------------------------------------------------

 -------------------------------
 CID_139692221_JID_3266_neutraal
 -------------------------------
 Symbolic Z-matrix:
 Charge =  0 Multiplicity = 1

 SCF Done:  E(RB3LYP) =  -632.400278252     A.U. after   15 cycles
 SCF Done:  E(RB3LYP) =  -632.418736999     A.U. after   16 cycles
 SCF Done:  E(RB3LYP) =  -632.422378105     A.U. after   15 cycles
 SCF Done:  E(RB3LYP) =  -632.435917920     A.U. after   13 cycles
 SCF Done:  E(RB3LYP) =  -632.437976641     A.U. after   13 cycles
 SCF Done:  E(RB3LYP) =  -632.438013418     A.U. after   12 cycles
 SCF Done:  E(RB3LYP) =  -632.439242743     A.U. after   12 cycles
 SCF Done:  E(RB3LYP) =  -632.439777437     A.U. after   12 cycles
 SCF Done:  E(RB3LYP) =  -632.440074874     A.U. after   13 cycles
 SCF Done:  E(RB3LYP) =  -632.440122912     A.U. after   12 cycles
 SCF Done:  E(RB3LYP) =  -632.440425069     A.U. after   10 cycles
 SCF Done:  E(RB3LYP) =  -632.440425327     A.U. after    8 cycles
 SCF Done:  E(RB3LYP) =  -632.440425418     A.U. after    8 cycles
 SCF Done:  E(RB3LYP) =  -632.440425492     A.U. after    8 cycles
 SCF Done:  E(RB3LYP) =  -632.440425533     A.U. after    8 cycles
 Optimization completed.
    -- Stationary point found.
 Normal termination of Gaussian 16 at Wed Dec  9 22:45:45 2020.

 --------------------------------------------------------------------
 #N Geom=AllCheck Guess=TCheck SCRF=Check GenChk RB3LYP/6-31G(d) Freq
 --------------------------------------------------------------------

 Structure from the checkpoint file:  "JID_3266.chk"
 -------------------------------
 CID_139692221_JID_3266_neutraal
 -------------------------------
 Charge =  0 Multiplicity = 1

 SCF Done:  E(RB3LYP) =  -632.440425533     A.U. after    1 cycles

  Exact polarizability: 102.789  -3.373 103.920  -2.251  -1.050 103.727
 Approx polarizability: 128.331  -5.976 139.624  -2.659 -13.905 173.727

                      1                      2                      3
                      A                      A                      A
 Frequencies --      9.6295                35.3485                38.1420
 Red. masses --      4.0657                 5.5410                 3.8933
 Frc consts  --      0.0002                 0.0041                 0.0033
 IR Inten    --      2.1677                 2.6867                 1.2203

                      4                      5                      6
                      A                      A                      A
 Frequencies --     69.4549                78.9930                96.8471
 Red. masses --      4.0594                 5.6094                 4.9375
 Frc consts  --      0.0115                 0.0206                 0.0273
 IR Inten    --      4.1980                 0.1126                 2.8853

                      7                      8                      9
                      A                      A                      A
 Frequencies --    104.2659               135.1838               185.7769
 Red. masses --      3.2517                 2.4483                 3.1266
 Frc consts  --      0.0208                 0.0264                 0.0636
 IR Inten    --      5.6585                 6.1611                 5.0360

                     10                     11                     12
                      A                      A                      A
 Frequencies --    196.5831               245.5503               278.2835
 Red. masses --      1.8422                 2.2379                 2.2347
 Frc consts  --      0.0419                 0.0795                 0.1020
 IR Inten    --      1.9261                 3.1357                 4.1483

                     13                     14                     15
                      A                      A                      A
 Frequencies --    325.1015               352.2220               377.2147
 Red. masses --      2.4251                 3.3881                 2.9120
 Frc consts  --      0.1510                 0.2476                 0.2441
 IR Inten    --      5.7561                 1.9834                 3.4722

                     16                     17                     18
                      A                      A                      A
 Frequencies --    389.0065               405.6649               433.9646
 Red. masses --      2.4232                 3.6066                 2.4950
 Frc consts  --      0.2160                 0.3497                 0.2768
 IR Inten    --      0.3645                 6.5959                 9.1997

                     19                     20                     21
                      A                      A                      A
 Frequencies --    491.9612               582.2500               616.2338
 Red. masses --      2.1336                 3.2745                 4.1530
 Frc consts  --      0.3042                 0.6540                 0.9292
 IR Inten    --      8.0389                 6.3356                 4.4592

                     22                     23                     24
                      A                      A                      A
 Frequencies --    734.4555               769.6972               809.4925
 Red. masses --      2.1762                 2.5065                 1.9728
 Frc consts  --      0.6916                 0.8749                 0.7617
 IR Inten    --      7.1354                 0.7295                 6.5877

                     25                     26                     27
                      A                      A                      A
 Frequencies --    823.9111               859.1586               883.0874
 Red. masses --      2.9079                 2.6757                 2.6598
 Frc consts  --      1.1630                 1.1637                 1.2221
 IR Inten    --      2.5222                 8.3521                 3.4954

                     28                     29                     30
                      A                      A                      A
 Frequencies --    910.7306               926.7089               946.2263
 Red. masses --      1.5229                 2.9000                 2.2867
 Frc consts  --      0.7442                 1.4674                 1.2063
 IR Inten    --      6.8037                10.0636                24.2712

                     31                     32                     33
                      A                      A                      A
 Frequencies --   1016.0919              1030.9399              1051.8137
 Red. masses --      2.5228                 2.9062                 2.0874
 Frc consts  --      1.5346                 1.8199                 1.3606
 IR Inten    --      5.1269                10.2158                10.3617

                     34                     35                     36
                      A                      A                      A
 Frequencies --   1067.0074              1091.3769              1107.2830
 Red. masses --      2.4315                 2.1400                 2.1242
 Frc consts  --      1.6310                 1.5018                 1.5345
 IR Inten    --      2.9895                10.5318                46.8002

                     37                     38                     39
                      A                      A                      A
 Frequencies --   1119.0457              1126.8486              1161.7658
 Red. masses --      2.3641                 1.7415                 4.2050
 Frc consts  --      1.7443                 1.3029                 3.3439
 IR Inten    --      2.0011                18.1792               122.8267

                     40                     41                     42
                      A                      A                      A
 Frequencies --   1215.2799              1253.1368              1292.4530
 Red. masses --      2.0869                 1.1506                 1.3946
 Frc consts  --      1.8160                 1.0646                 1.3726
 IR Inten    --    186.5464                 2.0505                90.2246

                     43                     44                     45
                      A                      A                      A
 Frequencies --   1298.0881              1303.3151              1323.8848
 Red. masses --      1.2502                 1.3361                 1.3384
 Frc consts  --      1.2412                 1.3372                 1.3821
 IR Inten    --      8.3676                20.5698                21.8395

                     46                     47                     48
                      A                      A                      A
 Frequencies --   1364.1401              1376.0744              1380.9679
 Red. masses --      1.2127                 1.1940                 1.3718
 Frc consts  --      1.3296                 1.3321                 1.5414
 IR Inten    --     32.0226                 4.9308                29.9827

                     49                     50                     51
                      A                      A                      A
 Frequencies --   1391.2613              1407.8528              1428.5686
 Red. masses --      1.3815                 1.2553                 1.3393
 Frc consts  --      1.5755                 1.4659                 1.6104
 IR Inten    --     13.4007                35.0809                 4.5693

                     52                     53                     54
                      A                      A                      A
 Frequencies --   1444.8140              1448.3544              1485.2072
 Red. masses --      1.2877                 1.2546                 1.0984
 Frc consts  --      1.5838                 1.5507                 1.4275
 IR Inten    --      4.5536                 6.2265                 7.5394

                     55                     56                     57
                      A                      A                      A
 Frequencies --   1495.7151              1506.3695              1507.5995
 Red. masses --      1.0955                 1.0861                 1.1109
 Frc consts  --      1.4440                 1.4520                 1.4877
 IR Inten    --     11.7574                 1.2974                 7.4866

                     58                     59                     60
                      A                      A                      A
 Frequencies --   1521.7221              1524.7398              1528.7697
 Red. masses --      1.0637                 1.0781                 1.0646
 Frc consts  --      1.4513                 1.4767                 1.4660
 IR Inten    --      4.0070                 7.9864                 2.2500

                     61                     62                     63
                      A                      A                      A
 Frequencies --   1537.3776              1816.9158              2365.5280
 Red. masses --      1.0716                10.7150                12.5835
 Frc consts  --      1.4922                20.8408                41.4866
 IR Inten    --      6.4710               184.3020                 7.9283

                     64                     65                     66
                      A                      A                      A
 Frequencies --   3049.6585              3059.1466              3060.7666
 Red. masses --      1.0608                 1.0384                 1.0611
 Frc consts  --      5.8128                 5.7255                 5.8568
 IR Inten    --     23.9814                16.9875                 4.1508

                     67                     68                     69
                      A                      A                      A
 Frequencies --   3063.9386              3075.7780              3088.4277
 Red. masses --      1.0580                 1.0724                 1.0879
 Frc consts  --      5.8519                 5.9775                 6.1136
 IR Inten    --     22.1319                 4.9577                22.3667

                     70                     71                     72
                      A                      A                      A
 Frequencies --   3091.5380              3094.3430              3109.1819
 Red. masses --      1.0633                 1.0630                 1.1006
 Frc consts  --      5.9875                 5.9967                 6.2685
 IR Inten    --     31.8800                10.5261                 5.1092

                     73                     74                     75
                      A                      A                      A
 Frequencies --   3114.7413              3121.2901              3132.4147
 Red. masses --      1.1042                 1.1024                 1.1065
 Frc consts  --      6.3114                 6.3279                 6.3966
 IR Inten    --     34.3858                28.4083                18.3108

                     76                     77                     78
                      A                      A                      A
 Frequencies --   3138.8196              3153.0390              3158.3123
 Red. masses --      1.1004                 1.1030                 1.1071
 Frc consts  --      6.3872                 6.4609                 6.5066
 IR Inten    --     51.7861                13.1362                 6.6257

 - Thermochemistry -
 -------------------
 Temperature   298.150 Kelvin.  Pressure   1.00000 Atm.
 Atom     1 has atomic number  6 and mass  12.00000

 Molecular mass:   185.10519 amu.
 Principal axes and moments of inertia in atomic units:
                           1         2         3
     Eigenvalues --  1924.692273066.710543924.07526
           X            0.99798  -0.06190   0.01450
           Y            0.06135   0.99748   0.03551
           Z           -0.01666  -0.03455   0.99926
 This molecule is an asymmetric top.
 Rotational symmetry number  1.
 Warning -- assumption of classical behavior for rotation
           may cause significant error
 Rotational temperatures (Kelvin)      0.04500     0.02824     0.02207
 Rotational constants (GHZ):           0.93768     0.58849     0.45992
 Zero-point vibrational energy     625723.8 (Joules/Mol)
                                  149.55158 (Kcal/Mol)
 Warning -- explicit consideration of  21 degrees of freedom as
           vibrations may cause significant error
 Vibrational temperatures:     13.85    50.86    54.88    99.93   113.65
          (Kelvin)            139.34   150.02   194.50   267.29   282.84
                              353.29   400.39   467.75   506.77   542.73
                              559.69   583.66   624.38   707.82   837.73
                              886.62  1056.72  1107.42  1164.68  1185.42
                             1236.14  1270.57  1310.34  1333.33  1361.41
                             1461.93  1483.29  1513.33  1535.19  1570.25
                             1593.13  1610.06  1621.28  1671.52  1748.52
                             1802.98  1859.55  1867.66  1875.18  1904.78
                             1962.69  1979.86  1986.90  2001.71  2025.59
                             2055.39  2078.77  2083.86  2136.88  2152.00
                             2167.33  2169.10  2189.42  2193.76  2199.56
                             2211.94  2614.14  3403.47  4387.78  4401.43
                             4403.76  4408.32  4425.36  4443.56  4448.03
                             4452.07  4473.42  4481.42  4490.84  4506.85
                             4516.06  4536.52  4544.11

 Zero-point correction=                           0.238326 (Hartree/Particle)
 Thermal correction to Energy=                    0.253150
 Thermal correction to Enthalpy=                  0.254095
 Thermal correction to Gibbs Free Energy=         0.193249
 Sum of electronic and zero-point Energies=           -632.202100
 Sum of electronic and thermal Energies=              -632.187275
 Sum of electronic and thermal Enthalpies=            -632.186331
 Sum of electronic and thermal Free Energies=         -632.247177

                     E (Thermal)             CV                S
                      KCal/Mol        Cal/Mol-Kelvin    Cal/Mol-Kelvin
 Total                  158.854             51.472            128.061
 Electronic               0.000              0.000              0.000
 Translational            0.889              2.981             41.553
 Rotational               0.889              2.981             31.516
 Vibrational            157.077             45.510             54.991
 Vibration     1          0.593              1.987              8.086
 Vibration     2          0.594              1.982              5.504
 Vibration     3          0.594              1.982              5.353
 Vibration     4          0.598              1.969              4.169
 Vibration     5          0.600              1.963              3.916
 Vibration     6          0.603              1.951              3.517
 Vibration     7          0.605              1.946              3.373
 Vibration     8          0.613              1.918              2.871
 Vibration     9          0.632              1.859              2.270
 Vibration    10          0.636              1.845              2.165
 Vibration    11          0.660              1.770              1.762
 Vibration    12          0.679              1.714              1.544
 Vibration    13          0.709              1.625              1.284
 Vibration    14          0.729              1.571              1.156
 Vibration    15          0.748              1.519              1.050
 Vibration    16          0.757              1.494              1.004
 Vibration    17          0.771              1.458              0.942
 Vibration    18          0.795              1.396              0.846
 Vibration    19          0.848              1.268              0.679
 Vibration    20          0.939              1.070              0.481
 Vibration    21          0.976              0.998              0.423

 Optimization completed.
    -- Stationary point found.
 Normal termination of Gaussian 16 at Wed Dec  9 22:53:40 2020.

 ----------------------------------------------------------------------
 # B3LYP/6-311++G(d,p) empiricaldispersion=gd3bj scf=xqc pop=npa geom=c
 heck
 ----------------------------------------------------------------------

 ---------------------------------------
 CID_139692221_JID_3266_Energie_neutraal
 ---------------------------------------
 Structure from the checkpoint file:  "JID_3266.chk"
 Charge =  0 Multiplicity = 1

 SCF Done:  E(RB3LYP) =  -632.626719118     A.U. after   14 cycles
 Normal termination of Gaussian 16 at Wed Dec  9 22:57:17 2020.

 ----------------------------------------------------------------------
 # B3LYP/6-311++G(d,p) empiricaldispersion=gd3bj scf=xqc pop=npa geom=c
 heck
 ----------------------------------------------------------------------

 -------------------------------------
 CID_139692221_JID_3266_Energie_kation
 -------------------------------------
 Structure from the checkpoint file:  "JID_3266.chk"
 Charge =  1 Multiplicity = 2

 SCF Done:  E(UB3LYP) =  -632.279381938     A.U. after   23 cycles
 Normal termination of Gaussian 16 at Wed Dec  9 23:05:17 2020.
 Gaussian 16:  ES64L-G16RevA.03 25-Dec-2016

 ----------------------------------------------------------------------
 # B3LYP/6-311++G(d,p) empiricaldispersion=gd3bj scf=xqc pop=npa geom=c
 heck
 ----------------------------------------------------------------------

 ------------------------------------
 CID_139692221_JID_3266_Energie_anion
 ------------------------------------
 Structure from the checkpoint file:  "JID_3266.chk"
 Charge = -1 Multiplicity = 2

                         Standard orientation:
 ---------------------------------------------------------------------
 Center     Atomic      Atomic             Coordinates (Angstroms)
 Number     Number       Type             X           Y           Z
 ---------------------------------------------------------------------
      1          6           0       -1.180852    2.318940   -0.509070
      2          6           0       -2.274514    1.805164    0.430672
      3          6           0       -2.879863    0.452566   -0.003140
      4          6           0       -1.888445   -0.674142    0.182645
      5          8           0       -1.647575   -1.208185    1.245323
      6          8           0       -1.256757   -0.975401   -0.975811
      7          6           0       -0.289383   -2.049947   -0.962193
      8          6           0        1.153311   -1.555162   -0.866928
      9          8           0        1.668892   -1.508111    0.458381
     10          6           0        1.422147   -0.341054    1.214550
     11          6           0        2.579419    0.672758    1.101846
     12          6           0        2.658731    1.308136   -0.215063
     13          7           0        2.686108    1.805550   -1.263873
     14          1           0       -0.337355    1.626494   -0.584498
     15          1           0       -0.788742    3.281781   -0.164865
     16          1           0       -1.570818    2.459357   -1.523684
     17          1           0       -1.887016    1.700157    1.451967
     18          1           0       -3.087715    2.539027    0.480787
     19          1           0       -3.745834    0.221926    0.624674
     20          1           0       -3.201113    0.499898   -1.047848
     21          1           0       -0.508879   -2.733067   -0.139171
     22          1           0       -0.437849   -2.554578   -1.920619
     23          1           0        1.791938   -2.275745   -1.388798
     24          1           0        1.250542   -0.591482   -1.380364
     25          1           0        0.476592    0.135598    0.948924
     26          1           0        1.345893   -0.656068    2.259231
     27          1           0        2.452775    1.457519    1.858314
     28          1           0        3.525030    0.160343    1.310003
 ---------------------------------------------------------------------

 SCF Done:  E(UB3LYP) =  -632.614642456     A.U. after   33 cycles
 SCF Done:  E(UB3LYP) =  -632.614642456     a.u. after    1 cycles

 The electronic state is 2-A.
 Alpha  occ. eigenvalues --  -19.07772 -19.03885 -19.01824 -14.21657 -10.20718
 Alpha  occ. eigenvalues --  -10.13959 -10.13479 -10.13474 -10.11744 -10.11516
 Alpha  occ. eigenvalues --  -10.08539 -10.07748 -10.05940  -1.01578  -0.95223
 Alpha  occ. eigenvalues --   -0.92905  -0.81440  -0.71465  -0.70313  -0.67151
 Alpha  occ. eigenvalues --   -0.61765  -0.58463  -0.53488  -0.50424  -0.47295
 Alpha  occ. eigenvalues --   -0.43362  -0.42510  -0.40817  -0.40026  -0.39384
 Alpha  occ. eigenvalues --   -0.36830  -0.35864  -0.35242  -0.34004  -0.33206
 Alpha  occ. eigenvalues --   -0.32187  -0.30876  -0.30156  -0.28754  -0.27255
 Alpha  occ. eigenvalues --   -0.26992  -0.25423  -0.25011  -0.24638  -0.24457
 Alpha  occ. eigenvalues --   -0.23647  -0.22626  -0.21717  -0.18720  -0.17313
 Alpha  occ. eigenvalues --    0.04315
 Alpha virt. eigenvalues --    0.06190   0.06346   0.08552   0.08703   0.08938
 Alpha virt. eigenvalues --    0.09400   0.10001   0.10572   0.10628   0.11272
 Alpha virt. eigenvalues --    0.11526   0.12260   0.12759   0.12921   0.13675

  Beta  occ. eigenvalues --  -19.07758 -19.03881 -19.01805 -14.21642 -10.20697
  Beta  occ. eigenvalues --  -10.13946 -10.13463 -10.13456 -10.11739 -10.11460
  Beta  occ. eigenvalues --  -10.08523 -10.07717 -10.05918  -1.01546  -0.95212
  Beta  occ. eigenvalues --   -0.92873  -0.81406  -0.71419  -0.70254  -0.67106
  Beta  occ. eigenvalues --   -0.61714  -0.58409  -0.53425  -0.50346  -0.47256
  Beta  occ. eigenvalues --   -0.43302  -0.42467  -0.40762  -0.39974  -0.39341
  Beta  occ. eigenvalues --   -0.36781  -0.35809  -0.35197  -0.33960  -0.33146
  Beta  occ. eigenvalues --   -0.32138  -0.30839  -0.30106  -0.28722  -0.27227
  Beta  occ. eigenvalues --   -0.26966  -0.25382  -0.24961  -0.24586  -0.24419
  Beta  occ. eigenvalues --   -0.23612  -0.22580  -0.21660  -0.18694  -0.17288
  Beta virt. eigenvalues --    0.06530   0.07017   0.07549   0.08917   0.09184
  Beta virt. eigenvalues --    0.09449   0.09875   0.10316   0.10754   0.11100
  Beta virt. eigenvalues --    0.11505   0.11914   0.12563   0.13137   0.13196

 Mulliken charges and spin densities:
               1          2
     1  C    0.227068  -0.675706
     2  C   -0.586942   0.491335
     3  C    1.092735  -1.495341
     4  C   -0.648815   0.522540
     5  O   -0.197975   0.004888
     6  O    0.041052   0.008984
     7  C    0.348682  -0.578476
     8  C   -0.437395   0.101224
     9  O   -0.051797  -0.001706
    10  C   -0.634870   0.515820
    11  C    0.240065  -0.577632
    12  C    0.637501  -0.455385
    13  N   -0.361154   0.032803
    14  H    0.310530  -0.229740
    15  H   -0.136389   0.282639
    16  H   -0.014598   0.146984
    17  H   -0.256461   0.433541
    18  H   -0.693163   0.877505
    19  H   -0.055473   0.230500
    20  H   -0.151319   0.327105
    21  H    0.161911   0.064652
    22  H   -0.175819   0.328148
    23  H   -0.161121   0.324188
    24  H    0.152474   0.011529
    25  H    1.992617  -1.963478
    26  H   -0.596766   0.822081
    27  H   -0.633006   0.826228
    28  H   -0.411573   0.624772
 Sum of Mulliken charges =  -1.00000   1.00000

 Dipole moment (field-independent basis, Debye):
    X=             -1.0001    Y=             -4.3378    Z=             -3.0589  Tot=              5.4013
 Quadrupole moment (field-independent basis, Debye-Ang):
   XX=           -142.4571   YY=           -125.0763   ZZ=           -122.0867
   XY=              3.4790   XZ=             -2.7432   YZ=              0.8784

 Summary of Natural Population Analysis:

                                       Natural Population
                Natural  -----------------------------------------------
    Atom  No    Charge         Core      Valence    Rydberg      Total
 -----------------------------------------------------------------------
      C    1   -0.28643      0.99966     2.28054    0.00623     3.28643
      C    2   -0.18619      0.99964     2.17871    0.00784     3.18619
      C    3   -0.23348      0.99958     2.22481    0.00909     3.23348
      C    4    0.41029      0.99968     1.56365    0.02637     2.58971
      O    5   -0.30759      0.99987     3.30208    0.00564     4.30759
      O    6   -0.28337      0.99986     3.27486    0.00865     4.28337
      C    7   -0.03396      0.99955     2.02322    0.01120     3.03396
      C    8   -0.02483      0.99956     2.01367    0.01161     3.02483
      O    9   -0.30023      0.99988     3.29062    0.00972     4.30023
      C   10   -0.00231      0.99956     1.98849    0.01426     3.00231
      C   11   -0.26071      0.99954     2.25093    0.01024     3.26071
      C   12    0.16264      0.99966     1.82136    0.01635     2.83736
      N   13   -0.18900      0.99979     2.67822    0.01098     3.68900
      H   14    0.09755      0.00000     0.40088    0.00157     0.40245
      H   15    0.10189      0.00000     0.39701    0.00110     0.39811
      H   16    0.09645      0.00000     0.40246    0.00110     0.40355
      H   17    0.09899      0.00000     0.39939    0.00162     0.40101
      H   18    0.10043      0.00000     0.39704    0.00253     0.39957
      H   19    0.11177      0.00000     0.38709    0.00114     0.38823
      H   20    0.10666      0.00000     0.39191    0.00143     0.39334
      H   21    0.10404      0.00000     0.39455    0.00140     0.39596
      H   22    0.09287      0.00000     0.40595    0.00118     0.40713
      H   23    0.09294      0.00000     0.40581    0.00126     0.40706
      H   24    0.09461      0.00000     0.40366    0.00172     0.40539
      H   25    0.08722      0.00000     0.40947    0.00331     0.41278
      H   26    0.09834      0.00000     0.39979    0.00186     0.40166
      H   27    0.12795      0.00000     0.36727    0.00478     0.37205
      H   28    0.12346      0.00000     0.37395    0.00260     0.37654
 =======================================================================
   * Total *   -0.00000     12.99581    36.82740    0.17679    50.00000

 Normal termination of Gaussian 16 at Wed Dec  9 23:16:44 2020.
