 Gaussian 16, Revision A.03,

 -----------------------------------------------------------
 # opt freq B3LYP/6-31G(d) empiricaldispersion=gd3bj scf=xqc
 -----------------------------------------------------------

 ------------------------------
 CID_61642678_JID_9845_neutraal
 ------------------------------
 Symbolic Z-matrix:
 Charge =  0 Multiplicity = 1

 SCF Done:  E(RB3LYP) =  -842.235147054     A.U. after   15 cycles
 SCF Done:  E(RB3LYP) =  -842.243102521     A.U. after   13 cycles
 SCF Done:  E(RB3LYP) =  -842.241452814     A.U. after   13 cycles
 SCF Done:  E(RB3LYP) =  -842.243641023     A.U. after   12 cycles
 SCF Done:  E(RB3LYP) =  -842.245124901     A.U. after   13 cycles
 SCF Done:  E(RB3LYP) =  -842.245607043     A.U. after   12 cycles
 SCF Done:  E(RB3LYP) =  -842.245661578     A.U. after   11 cycles
 SCF Done:  E(RB3LYP) =  -842.245694064     A.U. after   12 cycles
 SCF Done:  E(RB3LYP) =  -842.245719931     A.U. after   10 cycles
 SCF Done:  E(RB3LYP) =  -842.245721775     A.U. after   10 cycles
 SCF Done:  E(RB3LYP) =  -842.245731128     A.U. after    9 cycles
 SCF Done:  E(RB3LYP) =  -842.245732239     A.U. after    8 cycles
 SCF Done:  E(RB3LYP) =  -842.245732791     A.U. after    8 cycles
 SCF Done:  E(RB3LYP) =  -842.245732985     A.U. after    7 cycles
 SCF Done:  E(RB3LYP) =  -842.245733065     A.U. after    6 cycles
 Optimization completed.
    -- Stationary point found.
 Normal termination of Gaussian 16 at Mon Dec 14 17:39:59 2020.

 --------------------------------------------------------------------
 #N Geom=AllCheck Guess=TCheck SCRF=Check GenChk RB3LYP/6-31G(d) Freq
 --------------------------------------------------------------------

 Structure from the checkpoint file:  "JID_9845.chk"
 ------------------------------
 CID_61642678_JID_9845_neutraal
 ------------------------------
 Charge =  0 Multiplicity = 1

 SCF Done:  E(RB3LYP) =  -842.245733065     A.U. after    1 cycles

  Exact polarizability: 177.799   0.787 159.963  -6.343  12.664 165.608
 Approx polarizability: 266.582   8.686 237.975  -3.767  25.448 254.677

                      1                      2                      3
                      A                      A                      A
 Frequencies --     19.3254                28.0820                53.8696
 Red. masses --      4.0520                 2.6704                 4.1751
 Frc consts  --      0.0009                 0.0012                 0.0071
 IR Inten    --      3.7849                 0.3874                 6.8318

                      4                      5                      6
                      A                      A                      A
 Frequencies --     62.1410                67.7832                81.8484
 Red. masses --      4.4792                 3.5665                 3.4362
 Frc consts  --      0.0102                 0.0097                 0.0136
 IR Inten    --      2.9311                 1.7666                 0.5144

                      7                      8                      9
                      A                      A                      A
 Frequencies --     93.0621                98.4949               113.5888
 Red. masses --      4.2697                 3.1252                 4.3235
 Frc consts  --      0.0218                 0.0179                 0.0329
 IR Inten    --      6.0323                 3.1253                 8.1162

                     10                     11                     12
                      A                      A                      A
 Frequencies --    153.7784               158.8128               178.9411
 Red. masses --      3.0764                 2.2624                 4.1589
 Frc consts  --      0.0429                 0.0336                 0.0785
 IR Inten    --      0.3813                 1.3156                 0.2993

                     13                     14                     15
                      A                      A                      A
 Frequencies --    195.4944               231.8867               250.4567
 Red. masses --      2.0178                 1.1519                 3.4983
 Frc consts  --      0.0454                 0.0365                 0.1293
 IR Inten    --      1.1112                31.3789                 0.7350

                     16                     17                     18
                      A                      A                      A
 Frequencies --    269.7954               274.7450               282.9874
 Red. masses --      1.1123                 1.7090                 2.8806
 Frc consts  --      0.0477                 0.0760                 0.1359
 IR Inten    --      4.1783                 5.6446                76.7551

                     19                     20                     21
                      A                      A                      A
 Frequencies --    292.9291               305.4542               336.9954
 Red. masses --      1.3972                 2.7172                 3.1697
 Frc consts  --      0.0706                 0.1494                 0.2121
 IR Inten    --    225.7769                 7.4923                 5.0293

                     22                     23                     24
                      A                      A                      A
 Frequencies --    364.0481               392.6980               400.7534
 Red. masses --      2.7825                 3.6804                 2.7339
 Frc consts  --      0.2173                 0.3344                 0.2587
 IR Inten    --      0.3009                 7.5682                 1.0185

                     25                     26                     27
                      A                      A                      A
 Frequencies --    425.9218               436.0548               464.9304
 Red. masses --      2.5668                 2.5258                 2.4348
 Frc consts  --      0.2744                 0.2830                 0.3101
 IR Inten    --      2.4528                 4.5115                 4.8626

                     28                     29                     30
                      A                      A                      A
 Frequencies --    475.6860               510.1145               545.0689
 Red. masses --      2.5761                 2.5318                 3.3860
 Frc consts  --      0.3434                 0.3882                 0.5927
 IR Inten    --      9.6681                 8.2029                10.2556

                     31                     32                     33
                      A                      A                      A
 Frequencies --    574.4235               596.2409               652.6612
 Red. masses --      2.9281                 1.3865                 4.8207
 Frc consts  --      0.5693                 0.2904                 1.2099
 IR Inten    --     13.2245                33.4245                11.4630

                     34                     35                     36
                      A                      A                      A
 Frequencies --    688.5598               753.7205               760.8430
 Red. masses --      6.8466                 1.7832                 1.9748
 Frc consts  --      1.9125                 0.5969                 0.6736
 IR Inten    --      0.1953                 7.8443                 1.3951

                     37                     38                     39
                      A                      A                      A
 Frequencies --    766.7904               804.7653               813.6189
 Red. masses --      3.6692                 1.3297                 1.5529
 Frc consts  --      1.2711                 0.5074                 0.6057
 IR Inten    --      7.8197                14.3982                 9.5944

                     40                     41                     42
                      A                      A                      A
 Frequencies --    863.1510               877.6966               880.5044
 Red. masses --      2.2088                 2.6717                 2.7887
 Frc consts  --      0.9696                 1.2126                 1.2739
 IR Inten    --     17.8903                54.1796                22.7472

                     43                     44                     45
                      A                      A                      A
 Frequencies --    889.6827               897.0477               908.6401
 Red. masses --      3.7600                 2.2674                 1.2573
 Frc consts  --      1.7535                 1.0750                 0.6116
 IR Inten    --      3.2262                 6.7385                 2.8022

                     46                     47                     48
                      A                      A                      A
 Frequencies --    918.3736               966.7693               970.8950
 Red. masses --      1.4298                 1.9844                 1.4934
 Frc consts  --      0.7105                 1.0927                 0.8294
 IR Inten    --     48.9439                 0.6942                 2.3033

                     49                     50                     51
                      A                      A                      A
 Frequencies --    980.7967               990.3626              1004.7917
 Red. masses --      1.4006                 1.6595                 1.4178
 Frc consts  --      0.7938                 0.9590                 0.8434
 IR Inten    --      2.9512                 5.4786                 1.2753

                     52                     53                     54
                      A                      A                      A
 Frequencies --   1007.9646              1020.3912              1049.4865
 Red. masses --      1.8532                 6.1363                 1.5783
 Frc consts  --      1.1093                 3.7644                 1.0242
 IR Inten    --      0.8442                 7.6766                 2.2870

                     55                     56                     57
                      A                      A                      A
 Frequencies --   1083.6099              1095.6488              1109.7873
 Red. masses --      2.4951                 2.5805                 2.5098
 Frc consts  --      1.7262                 1.8251                 1.8213
 IR Inten    --      6.2703                44.7069                22.4595

                     58                     59                     60
                      A                      A                      A
 Frequencies --   1111.3768              1113.1415              1133.8025
 Red. masses --      2.0055                 2.0386                 1.6280
 Frc consts  --      1.4595                 1.4883                 1.2330
 IR Inten    --     10.7723                 3.1261                 5.6712

                     61                     62                     63
                      A                      A                      A
 Frequencies --   1139.4511              1170.6705              1188.9223
 Red. masses --      1.9282                 2.0947                 1.8896
 Frc consts  --      1.4750                 1.6914                 1.5737
 IR Inten    --      8.1229                46.1443                10.6927

                     64                     65                     66
                      A                      A                      A
 Frequencies --   1199.2930              1220.7331              1244.4231
 Red. masses --      1.8297                 2.0779                 2.3919
 Frc consts  --      1.5505                 1.8244                 2.1823
 IR Inten    --      1.2747                12.7778                 5.6744

                     67                     68                     69
                      A                      A                      A
 Frequencies --   1264.0109              1272.9761              1298.5224
 Red. masses --      1.2534                 1.4928                 1.7439
 Frc consts  --      1.1798                 1.4253                 1.7325
 IR Inten    --      2.6505                 3.0308                 0.4259

                     70                     71                     72
                      A                      A                      A
 Frequencies --   1302.3099              1314.0628              1350.2876
 Red. masses --      2.3080                 1.6653                 1.5696
 Frc consts  --      2.3063                 1.6943                 1.6861
 IR Inten    --      4.7990                 9.9310                 7.8492

                     73                     74                     75
                      A                      A                      A
 Frequencies --   1363.7357              1370.7665              1376.7072
 Red. masses --      1.2612                 1.2813                 1.2369
 Frc consts  --      1.3819                 1.4185                 1.3812
 IR Inten    --     14.0152                 3.3840                 3.8654

                     76                     77                     78
                      A                      A                      A
 Frequencies --   1379.8862              1394.3414              1402.2901
 Red. masses --      1.3125                 1.4406                 1.6637
 Frc consts  --      1.4724                 1.6502                 1.9275
 IR Inten    --      5.3919                 4.1155                26.6001

                     79                     80                     81
                      A                      A                      A
 Frequencies --   1407.4329              1420.8258              1421.8994
 Red. masses --      1.4087                 1.3055                 1.3827
 Frc consts  --      1.6441                 1.5528                 1.6471
 IR Inten    --     25.3476                13.3703                 1.5380

                     82                     83                     84
                      A                      A                      A
 Frequencies --   1429.3467              1446.0458              1447.8723
 Red. masses --      1.3360                 1.2981                 1.3385
 Frc consts  --      1.6081                 1.5993                 1.6532
 IR Inten    --      2.8838                 5.7466                 3.2068

                     85                     86                     87
                      A                      A                      A
 Frequencies --   1464.4374              1505.1678              1517.4413
 Red. masses --      2.0145                 1.0929                 1.0579
 Frc consts  --      2.5454                 1.4588                 1.4352
 IR Inten    --     16.8088                 5.1885                 3.1282

                     88                     89                     90
                      A                      A                      A
 Frequencies --   1518.5332              1519.8174              1531.9916
 Red. masses --      1.0757                 1.0587                 1.0543
 Frc consts  --      1.4615                 1.4408                 1.4579
 IR Inten    --      1.2804                 2.1211                 6.3098

                     91                     92                     93
                      A                      A                      A
 Frequencies --   1535.8061              1537.6931              1541.0870
 Red. masses --      1.0787                 1.0576                 1.0972
 Frc consts  --      1.4990                 1.4734                 1.5353
 IR Inten    --      9.1797                 7.2682                 6.9306

                     94                     95                     96
                      A                      A                      A
 Frequencies --   1548.6818              1616.4415              1648.6815
 Red. masses --      2.0266                 6.4877                 1.2553
 Frc consts  --      2.8637                 9.9876                 2.0103
 IR Inten    --      5.3729                13.8039                73.6112

                     97                     98                     99
                      A                      A                      A
 Frequencies --   1656.6855              1694.9408              1784.5683
 Red. masses --      5.1861                 1.0899                 8.0498
 Frc consts  --      8.3864                 1.8447                15.1044
 IR Inten    --     53.8773                31.9654               252.4564

                    100                    101                    102
                      A                      A                      A
 Frequencies --   3010.9462              3023.9373              3036.1832
 Red. masses --      1.0586                 1.0656                 1.0407
 Frc consts  --      5.6542                 5.7409                 5.6525
 IR Inten    --     29.1076                41.1253                18.7231

                    103                    104                    105
                      A                      A                      A
 Frequencies --   3042.9737              3043.2262              3053.8086
 Red. masses --      1.0826                 1.0919                 1.0393
 Frc consts  --      5.9063                 5.9577                 5.7105
 IR Inten    --     10.2908                11.9553                16.8608

                    106                    107                    108
                      A                      A                      A
 Frequencies --   3055.6582              3059.1334              3061.6375
 Red. masses --      1.0759                 1.0820                 1.0726
 Frc consts  --      5.9187                 5.9661                 5.9238
 IR Inten    --     31.6575                27.7840                50.1968

                    109                    110                    111
                      A                      A                      A
 Frequencies --   3067.5876              3099.9161              3116.7921
 Red. masses --      1.0872                 1.1008                 1.1005
 Frc consts  --      6.0278                 6.2323                 6.2988
 IR Inten    --     41.1855                40.9465                21.8393

                    112                    113                    114
                      A                      A                      A
 Frequencies --   3120.1557              3123.3868              3128.8112
 Red. masses --      1.0989                 1.1000                 1.1010
 Frc consts  --      6.3031                 6.3225                 6.3503
 IR Inten    --     50.7193                50.5833                18.5823

                    115                    116                    117
                      A                      A                      A
 Frequencies --   3135.9367              3164.2929              3167.6725
 Red. masses --      1.0991                 1.0879                 1.0916
 Frc consts  --      6.3681                 6.4180                 6.4533
 IR Inten    --     25.0886                45.8527                20.9142

                    118                    119                    120
                      A                      A                      A
 Frequencies --   3224.8699              3237.8366              3450.3220
 Red. masses --      1.0928                 1.0917                 1.0499
 Frc consts  --      6.6960                 6.7434                 7.3640
 IR Inten    --      5.0203                 9.0658                 1.6930

                    121                    122                    123
                      A                      A                      A
 Frequencies --   3537.4953              3583.6920              3711.8843
 Red. masses --      1.0916                 1.0459                 1.1037
 Frc consts  --      8.0480                 7.9140                 8.9593
 IR Inten    --      0.3852                24.1230                26.2561

 - Thermochemistry -
 -------------------
 Temperature   298.150 Kelvin.  Pressure   1.00000 Atm.
 Atom     1 has atomic number  6 and mass  12.00000

 Molecular mass:   264.19501 amu.
 Principal axes and moments of inertia in atomic units:
                           1         2         3
     Eigenvalues --  4861.823115763.509925896.97960
           X            0.99378  -0.10515   0.03660
           Y            0.10525   0.99445  -0.00091
           Z           -0.03630   0.00476   0.99933
 This molecule is an asymmetric top.
 Rotational symmetry number  1.
 Warning -- assumption of classical behavior for rotation
           may cause significant error
 Rotational temperatures (Kelvin)      0.01782     0.01503     0.01469
 Rotational constants (GHZ):           0.37121     0.31313     0.30605
 Zero-point vibrational energy     996239.5 (Joules/Mol)
                                  238.10695 (Kcal/Mol)
 Warning -- explicit consideration of  32 degrees of freedom as
           vibrations may cause significant error
 Vibrational temperatures:     27.80    40.40    77.51    89.41    97.52
          (Kelvin)            117.76   133.90   141.71   163.43   221.25
                              228.50   257.46   281.27   333.63   360.35
                              388.18   395.30   407.16   421.46   439.48
                              484.86   523.78   565.00   576.59   612.81
                              627.39   668.93   684.41   733.94   784.23
                              826.47   857.86   939.03   990.68  1084.44
                             1094.68  1103.24  1157.88  1170.62  1241.88
                             1262.81  1266.85  1280.05  1290.65  1307.33
                             1321.33  1390.97  1396.90  1411.15  1424.91
                             1445.67  1450.24  1468.12  1509.98  1559.07
                             1576.39  1596.74  1599.02  1601.56  1631.29
                             1639.42  1684.33  1710.59  1725.52  1756.36
                             1790.45  1818.63  1831.53  1868.28  1873.73
                             1890.64  1942.76  1962.11  1972.23  1980.77
                             1985.35  2006.15  2017.58  2024.98  2044.25
                             2045.80  2056.51  2080.54  2083.17  2107.00
                             2165.60  2183.26  2184.83  2186.68  2204.19
                             2209.68  2212.40  2217.28  2228.21  2325.70
                             2372.08  2383.60  2438.64  2567.60  4332.08
                             4350.77  4368.39  4378.16  4378.52  4393.75
                             4396.41  4401.41  4405.01  4413.57  4460.09
                             4484.37  4489.21  4493.86  4501.66  4511.91
                             4552.71  4557.57  4639.87  4658.52  4964.24
                             5089.67  5156.13  5340.57

 Zero-point correction=                           0.379448 (Hartree/Particle)
 Thermal correction to Energy=                    0.400057
 Thermal correction to Enthalpy=                  0.401001
 Thermal correction to Gibbs Free Energy=         0.329117
 Sum of electronic and zero-point Energies=           -841.866285
 Sum of electronic and thermal Energies=              -841.845676
 Sum of electronic and thermal Enthalpies=            -841.844732
 Sum of electronic and thermal Free Energies=         -841.916616

                     E (Thermal)             CV                S
                      KCal/Mol        Cal/Mol-Kelvin    Cal/Mol-Kelvin
 Total                  251.039             77.032            151.293
 Electronic               0.000              0.000              0.000
 Translational            0.889              2.981             42.614
 Rotational               0.889              2.981             33.468
 Vibrational            249.262             71.070             75.211
 Vibration     1          0.593              1.986              6.702
 Vibration     2          0.593              1.984              5.961
 Vibration     3          0.596              1.976              4.670
 Vibration     4          0.597              1.972              4.388
 Vibration     5          0.598              1.970              4.217
 Vibration     6          0.600              1.962              3.846
 Vibration     7          0.602              1.954              3.595
 Vibration     8          0.604              1.950              3.484
 Vibration     9          0.607              1.938              3.207
 Vibration    10          0.619              1.898              2.625
 Vibration    11          0.621              1.893              2.564
 Vibration    12          0.629              1.868              2.339
 Vibration    13          0.636              1.846              2.175
 Vibration    14          0.653              1.792              1.864
 Vibration    15          0.663              1.762              1.727
 Vibration    16          0.674              1.729              1.598
 Vibration    17          0.677              1.720              1.566
 Vibration    18          0.682              1.705              1.516
 Vibration    19          0.688              1.687              1.457
 Vibration    20          0.696              1.663              1.387
 Vibration    21          0.718              1.602              1.226
 Vibration    22          0.738              1.546              1.105
 Vibration    23          0.760              1.486              0.990
 Vibration    24          0.767              1.468              0.960
 Vibration    25          0.788              1.414              0.872
 Vibration    26          0.797              1.392              0.839
 Vibration    27          0.822              1.328              0.752
 Vibration    28          0.832              1.304              0.722
 Vibration    29          0.865              1.228              0.633
 Vibration    30          0.900              1.150              0.554
 Vibration    31          0.931              1.087              0.496
 Vibration    32          0.954              1.040              0.456

                           ! Non-Optimized Parameters !
 Normal termination of Gaussian 16 at Mon Dec 14 18:08:01 2020.

 ----------------------------------------------------------------------
 # B3LYP/6-311++G(d,p) empiricaldispersion=gd3bj scf=xqc pop=npa geom=c
 heck
 ----------------------------------------------------------------------

 --------------------------------------
 CID_61642678_JID_9845_Energie_neutraal
 --------------------------------------
 Structure from the checkpoint file:  "JID_9845.chk"
 Charge =  0 Multiplicity = 1

 SCF Done:  E(RB3LYP) =  -842.492007361     A.U. after   16 cycles
 Normal termination of Gaussian 16 at Mon Dec 14 18:21:37 2020.

 ----------------------------------------------------------------------
 # B3LYP/6-311++G(d,p) empiricaldispersion=gd3bj scf=xqc pop=npa geom=c
 heck
 ----------------------------------------------------------------------

 ------------------------------------
 CID_61642678_JID_9845_Energie_kation
 ------------------------------------
 Structure from the checkpoint file:  "JID_9845.chk"
 Charge =  1 Multiplicity = 2

 SCF Done:  E(UB3LYP) =  -842.211450249     A.U. after   25 cycles
 Normal termination of Gaussian 16 at Mon Dec 14 18:51:55 2020.
 Gaussian 16:  ES64L-G16RevA.03 25-Dec-2016

 ----------------------------------------------------------------------
 # B3LYP/6-311++G(d,p) empiricaldispersion=gd3bj scf=xqc pop=npa geom=c
 heck
 ----------------------------------------------------------------------

 -----------------------------------
 CID_61642678_JID_9845_Energie_anion
 -----------------------------------
 Structure from the checkpoint file:  "JID_9845.chk"
 Charge = -1 Multiplicity = 2

                         Standard orientation:
 ---------------------------------------------------------------------
 Center     Atomic      Atomic             Coordinates (Angstroms)
 Number     Number       Type             X           Y           Z
 ---------------------------------------------------------------------
      1          6           0       -3.224917    1.438760   -1.552212
      2          6           0       -2.208942    1.231591   -2.682049
      3          6           0       -0.999185    0.374624   -2.281743
      4          6           0       -0.074498    1.077625   -1.283804
      5          7           0        1.086285    0.273181   -0.901543
      6          6           0        2.304285    1.037142   -0.644064
      7          6           0        2.304403    1.777818    0.698709
      8          8           0        2.767762    1.272282    1.716275
      9          7           0        1.702571    3.003883    0.703050
     10          6           0        0.879839   -0.885236    0.011750
     11          6           0       -0.353738   -0.737775    0.898359
     12          6           0       -0.310756    0.106787    2.014199
     13          6           0       -1.467840    0.308359    2.765688
     14          7           0       -2.646858   -0.265823    2.496748
     15          6           0       -2.673983   -1.096574    1.446975
     16          6           0       -1.574639   -1.365285    0.633655
     17          6           0        0.942707   -2.210269   -0.781795
     18          6           0        2.242023   -2.304960   -1.591213
     19          7           0        0.744920   -3.324027    0.155052
     20          1           0       -2.795118    1.983555   -0.705147
     21          1           0       -3.583109    0.477532   -1.166908
     22          1           0       -4.093556    2.006446   -1.903864
     23          1           0       -2.711935    0.750129   -3.530294
     24          1           0       -1.860856    2.207345   -3.051744
     25          1           0       -1.360115   -0.566377   -1.856532
     26          1           0       -0.406261    0.113707   -3.167087
     27          1           0        0.313135    1.977211   -1.780428
     28          1           0       -0.648690    1.423199   -0.411842
     29          1           0        3.157069    0.354385   -0.622722
     30          1           0        2.452366    1.736367   -1.475424
     31          1           0        1.184104    3.339705   -0.094357
     32          1           0        1.528927    3.441571    1.598096
     33          1           0        1.738750   -0.890627    0.693966
     34          1           0        0.616264    0.590164    2.302864
     35          1           0       -1.444018    0.965627    3.633818
     36          1           0       -3.629067   -1.579071    1.244740
     37          1           0       -1.672423   -2.077791   -0.175514
     38          1           0        0.104107   -2.233547   -1.489097
     39          1           0        3.114754   -2.291324   -0.924582
     40          1           0        2.269406   -3.243599   -2.157339
     41          1           0        2.330722   -1.474283   -2.296915
     42          1           0        0.852888   -4.207570   -0.341121
     43          1           0        1.483589   -3.307151    0.859355
 ---------------------------------------------------------------------

 SCF Done:  E(UB3LYP) =  -842.486672152     A.U. after   33 cycles
 SCF Done:  E(UB3LYP) =  -842.486672153     a.u. after    1 cycles

 The electronic state is 2-A.
 Alpha  occ. eigenvalues --  -18.99952 -14.23917 -14.21815 -14.20586 -14.20535
 Alpha  occ. eigenvalues --  -10.18013 -10.11511 -10.11076 -10.10986 -10.10443
 Alpha  occ. eigenvalues --  -10.10388 -10.09607 -10.09240 -10.07863 -10.07444
 Alpha  occ. eigenvalues --  -10.07291 -10.06823 -10.06801 -10.06284  -0.94800
 Alpha  occ. eigenvalues --   -0.84419  -0.83665  -0.81173  -0.79968  -0.71550
 Alpha  occ. eigenvalues --   -0.70186  -0.66004  -0.65768  -0.63970  -0.61489
 Alpha  occ. eigenvalues --   -0.57874  -0.53773  -0.53416  -0.51601  -0.49612
 Alpha  occ. eigenvalues --   -0.48699  -0.47341  -0.44390  -0.42507  -0.41586
 Alpha  occ. eigenvalues --   -0.39944  -0.38612  -0.37948  -0.37104  -0.36833
 Alpha  occ. eigenvalues --   -0.35685  -0.34780  -0.33681  -0.33495  -0.32728
 Alpha  occ. eigenvalues --   -0.32314  -0.31682  -0.31215  -0.31142  -0.29880
 Alpha  occ. eigenvalues --   -0.29154  -0.28508  -0.27836  -0.26876  -0.26592
 Alpha  occ. eigenvalues --   -0.25937  -0.24331  -0.23802  -0.23528  -0.23433
 Alpha  occ. eigenvalues --   -0.18616  -0.18425  -0.17937  -0.16653  -0.16098
 Alpha  occ. eigenvalues --   -0.15383  -0.11689   0.03762
 Alpha virt. eigenvalues --    0.05482   0.05928   0.06771   0.07236   0.07932
 Alpha virt. eigenvalues --    0.08294   0.08552   0.08719   0.09196   0.09686
 Alpha virt. eigenvalues --    0.09941   0.10473   0.11072   0.11353   0.11565

  Beta  occ. eigenvalues --  -18.99947 -14.23853 -14.21792 -14.20567 -14.20447
  Beta  occ. eigenvalues --  -10.18009 -10.11509 -10.11056 -10.10984 -10.10445
  Beta  occ. eigenvalues --  -10.10363 -10.09582 -10.09158 -10.07870 -10.07438
  Beta  occ. eigenvalues --  -10.07274 -10.06805 -10.06794 -10.06270  -0.94785
  Beta  occ. eigenvalues --   -0.84328  -0.83585  -0.81090  -0.79926  -0.71435
  Beta  occ. eigenvalues --   -0.70157  -0.65954  -0.65729  -0.63932  -0.61444
  Beta  occ. eigenvalues --   -0.57826  -0.53724  -0.53361  -0.51519  -0.49510
  Beta  occ. eigenvalues --   -0.48648  -0.47287  -0.44323  -0.42470  -0.41544
  Beta  occ. eigenvalues --   -0.39904  -0.38573  -0.37907  -0.37070  -0.36798
  Beta  occ. eigenvalues --   -0.35649  -0.34748  -0.33651  -0.33472  -0.32702
  Beta  occ. eigenvalues --   -0.32292  -0.31658  -0.31192  -0.31048  -0.29853
  Beta  occ. eigenvalues --   -0.28975  -0.28477  -0.27799  -0.26834  -0.26549
  Beta  occ. eigenvalues --   -0.25890  -0.24300  -0.23770  -0.23496  -0.23397
  Beta  occ. eigenvalues --   -0.18541  -0.18145  -0.17883  -0.16525  -0.16000
  Beta  occ. eigenvalues --   -0.15317  -0.11631
  Beta virt. eigenvalues --    0.05830   0.06421   0.06892   0.07156   0.07580
  Beta virt. eigenvalues --    0.07954   0.08465   0.08855   0.08987   0.09326
  Beta virt. eigenvalues --    0.09942   0.09980   0.10832   0.11222   0.11500

 Mulliken charges and spin densities:
               1          2
     1  C   -0.186657  -0.315718
     2  C    0.117608  -0.666292
     3  C    0.075919   0.130593
     4  C   -0.669556   0.183125
     5  N    0.358678   0.086948
     6  C    0.380315  -0.509326
     7  C    0.652011  -0.749932
     8  O   -0.283519   0.011220
     9  N   -0.315636   0.097862
    10  C    0.118061  -0.599735
    11  C    0.495988  -0.553601
    12  C    0.182505   0.102393
    13  C   -0.527643  -0.216437
    14  N   -0.067395   0.045872
    15  C   -0.737996   0.081053
    16  C    0.013814   0.526723
    17  C   -1.586290   0.884277
    18  C    0.692818  -1.168410
    19  N   -0.255393   0.034209
    20  H   -0.079799   0.236832
    21  H    0.077873   0.050871
    22  H    0.035256   0.108028
    23  H   -0.025868   0.188806
    24  H   -0.269414   0.393121
    25  H    0.119211  -0.083227
    26  H    0.049076   0.130069
    27  H    0.010835   0.148186
    28  H    0.556909  -0.461426
    29  H    0.339349  -0.174022
    30  H   -0.504060   0.713754
    31  H   -0.411074   0.693520
    32  H   -0.062852   0.351078
    33  H    0.186596   0.000937
    34  H    0.146067   0.055408
    35  H    0.104531   0.064907
    36  H    0.145180   0.008492
    37  H    0.113370   0.069001
    38  H   -0.032011   0.237377
    39  H    0.061566   0.097808
    40  H   -0.271224   0.411217
    41  H    0.049202   0.113727
    42  H    0.028405   0.210131
    43  H    0.175243   0.030580
 Sum of Mulliken charges =  -1.00000   1.00000

 Dipole moment (field-independent basis, Debye):
    X=             -0.7791    Y=             -4.6825    Z=              0.3214  Tot=              4.7577
 Quadrupole moment (field-independent basis, Debye-Ang):
   XX=           -167.9452   YY=           -179.6757   ZZ=           -166.1116
   XY=             -3.0576   XZ=              5.0616   YZ=              4.9727

 Summary of Natural Population Analysis:

                                       Natural Population
                Natural  -----------------------------------------------
    Atom  No    Charge         Core      Valence    Rydberg      Total
 -----------------------------------------------------------------------
      C    1   -0.28712      0.99966     2.28158    0.00588     3.28712
      C    2   -0.18916      0.99964     2.18205    0.00747     3.18916
      C    3   -0.19380      0.99961     2.18474    0.00945     3.19380
      C    4   -0.08916      0.99958     2.07527    0.01431     3.08916
      N    5   -0.28139      0.99971     2.76519    0.01648     3.78139
      C    6   -0.11760      0.99956     2.10645    0.01159     3.11760
      C    7    0.32823      0.99969     1.64870    0.02338     2.67177
      O    8   -0.33052      0.99988     3.32473    0.00591     4.33052
      N    9   -0.39644      0.99970     2.88828    0.00846     3.89644
      C   10   -0.02102      0.99952     2.00500    0.01650     3.02102
      C   11    0.04066      0.99950     1.95121    0.00863     2.95934
      C   12   -0.13199      0.99953     2.12039    0.01208     3.13199
      C   13    0.02099      0.99959     1.96208    0.01733     2.97901
      N   14   -0.22702      0.99972     2.71653    0.01077     3.72702
      C   15    0.02231      0.99961     1.96178    0.01630     2.97769
      C   16   -0.11131      0.99953     2.10467    0.00711     3.11131
      C   17   -0.01961      0.99959     2.00660    0.01342     3.01961
      C   18   -0.29182      0.99964     2.28628    0.00590     3.29182
      N   19   -0.42159      0.99977     2.91036    0.01146     3.92159
      H   20    0.09999      0.00000     0.39882    0.00120     0.40001
      H   21    0.09709      0.00000     0.40190    0.00102     0.40291
      H   22    0.09558      0.00000     0.40369    0.00072     0.40442
      H   23    0.09339      0.00000     0.40567    0.00094     0.40661
      H   24    0.09525      0.00000     0.40349    0.00126     0.40475
      H   25    0.09482      0.00000     0.40293    0.00225     0.40518
      H   26    0.09728      0.00000     0.40127    0.00145     0.40272
      H   27    0.09595      0.00000     0.40153    0.00252     0.40405
      H   28    0.08913      0.00000     0.40747    0.00340     0.41087
      H   29    0.10370      0.00000     0.39518    0.00112     0.39630
      H   30    0.10437      0.00000     0.39414    0.00149     0.39563
      H   31    0.20139      0.00000     0.29005    0.00855     0.29861
      H   32    0.19586      0.00000     0.30175    0.00239     0.30414
      H   33    0.10757      0.00000     0.39012    0.00231     0.39243
      H   34    0.11458      0.00000     0.38334    0.00208     0.38542
      H   35    0.08810      0.00000     0.41062    0.00128     0.41190
      H   36    0.08634      0.00000     0.41240    0.00126     0.41366
      H   37    0.10345      0.00000     0.39414    0.00241     0.39655
      H   38    0.08924      0.00000     0.40841    0.00235     0.41076
      H   39    0.09372      0.00000     0.40517    0.00111     0.40628
      H   40    0.09699      0.00000     0.40195    0.00106     0.40301
      H   41    0.10843      0.00000     0.39037    0.00120     0.39157
      H   42    0.17449      0.00000     0.32395    0.00156     0.32551
      H   43    0.17076      0.00000     0.32764    0.00160     0.32924
 =======================================================================
   * Total *    0.00012     18.99304    52.73792    0.26892    71.99988

 Normal termination of Gaussian 16 at Mon Dec 14 19:32:22 2020.
