 Gaussian 16, Revision A.03,

 -----------------------------------------------------------
 # opt freq B3LYP/6-31G(d) empiricaldispersion=gd3bj scf=xqc
 -----------------------------------------------------------

 -------------------------------
 CID_104000620_JID_7329_neutraal
 -------------------------------
 Symbolic Z-matrix:
 Charge =  0 Multiplicity = 1

 SCF Done:  E(RB3LYP) =  -1522.34085918     A.U. after   15 cycles
 SCF Done:  E(RB3LYP) =  -1522.34739616     A.U. after   13 cycles
 SCF Done:  E(RB3LYP) =  -1522.34770204     A.U. after   12 cycles
 SCF Done:  E(RB3LYP) =  -1522.34856934     A.U. after   12 cycles
 SCF Done:  E(RB3LYP) =  -1522.34847379     A.U. after   12 cycles
 SCF Done:  E(RB3LYP) =  -1522.34872047     A.U. after   12 cycles
 SCF Done:  E(RB3LYP) =  -1522.34882346     A.U. after   11 cycles
 SCF Done:  E(RB3LYP) =  -1522.34887884     A.U. after   11 cycles
 SCF Done:  E(RB3LYP) =  -1522.34891326     A.U. after   11 cycles
 SCF Done:  E(RB3LYP) =  -1522.34894870     A.U. after   11 cycles
 SCF Done:  E(RB3LYP) =  -1522.34913244     A.U. after    9 cycles
 SCF Done:  E(RB3LYP) =  -1522.34913423     A.U. after    9 cycles
 SCF Done:  E(RB3LYP) =  -1522.34913506     A.U. after    8 cycles
 SCF Done:  E(RB3LYP) =  -1522.34913563     A.U. after    8 cycles
 Optimization completed.
    -- Stationary point found.
 Normal termination of Gaussian 16 at Fri Dec 11 12:15:28 2020.

 --------------------------------------------------------------------
 #N Geom=AllCheck Guess=TCheck SCRF=Check GenChk RB3LYP/6-31G(d) Freq
 --------------------------------------------------------------------

 Structure from the checkpoint file:  "JID_7329.chk"
 -------------------------------
 CID_104000620_JID_7329_neutraal
 -------------------------------
 Charge =  0 Multiplicity = 1

 SCF Done:  E(RB3LYP) =  -1522.34913563     A.U. after    1 cycles

  Exact polarizability: 187.181  -0.895 141.898  -7.173   7.467 126.373
 Approx polarizability: 239.394  -9.203 227.798 -15.376  15.551 201.461

                      1                      2                      3
                      A                      A                      A
 Frequencies --     22.2297                35.7351                45.7922
 Red. masses --      5.7200                 7.2881                 5.3590
 Frc consts  --      0.0017                 0.0055                 0.0066
 IR Inten    --      0.8390                 1.8949                 0.1037

                      4                      5                      6
                      A                      A                      A
 Frequencies --     53.5869                83.4774                93.4231
 Red. masses --      7.0301                 5.4398                 5.8856
 Frc consts  --      0.0119                 0.0223                 0.0303
 IR Inten    --      0.3787                 0.7853                 5.5539

                      7                      8                      9
                      A                      A                      A
 Frequencies --    122.9328               131.4923               167.7233
 Red. masses --      8.0765                 7.0034                 3.4697
 Frc consts  --      0.0719                 0.0713                 0.0575
 IR Inten    --      2.2384                 1.7681                 3.4072

                     10                     11                     12
                      A                      A                      A
 Frequencies --    193.3174               225.0088               247.2627
 Red. masses --      4.1865                 2.8641                 2.6786
 Frc consts  --      0.0922                 0.0854                 0.0965
 IR Inten    --      0.2664                 2.8373                 3.8739

                     13                     14                     15
                      A                      A                      A
 Frequencies --    272.8672               323.9298               348.9210
 Red. masses --      3.4138                 5.2710                 3.0233
 Frc consts  --      0.1498                 0.3259                 0.2169
 IR Inten    --      5.6692                 5.7288                 0.3647

                     16                     17                     18
                      A                      A                      A
 Frequencies --    378.2072               389.7502               413.5067
 Red. masses --      4.0847                 4.3572                 2.7420
 Frc consts  --      0.3442                 0.3900                 0.2762
 IR Inten    --      6.2237                 1.4484                 1.0493

                     19                     20                     21
                      A                      A                      A
 Frequencies --    448.7252               462.6506               492.0775
 Red. masses --      4.3065                 3.0869                 3.5170
 Frc consts  --      0.5109                 0.3893                 0.5018
 IR Inten    --      2.0730                 2.0981                12.6395

                     22                     23                     24
                      A                      A                      A
 Frequencies --    570.3343               576.1357               600.8170
 Red. masses --      3.2111                 2.5976                 2.4223
 Frc consts  --      0.6154                 0.5080                 0.5152
 IR Inten    --     16.6638                49.5697                68.2616

                     25                     26                     27
                      A                      A                      A
 Frequencies --    648.3322               653.4368               687.0307
 Red. masses --      2.5240                 4.2662                 3.6322
 Frc consts  --      0.6251                 1.0732                 1.0101
 IR Inten    --     58.7554                 6.4780                 2.5409

                     28                     29                     30
                      A                      A                      A
 Frequencies --    692.2196               706.5018               724.0766
 Red. masses --      3.5476                 3.4846                 3.1295
 Frc consts  --      1.0016                 1.0248                 0.9667
 IR Inten    --      6.8421                 1.1257                 9.1102

                     31                     32                     33
                      A                      A                      A
 Frequencies --    752.8079               759.1420               800.4231
 Red. masses --      3.2312                 4.7906                 1.6191
 Frc consts  --      1.0789                 1.6266                 0.6112
 IR Inten    --     25.4280                25.9597                 0.3362

                     34                     35                     36
                      A                      A                      A
 Frequencies --    815.0004               829.7493               857.5035
 Red. masses --      4.9431                 2.5973                 2.7918
 Frc consts  --      1.9345                 1.0536                 1.2095
 IR Inten    --     35.1763                 7.8545                12.7325

                     37                     38                     39
                      A                      A                      A
 Frequencies --    899.1794               941.0095               959.3918
 Red. masses --      4.6183                 2.2468                 1.6063
 Frc consts  --      2.2000                 1.1722                 0.8711
 IR Inten    --      6.5437                 1.9230                 3.0139

                     40                     41                     42
                      A                      A                      A
 Frequencies --    968.9224               971.6670               984.1414
 Red. masses --      1.4204                 1.9065                 1.6436
 Frc consts  --      0.7857                 1.0605                 0.9379
 IR Inten    --      4.0323                11.0093                14.1451

                     43                     44                     45
                      A                      A                      A
 Frequencies --   1003.0311              1022.2635              1044.5252
 Red. masses --      2.2650                 2.0695                 2.1414
 Frc consts  --      1.3426                 1.2742                 1.3765
 IR Inten    --      7.2480                 8.4347                 4.9951

                     46                     47                     48
                      A                      A                      A
 Frequencies --   1102.2931              1114.9631              1137.5025
 Red. masses --      1.9432                 1.5329                 2.3796
 Frc consts  --      1.3911                 1.1227                 1.8141
 IR Inten    --      9.8595                 3.5943                17.1759

                     49                     50                     51
                      A                      A                      A
 Frequencies --   1152.6744              1168.2876              1193.7098
 Red. masses --      1.5133                 1.5784                 1.2461
 Frc consts  --      1.1847                 1.2693                 1.0461
 IR Inten    --     55.3028                14.0785                19.4954

                     52                     53                     54
                      A                      A                      A
 Frequencies --   1205.0622              1215.3912              1224.9005
 Red. masses --      1.8161                 1.2587                 1.4426
 Frc consts  --      1.5539                 1.0955                 1.2753
 IR Inten    --     44.2918                91.1476                43.2946

                     55                     56                     57
                      A                      A                      A
 Frequencies --   1240.9582              1269.4072              1285.3699
 Red. masses --      1.7263                 1.7857                 1.2882
 Frc consts  --      1.5663                 1.6954                 1.2540
 IR Inten    --     33.4041                 3.9930                29.9129

                     58                     59                     60
                      A                      A                      A
 Frequencies --   1310.8523              1321.6862              1341.5059
 Red. masses --      1.4018                 1.2835                 1.2779
 Frc consts  --      1.4192                 1.3210                 1.3550
 IR Inten    --     24.7877                29.7329                17.1746

                     61                     62                     63
                      A                      A                      A
 Frequencies --   1354.6268              1360.9804              1378.9326
 Red. masses --      1.2984                 1.4750                 1.4479
 Frc consts  --      1.4038                 1.6097                 1.6221
 IR Inten    --      8.5954                51.8551                 4.5864

                     64                     65                     66
                      A                      A                      A
 Frequencies --   1381.2158              1393.6030              1401.3126
 Red. masses --      1.4669                 2.1724                 1.5618
 Frc consts  --      1.6488                 2.4858                 1.8069
 IR Inten    --     36.2755                82.3617                53.2061

                     67                     68                     69
                      A                      A                      A
 Frequencies --   1407.0020              1426.3046              1492.0606
 Red. masses --      1.6518                 2.8675                 1.3017
 Frc consts  --      1.9267                 3.4369                 1.7074
 IR Inten    --    176.6581               388.1902                 1.8047

                     70                     71                     72
                      A                      A                      A
 Frequencies --   1493.9590              1505.5448              1508.6022
 Red. masses --      1.0865                 1.0915                 1.1069
 Frc consts  --      1.4288                 1.4577                 1.4843
 IR Inten    --      2.0686                 6.9281                 4.4791

                     73                     74                     75
                      A                      A                      A
 Frequencies --   1514.3454              1519.9755              1546.4493
 Red. masses --      1.0909                 1.1219                 1.0895
 Frc consts  --      1.4739                 1.5271                 1.5352
 IR Inten    --      3.8617                 7.2990                 2.0254

                     76                     77                     78
                      A                      A                      A
 Frequencies --   1777.4282              1852.4734              3046.8126
 Red. masses --      7.9421                10.1346                 1.0615
 Frc consts  --     14.7832                20.4910                 5.8060
 IR Inten    --    369.9490               274.2220                19.5761

                     79                     80                     81
                      A                      A                      A
 Frequencies --   3049.6803              3051.3443              3064.0294
 Red. masses --      1.0660                 1.0626                 1.0652
 Frc consts  --      5.8414                 5.8291                 5.8923
 IR Inten    --     37.1746                12.3427                14.1357

                     82                     83                     84
                      A                      A                      A
 Frequencies --   3088.4127              3094.4863              3098.3683
 Red. masses --      1.0598                 1.1017                 1.1013
 Frc consts  --      5.9557                 6.2159                 6.2291
 IR Inten    --     24.9067                15.3328                41.6530

                     85                     86                     87
                      A                      A                      A
 Frequencies --   3100.7519              3117.0235              3121.7005
 Red. masses --      1.0614                 1.0861                 1.0974
 Frc consts  --      6.0128                 6.2174                 6.3010
 IR Inten    --     18.2321                21.7935                14.2014

                     88                     89                     90
                      A                      A                      A
 Frequencies --   3125.2173              3130.8904              3150.0237
 Red. masses --      1.1019                 1.0848                 1.1057
 Frc consts  --      6.3409                 6.2654                 6.4640
 IR Inten    --     13.4053                 2.8140                17.6650

                     91                     92                     93
                      A                      A                      A
 Frequencies --   3169.1653              3573.5299              3690.6793
 Red. masses --      1.1064                 1.0740                 1.0642
 Frc consts  --      6.5473                 8.0804                 8.5402
 IR Inten    --      1.9154                16.3146                62.7921

 - Thermochemistry -
 -------------------
 Temperature   298.150 Kelvin.  Pressure   1.00000 Atm.
 Atom     1 has atomic number  6 and mass  12.00000

 Molecular mass:   276.06024 amu.
 Principal axes and moments of inertia in atomic units:
                           1         2         3
     Eigenvalues --  2115.270859550.71751**********
           X            1.00000   0.00012  -0.00121
           Y           -0.00010   0.99990   0.01418
           Z            0.00121  -0.01418   0.99990
 This molecule is an asymmetric top.
 Rotational symmetry number  1.
 Warning -- assumption of classical behavior for rotation
           may cause significant error
 Rotational temperatures (Kelvin)      0.04095     0.00907     0.00830
 Rotational constants (GHZ):           0.85320     0.18896     0.17298
 Zero-point vibrational energy     709934.4 (Joules/Mol)
                                  169.67838 (Kcal/Mol)
 Warning -- explicit consideration of  24 degrees of freedom as
           vibrations may cause significant error
 Vibrational temperatures:     31.98    51.41    65.88    77.10   120.11
          (Kelvin)            134.41   176.87   189.19   241.32   278.14
                              323.74   355.76   392.60   466.06   502.02
                              544.16   560.76   594.94   645.62   665.65
                              707.99   820.58   828.93   864.44   932.81
                              940.15   988.48   995.95  1016.50  1041.78
                             1083.12  1092.24  1151.63  1172.60  1193.82
                             1233.76  1293.72  1353.90  1380.35  1394.06
                             1398.01  1415.96  1443.14  1470.81  1502.84
                             1585.95  1604.18  1636.61  1658.44  1680.91
                             1717.48  1733.82  1748.68  1762.36  1785.46
                             1826.39  1849.36  1886.02  1901.61  1930.13
                             1949.01  1958.15  1983.98  1987.26  2005.08
                             2016.18  2024.36  2052.13  2146.74  2149.47
                             2166.14  2170.54  2178.81  2186.91  2225.00
                             2557.32  2665.30  4383.68  4387.81  4390.20
                             4408.45  4443.54  4452.28  4457.86  4461.29
                             4484.70  4491.43  4496.49  4504.65  4532.18
                             4559.72  5141.51  5310.06

 Zero-point correction=                           0.270400 (Hartree/Particle)
 Thermal correction to Energy=                    0.287049
 Thermal correction to Enthalpy=                  0.287993
 Thermal correction to Gibbs Free Energy=         0.223668
 Sum of electronic and zero-point Energies=          -1522.078736
 Sum of electronic and thermal Energies=             -1522.062087
 Sum of electronic and thermal Enthalpies=           -1522.061142
 Sum of electronic and thermal Free Energies=        -1522.125467

                     E (Thermal)             CV                S
                      KCal/Mol        Cal/Mol-Kelvin    Cal/Mol-Kelvin
 Total                  180.126             62.594            135.383
 Electronic               0.000              0.000              0.000
 Translational            0.889              2.981             42.745
 Rotational               0.889              2.981             33.710
 Vibrational            178.349             56.632             58.928
 Vibration     1          0.593              1.985              6.424
 Vibration     2          0.594              1.982              5.483
 Vibration     3          0.595              1.979              4.991
 Vibration     4          0.596              1.976              4.680
 Vibration     5          0.600              1.961              3.807
 Vibration     6          0.602              1.954              3.587
 Vibration     7          0.610              1.930              3.054
 Vibration     8          0.612              1.922              2.924
 Vibration     9          0.624              1.882              2.461
 Vibration    10          0.635              1.849              2.196
 Vibration    11          0.650              1.803              1.918
 Vibration    12          0.661              1.767              1.750
 Vibration    13          0.676              1.723              1.578
 Vibration    14          0.708              1.628              1.290
 Vibration    15          0.726              1.577              1.171
 Vibration    16          0.748              1.517              1.046
 Vibration    17          0.758              1.492              1.001
 Vibration    18          0.777              1.441              0.914
 Vibration    19          0.808              1.364              0.800
 Vibration    20          0.820              1.333              0.758
 Vibration    21          0.848              1.268              0.678
 Vibration    22          0.926              1.095              0.504
 Vibration    23          0.933              1.083              0.493
 Vibration    24          0.959              1.030              0.448

 Optimization completed.
    -- Stationary point found.
 Normal termination of Gaussian 16 at Fri Dec 11 12:29:53 2020.

 ----------------------------------------------------------------------
 # B3LYP/6-311++G(d,p) empiricaldispersion=gd3bj scf=xqc pop=npa geom=c
 heck
 ----------------------------------------------------------------------

 ---------------------------------------
 CID_104000620_JID_7329_Energie_neutraal
 ---------------------------------------
 Structure from the checkpoint file:  "JID_7329.chk"
 Charge =  0 Multiplicity = 1

 SCF Done:  E(RB3LYP) =  -1522.62079054     A.U. after   14 cycles
 Normal termination of Gaussian 16 at Fri Dec 11 12:36:46 2020.

 ----------------------------------------------------------------------
 # B3LYP/6-311++G(d,p) empiricaldispersion=gd3bj scf=xqc pop=npa geom=c
 heck
 ----------------------------------------------------------------------

 -------------------------------------
 CID_104000620_JID_7329_Energie_kation
 -------------------------------------
 Structure from the checkpoint file:  "JID_7329.chk"
 Charge =  1 Multiplicity = 2

 SCF Done:  E(UB3LYP) =  -1522.32405111     A.U. after   33 cycles
 SCF Done:  E(UB3LYP) =  -1522.32405111     a.u. after    2 cycles
 Normal termination of Gaussian 16 at Fri Dec 11 13:20:13 2020.
 Gaussian 16:  ES64L-G16RevA.03 25-Dec-2016

 ----------------------------------------------------------------------
 # B3LYP/6-311++G(d,p) empiricaldispersion=gd3bj scf=xqc pop=npa geom=c
 heck
 ----------------------------------------------------------------------

 ------------------------------------
 CID_104000620_JID_7329_Energie_anion
 ------------------------------------
 Structure from the checkpoint file:  "JID_7329.chk"
 Charge = -1 Multiplicity = 2

                         Standard orientation:
 ---------------------------------------------------------------------
 Center     Atomic      Atomic             Coordinates (Angstroms)
 Number     Number       Type             X           Y           Z
 ---------------------------------------------------------------------
      1          6           0       -2.650990   -0.278522   -1.472245
      2          6           0       -3.769656   -1.088449   -0.813187
      3         16           0       -4.856538   -0.062696    0.250377
      4          6           0       -3.549260    0.701655    1.287516
      5          6           0       -2.469456    1.392922    0.454658
      6          6           0       -1.714038    0.427350   -0.471669
      7          7           0       -0.942705   -0.553053    0.320439
      8          6           0        0.326341   -0.975738   -0.056221
      9          8           0        0.639290   -2.159485   -0.106558
     10          7           0        1.237531    0.035178   -0.353764
     11          6           0        1.237377    1.307187    0.380258
     12         16           0        2.823970    2.153603   -0.047508
     13          6           0        3.294777    0.830700   -1.234574
     14          6           0        2.567732   -0.417117   -0.732215
     15          6           0        3.369326   -1.091944    0.385043
     16          8           0        4.409566   -1.675194    0.185205
     17          8           0        2.828639   -0.929234    1.610172
     18          1           0       -3.100825    0.481394   -2.121760
     19          1           0       -2.050081   -0.943307   -2.106157
     20          1           0       -4.422722   -1.524691   -1.574038
     21          1           0       -3.369791   -1.924961   -0.226399
     22          1           0       -3.106345   -0.058361    1.941503
     23          1           0       -4.065142    1.422058    1.928320
     24          1           0       -1.747608    1.865863    1.131802
     25          1           0       -2.930533    2.181962   -0.150968
     26          1           0       -0.990466    0.996537   -1.058631
     27          1           0       -1.479232   -1.375697    0.572769
     28          1           0        0.400047    1.936629    0.080162
     29          1           0        1.203347    1.145292    1.461199
     30          1           0        4.377455    0.698049   -1.226392
     31          1           0        2.962470    1.084445   -2.243794
     32          1           0        2.482022   -1.160774   -1.526954
     33          1           0        3.421842   -1.390801    2.231992
 ---------------------------------------------------------------------

 SCF Done:  E(UB3LYP) =  -1522.61301778     A.U. after   33 cycles
 SCF Done:  E(UB3LYP) =  -1522.61301778     a.u. after    1 cycles

 The electronic state is 2-A.
 Alpha  occ. eigenvalues --  -88.75685 -88.75095 -19.08505 -19.02731 -19.00065
 Alpha  occ. eigenvalues --  -14.25789 -14.24041 -10.21715 -10.20877 -10.14596
 Alpha  occ. eigenvalues --  -10.14210 -10.12739 -10.12081 -10.11677 -10.11246
 Alpha  occ. eigenvalues --  -10.08835 -10.08568  -7.84310  -7.83720  -5.80723
 Alpha  occ. eigenvalues --   -5.80368  -5.80101  -5.79769  -5.79628  -5.79083
 Alpha  occ. eigenvalues --   -1.02616  -0.96704  -0.93638  -0.86719  -0.83735
 Alpha  occ. eigenvalues --   -0.74586  -0.71423  -0.68014  -0.67680  -0.66254
 Alpha  occ. eigenvalues --   -0.58875  -0.54809  -0.54220  -0.54177  -0.52325
 Alpha  occ. eigenvalues --   -0.49271  -0.48019  -0.44223  -0.42797  -0.40708
 Alpha  occ. eigenvalues --   -0.39589  -0.38294  -0.38093  -0.37613  -0.36728
 Alpha  occ. eigenvalues --   -0.35673  -0.34712  -0.33969  -0.33205  -0.32392
 Alpha  occ. eigenvalues --   -0.31492  -0.31367  -0.30873  -0.29881  -0.28941
 Alpha  occ. eigenvalues --   -0.28615  -0.27773  -0.27015  -0.24778  -0.23835
 Alpha  occ. eigenvalues --   -0.23727  -0.21820  -0.21176  -0.19371  -0.16488
 Alpha  occ. eigenvalues --   -0.16466  -0.14078  -0.13974   0.03950
 Alpha virt. eigenvalues --    0.06015   0.06228   0.06715   0.07314   0.08352
 Alpha virt. eigenvalues --    0.08466   0.08862   0.09501   0.09923   0.10215
 Alpha virt. eigenvalues --    0.10452   0.10658   0.11061   0.12042   0.12145

  Beta  occ. eigenvalues --  -88.75682 -88.75092 -19.08471 -19.02697 -19.00062
  Beta  occ. eigenvalues --  -14.25783 -14.24034 -10.21673 -10.20873 -10.14577
  Beta  occ. eigenvalues --  -10.14202 -10.12727 -10.12040 -10.11667 -10.11229
  Beta  occ. eigenvalues --  -10.08808 -10.08543  -7.84307  -7.83717  -5.80719
  Beta  occ. eigenvalues --   -5.80363  -5.80099  -5.79766  -5.79628  -5.79078
  Beta  occ. eigenvalues --   -1.02545  -0.96693  -0.93573  -0.86700  -0.83716
  Beta  occ. eigenvalues --   -0.74556  -0.71385  -0.67967  -0.67642  -0.66217
  Beta  occ. eigenvalues --   -0.58796  -0.54760  -0.54172  -0.54129  -0.52277
  Beta  occ. eigenvalues --   -0.49208  -0.47973  -0.44184  -0.42740  -0.40648
  Beta  occ. eigenvalues --   -0.39550  -0.38256  -0.38004  -0.37567  -0.36675
  Beta  occ. eigenvalues --   -0.35638  -0.34677  -0.33906  -0.33177  -0.32358
  Beta  occ. eigenvalues --   -0.31451  -0.31328  -0.30816  -0.29839  -0.28903
  Beta  occ. eigenvalues --   -0.28580  -0.27733  -0.26969  -0.24723  -0.23787
  Beta  occ. eigenvalues --   -0.23617  -0.21796  -0.21141  -0.19355  -0.16475
  Beta  occ. eigenvalues --   -0.16431  -0.14056  -0.13954
  Beta virt. eigenvalues --    0.06137   0.06764   0.06853   0.07140   0.07650
  Beta virt. eigenvalues --    0.08591   0.08711   0.09351   0.09901   0.10144
  Beta virt. eigenvalues --    0.10424   0.10668   0.10799   0.11304   0.12142

 Mulliken charges and spin densities:
               1          2
     1  C    0.163379  -0.814216
     2  C   -0.434172   0.006574
     3  S    0.249501  -0.292758
     4  C   -0.018385  -0.474173
     5  C   -0.037146  -0.210866
     6  C    0.147789  -0.037233
     7  N   -0.091432   0.043591
     8  C    0.369200  -0.414789
     9  O   -0.286673  -0.000831
    10  N    0.326200  -0.000219
    11  C   -0.206582  -0.418966
    12  S    0.133928  -0.103547
    13  C    0.487814  -1.044245
    14  C   -0.645813   0.668455
    15  C    0.312501  -0.488560
    16  O   -0.284985   0.020326
    17  O   -0.199112   0.012728
    18  H   -0.311764   0.465800
    19  H   -0.118909   0.329852
    20  H   -0.008472   0.229835
    21  H    0.070878   0.090371
    22  H    0.062711   0.127892
    23  H   -0.214059   0.457412
    24  H   -0.216396   0.365136
    25  H   -0.239841   0.392379
    26  H   -0.063981   0.359334
    27  H    0.381313  -0.078438
    28  H   -0.163559   0.342310
    29  H    0.152546   0.126960
    30  H    0.213738  -0.004822
    31  H   -0.465567   0.699178
    32  H   -0.132879   0.414677
    33  H    0.068229   0.230854
 Sum of Mulliken charges =  -1.00000   1.00000

 Dipole moment (field-independent basis, Debye):
    X=              0.1997    Y=             -0.9111    Z=              3.2673  Tot=              3.3978
 Quadrupole moment (field-independent basis, Debye-Ang):
   XX=           -198.0823   YY=           -161.1898   ZZ=           -154.6618
   XY=             13.2748   XZ=              3.2505   YZ=              1.2245

 Summary of Natural Population Analysis:

                                       Natural Population
                Natural  -----------------------------------------------
    Atom  No    Charge         Core      Valence    Rydberg      Total
 -----------------------------------------------------------------------
      C    1   -0.20082      0.99959     2.19001    0.01122     3.20082
      C    2   -0.25246      0.99959     2.24250    0.01037     3.25246
      S    3    0.08404      4.99964     2.89912    0.01720     7.91596
      C    4   -0.25130      0.99959     2.24059    0.01112     3.25130
      C    5   -0.19878      0.99959     2.18803    0.01116     3.19878
      C    6   -0.01490      0.99956     2.00034    0.01500     3.01490
      N    7   -0.34042      0.99967     2.83073    0.01002     3.84042
      C    8    0.42462      0.99966     1.55275    0.02298     2.57538
      O    9   -0.32741      0.99988     3.32247    0.00506     4.32741
      N   10   -0.28180      0.99964     2.76727    0.01490     3.78180
      C   11   -0.13511      0.99958     2.12298    0.01255     3.13511
      S   12    0.08278      4.99965     2.90072    0.01685     7.91722
      C   13   -0.23856      0.99958     2.22794    0.01104     3.23856
      C   14   -0.05491      0.99952     2.03909    0.01630     3.05491
      C   15    0.41711      0.99969     1.55750    0.02571     2.58289
      O   16   -0.30783      0.99987     3.30167    0.00629     4.30783
      O   17   -0.34035      0.99987     3.33376    0.00672     4.34035
      H   18    0.10726      0.00000     0.39087    0.00187     0.39274
      H   19    0.10743      0.00000     0.39116    0.00141     0.39257
      H   20    0.11060      0.00000     0.38846    0.00094     0.38940
      H   21    0.09404      0.00000     0.40437    0.00159     0.40596
      H   22    0.09838      0.00000     0.40007    0.00155     0.40162
      H   23    0.11049      0.00000     0.38828    0.00122     0.38951
      H   24    0.10470      0.00000     0.39366    0.00164     0.39530
      H   25    0.10503      0.00000     0.39304    0.00193     0.39497
      H   26    0.10939      0.00000     0.38678    0.00384     0.39061
      H   27    0.18973      0.00000     0.30736    0.00291     0.31027
      H   28    0.10230      0.00000     0.39535    0.00236     0.39770
      H   29    0.10161      0.00000     0.39632    0.00208     0.39839
      H   30    0.11353      0.00000     0.38531    0.00116     0.38647
      H   31    0.11085      0.00000     0.38632    0.00283     0.38915
      H   32    0.13024      0.00000     0.36809    0.00167     0.36976
      H   33    0.24054      0.00000     0.25485    0.00461     0.25946
 =======================================================================
   * Total *   -0.00000     24.99416    47.74776    0.25808    73.00000

 Normal termination of Gaussian 16 at Fri Dec 11 13:42:49 2020.
