 Gaussian 16, Revision A.03,

 -----------------------------------------------------------
 # opt freq B3LYP/6-31G(d) empiricaldispersion=gd3bj scf=xqc
 -----------------------------------------------------------

 --------------------------------
 CID_133339467_JID_10040_neutraal
 --------------------------------
 Symbolic Z-matrix:
 Charge =  0 Multiplicity = 1

 SCF Done:  E(RB3LYP) =  -1001.65194359     A.U. after   15 cycles
 SCF Done:  E(RB3LYP) =  -1001.66255285     A.U. after   14 cycles
 SCF Done:  E(RB3LYP) =  -1001.66477340     A.U. after   15 cycles
 SCF Done:  E(RB3LYP) =  -1001.66371462     A.U. after   15 cycles
 SCF Done:  E(RB3LYP) =  -1001.66809517     A.U. after   14 cycles
 SCF Done:  E(RB3LYP) =  -1001.67005506     A.U. after   16 cycles
 SCF Done:  E(RB3LYP) =  -1001.67155107     A.U. after   15 cycles
 SCF Done:  E(RB3LYP) =  -1001.67260592     A.U. after   13 cycles
 SCF Done:  E(RB3LYP) =  -1001.67320677     A.U. after   14 cycles
 SCF Done:  E(RB3LYP) =  -1001.67341437     A.U. after   13 cycles
 SCF Done:  E(RB3LYP) =  -1001.67567397     A.U. after    9 cycles
 SCF Done:  E(RB3LYP) =  -1001.67567421     A.U. after    9 cycles
 SCF Done:  E(RB3LYP) =  -1001.67567433     A.U. after    9 cycles
 SCF Done:  E(RB3LYP) =  -1001.67567436     A.U. after    8 cycles
 SCF Done:  E(RB3LYP) =  -1001.67567436     A.U. after    7 cycles
 SCF Done:  E(RB3LYP) =  -1001.67567435     A.U. after    7 cycles
 Optimization completed.
    -- Stationary point found.
 Normal termination of Gaussian 16 at Sun Dec 13 16:55:29 2020.

 --------------------------------------------------------------------
 #N Geom=AllCheck Guess=TCheck SCRF=Check GenChk RB3LYP/6-31G(d) Freq
 --------------------------------------------------------------------

 Structure from the checkpoint file:  "JID_10040.chk"
 --------------------------------
 CID_133339467_JID_10040_neutraal
 --------------------------------
 Charge =  0 Multiplicity = 1

 SCF Done:  E(RB3LYP) =  -1001.67567435     A.U. after    1 cycles

  Exact polarizability: 198.287  26.528 148.955 -30.396  17.043 118.710
 Approx polarizability: 323.973  50.010 252.877 -81.895  41.467 212.981

                      1                      2                      3
                      A                      A                      A
 Frequencies --     16.6013                25.6906                33.9937
 Red. masses --      6.5429                 9.3038                 8.7871
 Frc consts  --      0.0011                 0.0036                 0.0060
 IR Inten    --      0.3412                 0.8706                 0.1311

                      4                      5                      6
                      A                      A                      A
 Frequencies --     57.5208                79.8551               101.4820
 Red. masses --      4.8202                 5.7174                 6.4252
 Frc consts  --      0.0094                 0.0215                 0.0390
 IR Inten    --      1.3313                 2.4584                 1.0407

                      7                      8                      9
                      A                      A                      A
 Frequencies --    110.5537               161.1567               187.0209
 Red. masses --      6.8558                 6.8094                 2.4116
 Frc consts  --      0.0494                 0.1042                 0.0497
 IR Inten    --      9.6571                 8.3404                 0.3315

                     10                     11                     12
                      A                      A                      A
 Frequencies --    202.1430               207.9631               229.0511
 Red. masses --      2.0492                 2.9695                 1.4891
 Frc consts  --      0.0493                 0.0757                 0.0460
 IR Inten    --      0.9971                17.0649                 2.7506

                     13                     14                     15
                      A                      A                      A
 Frequencies --    251.4154               269.5334               279.8576
 Red. masses --      3.3199                 4.2733                 6.5139
 Frc consts  --      0.1236                 0.1829                 0.3006
 IR Inten    --      1.8180                 4.4282                 1.2166

                     16                     17                     18
                      A                      A                      A
 Frequencies --    328.9814               336.4579               375.2522
 Red. masses --      5.7679                 4.3695                 7.0885
 Frc consts  --      0.3678                 0.2914                 0.5881
 IR Inten    --     11.7679                 2.6071                 8.3999

                     19                     20                     21
                      A                      A                      A
 Frequencies --    389.1596               444.3987               455.1831
 Red. masses --      5.0428                 1.4858                 2.9473
 Frc consts  --      0.4500                 0.1729                 0.3598
 IR Inten    --      7.5907               124.6192                42.5246

                     22                     23                     24
                      A                      A                      A
 Frequencies --    466.5177               528.7580               554.0932
 Red. masses --      2.6700                 5.2428                 5.7287
 Frc consts  --      0.3424                 0.8636                 1.0363
 IR Inten    --     12.9510                 6.3760                 9.9547

                     25                     26                     27
                      A                      A                      A
 Frequencies --    580.8181               588.7974               592.8972
 Red. masses --      3.2329                 4.1818                 4.0589
 Frc consts  --      0.6426                 0.8542                 0.8406
 IR Inten    --      3.1692                 4.4104                 3.0320

                     28                     29                     30
                      A                      A                      A
 Frequencies --    611.4982               626.6474               663.1102
 Red. masses --      5.0937                 4.9047                 4.6111
 Frc consts  --      1.1222                 1.1348                 1.1946
 IR Inten    --      5.4947                52.3204                26.9754

                     31                     32                     33
                      A                      A                      A
 Frequencies --    721.3805               742.2696               748.5450
 Red. masses --      2.0697                 5.0075                 5.9048
 Frc consts  --      0.6346                 1.6255                 1.9493
 IR Inten    --     73.4743                56.0412                19.7811

                     34                     35                     36
                      A                      A                      A
 Frequencies --    754.2057               762.7973               779.8289
 Red. masses --      5.4907                 3.6633                 4.6166
 Frc consts  --      1.8402                 1.2559                 1.6541
 IR Inten    --     15.8146                 4.0105                28.1860

                     37                     38                     39
                      A                      A                      A
 Frequencies --    792.8322               841.9400               861.3192
 Red. masses --      2.5823                 3.3200                 2.8632
 Frc consts  --      0.9564                 1.3866                 1.2515
 IR Inten    --     73.4165                16.0136                29.9169

                     40                     41                     42
                      A                      A                      A
 Frequencies --    867.6792               918.8592               974.6924
 Red. masses --      1.6429                 3.7866                 2.6119
 Frc consts  --      0.7288                 1.8836                 1.4620
 IR Inten    --     17.7518                 7.5799                 3.2707

                     43                     44                     45
                      A                      A                      A
 Frequencies --    982.8054              1014.3933              1020.7340
 Red. masses --      1.5744                 2.4112                 1.9661
 Frc consts  --      0.8960                 1.4618                 1.2069
 IR Inten    --      6.5971                 5.0351                 4.3091

                     46                     47                     48
                      A                      A                      A
 Frequencies --   1054.0623              1073.4779              1083.1380
 Red. masses --      1.5689                 1.5513                 2.1768
 Frc consts  --      1.0270                 1.0532                 1.5047
 IR Inten    --      6.3378                 5.7371                16.2205

                     49                     50                     51
                      A                      A                      A
 Frequencies --   1109.9795              1134.2912              1156.0144
 Red. masses --      2.7352                 5.0409                 4.7457
 Frc consts  --      1.9855                 3.8213                 3.7366
 IR Inten    --      3.4948                28.7092                48.3643

                     52                     53                     54
                      A                      A                      A
 Frequencies --   1193.4065              1210.8610              1222.4172
 Red. masses --      2.7085                 1.1789                 2.4022
 Frc consts  --      2.2727                 1.0184                 2.1149
 IR Inten    --     24.1722                 5.7156                23.9901

                     55                     56                     57
                      A                      A                      A
 Frequencies --   1225.7625              1284.1918              1310.8056
 Red. masses --      2.2545                 1.6125                 1.8954
 Frc consts  --      1.9958                 1.5668                 1.9188
 IR Inten    --     30.4131                 3.0170                88.7187

                     58                     59                     60
                      A                      A                      A
 Frequencies --   1313.2157              1336.7226              1354.2170
 Red. masses --      1.4430                 1.6764                 1.6641
 Frc consts  --      1.4662                 1.7649                 1.7981
 IR Inten    --     61.4151                55.9849                22.6110

                     61                     62                     63
                      A                      A                      A
 Frequencies --   1368.0948              1386.4818              1408.8334
 Red. masses --      3.7607                 4.3495                 1.6670
 Frc consts  --      4.1472                 4.9263                 1.9494
 IR Inten    --    125.0039               457.2477                27.2276

                     64                     65                     66
                      A                      A                      A
 Frequencies --   1414.2276              1432.2711              1441.6110
 Red. masses --      1.5161                 1.7739                 1.2203
 Frc consts  --      1.7865                 2.1440                 1.4943
 IR Inten    --     27.7382                 9.2084                 9.6226

                     67                     68                     69
                      A                      A                      A
 Frequencies --   1462.7086              1472.8184              1485.5769
 Red. masses --      3.7015                 2.3672                 1.8094
 Frc consts  --      4.6660                 3.0253                 2.3527
 IR Inten    --    154.0360                14.1276                 8.0741

                     70                     71                     72
                      A                      A                      A
 Frequencies --   1502.5556              1513.4631              1515.8692
 Red. masses --      1.0532                 1.2351                 1.1192
 Frc consts  --      1.4009                 1.6669                 1.5153
 IR Inten    --      6.1990                55.3501                21.5047

                     73                     74                     75
                      A                      A                      A
 Frequencies --   1521.5578              1533.7670              1569.0972
 Red. masses --      1.1406                 1.2310                 3.1137
 Frc consts  --      1.5558                 1.7062                 4.5168
 IR Inten    --     24.8144                27.9485                78.9055

                     76                     77                     78
                      A                      A                      A
 Frequencies --   1594.1492              1628.5525              1668.9434
 Red. masses --      3.8014                 8.4275                 6.6307
 Frc consts  --      5.6918                13.1690                10.8816
 IR Inten    --     96.4333               245.9023               322.5630

                     79                     80                     81
                      A                      A                      A
 Frequencies --   1820.8579              1876.2283              3067.9931
 Red. masses --     11.0941                11.1545                 1.0596
 Frc consts  --     21.6717                23.1352                 5.8765
 IR Inten    --    641.1388                59.7283                11.3746

                     82                     83                     84
                      A                      A                      A
 Frequencies --   3071.2984              3074.4570              3089.2889
 Red. masses --      1.0710                 1.0356                 1.0650
 Frc consts  --      5.9522                 5.7675                 5.9884
 IR Inten    --     32.2215                 9.7148                30.2991

                     85                     86                     87
                      A                      A                      A
 Frequencies --   3114.0281              3146.2662              3146.3437
 Red. masses --      1.1056                 1.1012                 1.0998
 Frc consts  --      6.3168                 6.4225                 6.4145
 IR Inten    --      8.4020                 8.9817                 0.6198

                     88                     89                     90
                      A                      A                      A
 Frequencies --   3151.4081              3168.2669              3218.5135
 Red. masses --      1.1029                 1.0971                 1.0904
 Frc consts  --      6.4537                 6.4886                 6.6548
 IR Inten    --     10.6326                10.4090                 9.3023

                     91                     92                     93
                      A                      A                      A
 Frequencies --   3225.9496              3577.5806              3650.4312
 Red. masses --      1.0911                 1.0755                 1.0787
 Frc consts  --      6.6904                 8.1107                 8.4690
 IR Inten    --      0.0868                63.8104                55.0764

 - Thermochemistry -
 -------------------
 Temperature   298.150 Kelvin.  Pressure   1.00000 Atm.
 Atom     1 has atomic number  6 and mass  12.00000

 Molecular mass:   279.09675 amu.
 Principal axes and moments of inertia in atomic units:
                           1         2         3
     Eigenvalues --  2871.831567068.896837603.92378
           X            0.99997  -0.00245  -0.00667
           Y            0.00281   0.99849   0.05495
           Z            0.00652  -0.05497   0.99847
 This molecule is an asymmetric top.
 Rotational symmetry number  1.
 Warning -- assumption of classical behavior for rotation
           may cause significant error
 Rotational temperatures (Kelvin)      0.03016     0.01225     0.01139
 Rotational constants (GHZ):           0.62843     0.25531     0.23734
 Zero-point vibrational energy     675428.0 (Joules/Mol)
                                  161.43117 (Kcal/Mol)
 Warning -- explicit consideration of  28 degrees of freedom as
           vibrations may cause significant error
 Vibrational temperatures:     23.89    36.96    48.91    82.76   114.89
          (Kelvin)            146.01   159.06   231.87   269.08   290.84
                              299.21   329.55   361.73   387.80   402.65
                              473.33   484.09   539.90   559.91   639.39
                              654.91   671.21   760.76   797.22   835.67
                              847.15   853.05   879.81   901.61   954.07
                             1037.91  1067.96  1076.99  1085.13  1097.50
                             1122.00  1140.71  1211.36  1239.25  1248.40
                             1322.03  1402.36  1414.04  1459.49  1468.61
                             1516.56  1544.50  1558.39  1597.01  1631.99
                             1663.25  1717.05  1742.16  1758.79  1763.60
                             1847.67  1885.96  1889.42  1923.25  1948.42
                             1968.38  1994.84  2027.00  2034.76  2060.72
                             2074.16  2104.51  2119.06  2137.41  2161.84
                             2177.54  2181.00  2189.18  2206.75  2257.58
                             2293.63  2343.12  2401.24  2619.81  2699.47
                             4414.16  4418.91  4423.46  4444.80  4480.39
                             4526.78  4526.89  4534.17  4558.43  4630.72
                             4641.42  5147.34  5252.16

 Zero-point correction=                           0.257257 (Hartree/Particle)
 Thermal correction to Energy=                    0.274919
 Thermal correction to Enthalpy=                  0.275863
 Thermal correction to Gibbs Free Energy=         0.209357
 Sum of electronic and zero-point Energies=          -1001.418417
 Sum of electronic and thermal Energies=             -1001.400756
 Sum of electronic and thermal Enthalpies=           -1001.399811
 Sum of electronic and thermal Free Energies=        -1001.466317

                     E (Thermal)             CV                S
                      KCal/Mol        Cal/Mol-Kelvin    Cal/Mol-Kelvin
 Total                  172.514             66.182            139.973
 Electronic               0.000              0.000              0.000
 Translational            0.889              2.981             42.777
 Rotational               0.889              2.981             33.401
 Vibrational            170.737             60.220             63.795
 Vibration     1          0.593              1.986              7.004
 Vibration     2          0.593              1.985              6.137
 Vibration     3          0.594              1.983              5.582
 Vibration     4          0.596              1.974              4.540
 Vibration     5          0.600              1.963              3.894
 Vibration     6          0.604              1.948              3.426
 Vibration     7          0.606              1.941              3.259
 Vibration     8          0.622              1.890              2.536
 Vibration     9          0.632              1.858              2.257
 Vibration    10          0.639              1.837              2.114
 Vibration    11          0.641              1.828              2.061
 Vibration    12          0.652              1.797              1.886
 Vibration    13          0.663              1.760              1.721
 Vibration    14          0.674              1.729              1.599
 Vibration    15          0.680              1.711              1.535
 Vibration    16          0.712              1.618              1.265
 Vibration    17          0.717              1.603              1.229
 Vibration    18          0.746              1.523              1.058
 Vibration    19          0.757              1.493              1.003
 Vibration    20          0.804              1.373              0.813
 Vibration    21          0.814              1.349              0.780
 Vibration    22          0.824              1.324              0.747
 Vibration    23          0.884              1.186              0.590
 Vibration    24          0.910              1.131              0.536
 Vibration    25          0.938              1.073              0.484
 Vibration    26          0.946              1.056              0.469
 Vibration    27          0.950              1.047              0.462
 Vibration    28          0.971              1.007              0.430

 Optimization completed.
    -- Stationary point found.
 Normal termination of Gaussian 16 at Sun Dec 13 17:13:41 2020.

 ----------------------------------------------------------------------
 # B3LYP/6-311++G(d,p) empiricaldispersion=gd3bj scf=xqc pop=npa geom=c
 heck
 ----------------------------------------------------------------------

 ----------------------------------------
 CID_133339467_JID_10040_Energie_neutraal
 ----------------------------------------
 Structure from the checkpoint file:  "JID_10040.chk"
 Charge =  0 Multiplicity = 1

 SCF Done:  E(RB3LYP) =  -1001.96364621     A.U. after   17 cycles
 Normal termination of Gaussian 16 at Sun Dec 13 17:20:10 2020.

 ----------------------------------------------------------------------
 # B3LYP/6-311++G(d,p) empiricaldispersion=gd3bj scf=xqc pop=npa geom=c
 heck
 ----------------------------------------------------------------------

 --------------------------------------
 CID_133339467_JID_10040_Energie_kation
 --------------------------------------
 Structure from the checkpoint file:  "JID_10040.chk"
 Charge =  1 Multiplicity = 2

 SCF Done:  E(UB3LYP) =  -1001.65390632     A.U. after   28 cycles
 Normal termination of Gaussian 16 at Sun Dec 13 17:34:41 2020.
 Gaussian 16:  ES64L-G16RevA.03 25-Dec-2016

 ----------------------------------------------------------------------
 # B3LYP/6-311++G(d,p) empiricaldispersion=gd3bj scf=xqc pop=npa geom=c
 heck
 ----------------------------------------------------------------------

 -------------------------------------
 CID_133339467_JID_10040_Energie_anion
 -------------------------------------
 Structure from the checkpoint file:  "JID_10040.chk"
 Charge = -1 Multiplicity = 2

                         Standard orientation:
 ---------------------------------------------------------------------
 Center     Atomic      Atomic             Coordinates (Angstroms)
 Number     Number       Type             X           Y           Z
 ---------------------------------------------------------------------
      1          6           0       -2.631781    1.874183    1.220825
      2          6           0       -1.844786    1.146888    0.166363
      3          6           0       -0.598118    1.635094   -0.200597
      4          6           0        0.200027    0.949054   -1.135748
      5          7           0       -0.222970   -0.170118   -1.765806
      6          6           0       -1.423851   -0.630658   -1.442068
      7          6           0       -2.255777   -0.039884   -0.484441
      8          7           0       -3.517072   -0.703361   -0.207031
      9          8           0       -3.699401   -1.821302   -0.700649
     10          8           0       -4.345727   -0.125525    0.502207
     11          7           0        1.465670    1.358617   -1.459691
     12          6           0        2.332657    2.043832   -0.516863
     13          6           0        2.473178    1.335043    0.865416
     14          7           0        2.226360   -0.092732    0.795663
     15          6           0        1.194496   -0.727771    1.469509
     16          8           0        0.447359   -0.228740    2.283251
     17          6           0        1.184897   -2.168575    0.959113
     18          7           0        2.341356   -2.200801    0.080222
     19          6           0        2.870910   -0.951585   -0.116949
     20          8           0        3.724158   -0.609892   -0.916262
     21          1           0       -2.859989    1.212015    2.060201
     22          1           0       -2.055774    2.727493    1.588920
     23          1           0       -3.591347    2.222974    0.832031
     24          1           0       -0.227718    2.538732    0.269101
     25          1           0       -1.762897   -1.528790   -1.947375
     26          1           0        1.945115    0.679516   -2.040435
     27          1           0        3.309845    2.105213   -0.994371
     28          1           0        1.983262    3.068832   -0.349580
     29          1           0        3.475636    1.521147    1.262437
     30          1           0        1.745179    1.710576    1.586653
     31          1           0        0.242307   -2.350963    0.429207
     32          1           0        1.263476   -2.870887    1.795058
     33          1           0        2.457279   -2.887155   -0.651078
 ---------------------------------------------------------------------

 SCF Done:  E(UB3LYP) =  -1001.99575535     A.U. after   25 cycles

 The electronic state is 2-A.
 Alpha  occ. eigenvalues --  -19.01911 -19.01835 -18.93873 -18.93869 -14.31802
 Alpha  occ. eigenvalues --  -14.27770 -14.26560 -14.20946 -14.17709 -10.22586
 Alpha  occ. eigenvalues --  -10.20042 -10.14047 -10.12932 -10.11886 -10.10433
 Alpha  occ. eigenvalues --  -10.06625 -10.06585 -10.06125 -10.04605 -10.04022
 Alpha  occ. eigenvalues --   -1.02001  -0.99364  -0.96258  -0.89493  -0.85594
 Alpha  occ. eigenvalues --   -0.84709  -0.83252  -0.78733  -0.69699  -0.67781
 Alpha  occ. eigenvalues --   -0.65186  -0.63681  -0.59268  -0.57925  -0.54655
 Alpha  occ. eigenvalues --   -0.52606  -0.49365  -0.49153  -0.45061  -0.43599
 Alpha  occ. eigenvalues --   -0.42237  -0.41689  -0.40277  -0.38784  -0.37283
 Alpha  occ. eigenvalues --   -0.36712  -0.36152  -0.35813  -0.34972  -0.34674
 Alpha  occ. eigenvalues --   -0.33972  -0.32909  -0.31927  -0.31212  -0.30863
 Alpha  occ. eigenvalues --   -0.29826  -0.29220  -0.28730  -0.27443  -0.27041
 Alpha  occ. eigenvalues --   -0.25640  -0.24663  -0.21140  -0.20243  -0.18788
 Alpha  occ. eigenvalues --   -0.18575  -0.18073  -0.14989  -0.14778  -0.13188
 Alpha  occ. eigenvalues --   -0.11588  -0.10034  -0.09399   0.03084
 Alpha virt. eigenvalues --    0.06653   0.06958   0.07358   0.08718   0.08849
 Alpha virt. eigenvalues --    0.09837   0.09923   0.10644   0.11756   0.12057
 Alpha virt. eigenvalues --    0.12411   0.12901   0.13691   0.13756   0.14251

  Beta  occ. eigenvalues --  -19.01888 -19.01809 -18.93449 -18.93327 -14.31142
  Beta  occ. eigenvalues --  -14.27769 -14.26559 -14.20885 -14.17829 -10.22564
  Beta  occ. eigenvalues --  -10.20002 -10.14048 -10.12923 -10.11882 -10.10138
  Beta  occ. eigenvalues --  -10.06451 -10.06401 -10.06109 -10.04692 -10.04033
  Beta  occ. eigenvalues --   -1.00922  -0.99320  -0.96210  -0.89464  -0.85420
  Beta  occ. eigenvalues --   -0.83794  -0.83206  -0.78645  -0.69467  -0.67710
  Beta  occ. eigenvalues --   -0.65102  -0.63311  -0.59031  -0.57893  -0.54566
  Beta  occ. eigenvalues --   -0.52117  -0.49197  -0.48938  -0.44636  -0.43561
  Beta  occ. eigenvalues --   -0.42156  -0.41625  -0.40164  -0.38699  -0.37164
  Beta  occ. eigenvalues --   -0.36512  -0.35781  -0.35672  -0.34784  -0.33925
  Beta  occ. eigenvalues --   -0.32803  -0.32175  -0.31660  -0.31098  -0.30231
  Beta  occ. eigenvalues --   -0.29650  -0.28711  -0.28421  -0.27339  -0.26617
  Beta  occ. eigenvalues --   -0.25544  -0.24555  -0.21116  -0.20133  -0.18602
  Beta  occ. eigenvalues --   -0.18166  -0.17821  -0.14783  -0.14646  -0.11202
  Beta  occ. eigenvalues --   -0.09876  -0.09452  -0.08702
  Beta virt. eigenvalues --    0.06592   0.07009   0.07434   0.08614   0.08837
  Beta virt. eigenvalues --    0.09802   0.10218   0.10317   0.10760   0.11766
  Beta virt. eigenvalues --    0.12027   0.12465   0.13028   0.13657   0.14202

 Mulliken charges and spin densities:
               1          2
     1  C   -0.662753  -0.017115
     2  C    1.511641   0.160675
     3  C    0.107755  -0.067510
     4  C   -0.735801   0.167459
     5  N   -0.076845  -0.062615
     6  C   -0.081947   0.181453
     7  C   -1.518908  -0.076799
     8  N   -0.242111   0.217365
     9  O   -0.191517   0.167534
    10  O   -0.194617   0.204081
    11  N    0.025227   0.026589
    12  C   -0.363428  -0.000477
    13  C   -0.042191  -0.011753
    14  N    0.070283  -0.001076
    15  C    0.050399   0.023759
    16  O   -0.230891   0.008751
    17  C   -0.445409  -0.048186
    18  N   -0.211767   0.008417
    19  C    0.143736  -0.000702
    20  O   -0.369707   0.008708
    21  H    0.199840   0.008119
    22  H    0.063113   0.002662
    23  H    0.183677   0.005152
    24  H    0.139293   0.004659
    25  H    0.239929  -0.010548
    26  H    0.290174   0.003672
    27  H    0.183048   0.002500
    28  H    0.140945   0.006683
    29  H    0.157730   0.012790
    30  H    0.178397  -0.002338
    31  H    0.179717   0.077226
    32  H    0.207497  -0.001976
    33  H    0.295491   0.002841
 Sum of Mulliken charges =  -1.00000   1.00000

 Dipole moment (field-independent basis, Debye):
    X=             11.7254    Y=              1.9241    Z=              2.1770  Tot=             12.0800
 Quadrupole moment (field-independent basis, Debye-Ang):
   XX=           -193.9415   YY=           -119.4017   ZZ=           -135.9183
   XY=            -13.3347   XZ=              5.5642   YZ=             -0.6551

 Summary of Natural Population Analysis:

                                       Natural Population
                Natural  -----------------------------------------------
    Atom  No    Charge         Core      Valence    Rydberg      Total
 -----------------------------------------------------------------------
      C    1   -0.29347      0.99963     2.28877    0.00507     3.29347
      C    2    0.05486      0.99950     1.93741    0.00824     2.94514
      C    3   -0.17537      0.99948     2.16709    0.00880     3.17537
      C    4    0.23751      0.99953     1.74550    0.01746     2.76249
      N    5   -0.29521      0.99968     2.78359    0.01194     3.79521
      C    6    0.07129      0.99956     1.91287    0.01628     2.92871
      C    7   -0.00105      0.99936     1.98671    0.01498     3.00105
      N    8    0.31031      0.99971     2.16418    0.02580     3.18969
      O    9   -0.20855      0.99990     3.20106    0.00759     4.20855
      O   10   -0.18773      0.99990     3.18019    0.00765     4.18773
      N   11   -0.31078      0.99967     2.79846    0.01266     3.81078
      C   12   -0.08955      0.99964     2.08089    0.00903     3.08955
      C   13   -0.09604      0.99963     2.08763    0.00878     3.09604
      N   14   -0.26500      0.99959     2.75521    0.01021     3.76500
      C   15    0.35728      0.99968     1.62020    0.02285     2.64272
      O   16   -0.28918      0.99987     3.28326    0.00605     4.28918
      C   17   -0.13097      0.99961     2.12195    0.00941     3.13097
      N   18   -0.32383      0.99967     2.81546    0.00870     3.82383
      C   19    0.41669      0.99969     1.55861    0.02500     2.58331
      O   20   -0.32422      0.99987     3.31900    0.00536     4.32422
      H   21    0.11687      0.00000     0.38205    0.00108     0.38313
      H   22    0.08618      0.00000     0.41276    0.00106     0.41382
      H   23    0.11478      0.00000     0.38413    0.00109     0.38522
      H   24    0.09488      0.00000     0.40394    0.00119     0.40512
      H   25    0.10286      0.00000     0.39597    0.00116     0.39714
      H   26    0.19552      0.00000     0.30273    0.00175     0.30448
      H   27    0.10224      0.00000     0.39685    0.00091     0.39776
      H   28    0.09226      0.00000     0.40670    0.00104     0.40774
      H   29    0.09778      0.00000     0.40133    0.00089     0.40222
      H   30    0.11347      0.00000     0.38532    0.00120     0.38653
      H   31    0.12284      0.00000     0.37562    0.00155     0.37716
      H   32    0.10365      0.00000     0.39544    0.00091     0.39635
      H   33    0.19969      0.00000     0.29832    0.00199     0.30031
 =======================================================================
   * Total *   -0.00000     19.99316    52.74917    0.25766    73.00000

 Normal termination of Gaussian 16 at Sun Dec 13 17:47:40 2020.
