 Gaussian 16, Revision A.03,

 -----------------------------------------------------------
 # opt freq B3LYP/6-31G(d) empiricaldispersion=gd3bj scf=xqc
 -----------------------------------------------------------

 -------------------------------
 CID_127751133_JID_9032_neutraal
 -------------------------------
 Symbolic Z-matrix:
 Charge =  0 Multiplicity = 1

 SCF Done:  E(RB3LYP) =  -1243.21740359     A.U. after   14 cycles
 SCF Done:  E(RB3LYP) =  -1243.21759983     A.U. after   13 cycles
 SCF Done:  E(RB3LYP) =  -1243.22491763     A.U. after   12 cycles
 SCF Done:  E(RB3LYP) =  -1243.22502782     A.U. after   12 cycles
 SCF Done:  E(RB3LYP) =  -1243.22577948     A.U. after   12 cycles
 SCF Done:  E(RB3LYP) =  -1243.22640945     A.U. after   11 cycles
 SCF Done:  E(RB3LYP) =  -1243.22678734     A.U. after   12 cycles
 SCF Done:  E(RB3LYP) =  -1243.22703954     A.U. after   13 cycles
 SCF Done:  E(RB3LYP) =  -1243.22813427     A.U. after   11 cycles
 SCF Done:  E(RB3LYP) =  -1243.23053118     A.U. after   15 cycles
 SCF Done:  E(RB3LYP) =  -1243.23617312     A.U. after    9 cycles
 SCF Done:  E(RB3LYP) =  -1243.23617930     A.U. after   10 cycles
 SCF Done:  E(RB3LYP) =  -1243.23617990     A.U. after    8 cycles
 SCF Done:  E(RB3LYP) =  -1243.23618061     A.U. after    8 cycles
 SCF Done:  E(RB3LYP) =  -1243.23618062     A.U. after    8 cycles
 SCF Done:  E(RB3LYP) =  -1243.23618070     A.U. after    7 cycles
 Optimization completed.
    -- Stationary point found.
 Normal termination of Gaussian 16 at Sat Dec 12 09:53:17 2020.

 --------------------------------------------------------------------
 #N Geom=AllCheck Guess=TCheck SCRF=Check GenChk RB3LYP/6-31G(d) Freq
 --------------------------------------------------------------------

 Structure from the checkpoint file:  "JID_9032.chk"
 -------------------------------
 CID_127751133_JID_9032_neutraal
 -------------------------------
 Charge =  0 Multiplicity = 1

 SCF Done:  E(RB3LYP) =  -1243.23618070     A.U. after    1 cycles

  Exact polarizability: 178.450   4.165 178.082  -2.323  -0.833 140.937
 Approx polarizability: 247.582   7.319 240.602 -10.292  -1.116 232.120

                      1                      2                      3
                      A                      A                      A
 Frequencies --     23.9494                43.6023                50.5623
 Red. masses --      4.5502                 6.2839                 3.4471
 Frc consts  --      0.0015                 0.0070                 0.0052
 IR Inten    --      0.6569                 5.2586                 1.0593

                      4                      5                      6
                      A                      A                      A
 Frequencies --     57.6456                62.6217                72.1246
 Red. masses --      5.0471                 3.8648                 3.4945
 Frc consts  --      0.0099                 0.0089                 0.0107
 IR Inten    --      2.8877                 0.7755                 1.5693

                      7                      8                      9
                      A                      A                      A
 Frequencies --     94.7426               139.5910               179.2598
 Red. masses --      5.1236                 3.5856                 3.2126
 Frc consts  --      0.0271                 0.0412                 0.0608
 IR Inten    --      1.0427                 0.2240                 2.7607

                     10                     11                     12
                      A                      A                      A
 Frequencies --    199.7656               220.1429               230.2760
 Red. masses --      2.2730                 2.0141                 1.3048
 Frc consts  --      0.0534                 0.0575                 0.0408
 IR Inten    --      1.1925                 1.4486                 0.1730

                     13                     14                     15
                      A                      A                      A
 Frequencies --    242.6870               250.1159               252.3789
 Red. masses --      3.2683                 1.3782                 2.5312
 Frc consts  --      0.1134                 0.0508                 0.0950
 IR Inten    --      2.6384                 0.7283                 0.4521

                     16                     17                     18
                      A                      A                      A
 Frequencies --    284.7809               297.3422               310.6080
 Red. masses --      2.6750                 3.6705                 3.6674
 Frc consts  --      0.1278                 0.1912                 0.2085
 IR Inten    --      3.5843                 4.2094                 1.2809

                     19                     20                     21
                      A                      A                      A
 Frequencies --    327.1714               343.2562               377.0665
 Red. masses --      3.8905                 3.4151                 2.0091
 Frc consts  --      0.2454                 0.2371                 0.1683
 IR Inten    --      2.1174                 3.8533                 0.4563

                     22                     23                     24
                      A                      A                      A
 Frequencies --    396.1694               412.8608               445.5718
 Red. masses --      2.0779                 2.6941                 3.3553
 Frc consts  --      0.1922                 0.2706                 0.3925
 IR Inten    --      1.6185                 1.5452                 0.7947

                     25                     26                     27
                      A                      A                      A
 Frequencies --    482.7030               487.9510               493.0397
 Red. masses --      4.7152                 5.4798                 4.7508
 Frc consts  --      0.6473                 0.7687                 0.6804
 IR Inten    --     10.1840                36.4515                35.3712

                     28                     29                     30
                      A                      A                      A
 Frequencies --    527.9912               587.9360               592.3119
 Red. masses --      4.7836                 2.8437                 1.3239
 Frc consts  --      0.7857                 0.5792                 0.2737
 IR Inten    --     31.5810                 8.8360                39.0566

                     31                     32                     33
                      A                      A                      A
 Frequencies --    635.6898               660.9934               669.2503
 Red. masses --      1.9683                 3.4970                 2.2724
 Frc consts  --      0.4686                 0.9002                 0.5997
 IR Inten    --     19.6493                 1.5008                10.3993

                     34                     35                     36
                      A                      A                      A
 Frequencies --    711.2984               745.5124               761.1815
 Red. masses --      2.8977                 3.6796                 5.9239
 Frc consts  --      0.8638                 1.2049                 2.0223
 IR Inten    --      4.6632                11.5327                83.1278

                     37                     38                     39
                      A                      A                      A
 Frequencies --    768.3147               810.0420               820.6878
 Red. masses --      4.2802                 2.6107                 3.1997
 Frc consts  --      1.4887                 1.0093                 1.2698
 IR Inten    --     38.4887                 1.1537                 2.6828

                     40                     41                     42
                      A                      A                      A
 Frequencies --    845.7398               870.6483               920.9674
 Red. masses --      1.6152                 1.9978                 2.1598
 Frc consts  --      0.6807                 0.8923                 1.0793
 IR Inten    --     10.9260                 3.2512                 4.6390

                     43                     44                     45
                      A                      A                      A
 Frequencies --    924.4479               940.8606               945.1960
 Red. masses --      2.1029                 3.1167                 2.4081
 Frc consts  --      1.0589                 1.6256                 1.2676
 IR Inten    --      4.1743                32.2645                39.4575

                     46                     47                     48
                      A                      A                      A
 Frequencies --    947.5099               990.9836               995.2631
 Red. masses --      2.1704                 1.4928                 1.4635
 Frc consts  --      1.1480                 0.8637                 0.8541
 IR Inten    --     52.3807                 1.9607                 8.3867

                     49                     50                     51
                      A                      A                      A
 Frequencies --    996.9429              1004.8503              1025.1372
 Red. masses --      1.3617                 2.1308                 2.2609
 Frc consts  --      0.7974                 1.2677                 1.3999
 IR Inten    --      2.0101                31.2032                 1.6440

                     52                     53                     54
                      A                      A                      A
 Frequencies --   1034.8116              1047.9763              1056.1611
 Red. masses --      1.7550                 1.7742                 2.2024
 Frc consts  --      1.1073                 1.1480                 1.4475
 IR Inten    --      0.1733                 4.0478                35.6351

                     55                     56                     57
                      A                      A                      A
 Frequencies --   1074.5026              1103.8765              1116.0262
 Red. masses --      1.6942                 2.0474                 1.9227
 Frc consts  --      1.1524                 1.4699                 1.4110
 IR Inten    --      2.1843                31.9441                 1.6553

                     58                     59                     60
                      A                      A                      A
 Frequencies --   1120.1749              1138.3065              1142.0510
 Red. masses --      6.8302                 2.2805                 1.9114
 Frc consts  --      5.0496                 1.7410                 1.4689
 IR Inten    --    154.3919                 8.6316                 4.3889

                     61                     62                     63
                      A                      A                      A
 Frequencies --   1148.3017              1185.0897              1204.3265
 Red. masses --      2.3163                 2.4547                 1.3668
 Frc consts  --      1.7995                 2.0312                 1.1680
 IR Inten    --      5.0541                25.1533                19.0332

                     64                     65                     66
                      A                      A                      A
 Frequencies --   1226.5365              1245.7328              1256.7593
 Red. masses --      1.4804                 1.3302                 1.3998
 Frc consts  --      1.3122                 1.2162                 1.3026
 IR Inten    --      9.5404                10.9920                77.0728

                     67                     68                     69
                      A                      A                      A
 Frequencies --   1261.4894              1279.1809              1287.6602
 Red. masses --      1.3341                 1.5574                 1.4969
 Frc consts  --      1.2508                 1.5014                 1.4623
 IR Inten    --     15.0358                 1.2501                64.7398

                     70                     71                     72
                      A                      A                      A
 Frequencies --   1309.0207              1322.8182              1327.8709
 Red. masses --      1.4322                 2.2814                 2.1598
 Frc consts  --      1.4460                 2.3521                 2.2437
 IR Inten    --     58.0489                87.9056                87.5171

                     73                     74                     75
                      A                      A                      A
 Frequencies --   1336.3717              1336.6327              1361.3251
 Red. masses --      1.3479                 1.3380                 1.2679
 Frc consts  --      1.4182                 1.4084                 1.3844
 IR Inten    --      9.8608                 9.5482                 1.3361

                     76                     77                     78
                      A                      A                      A
 Frequencies --   1366.9616              1373.6038              1378.3001
 Red. masses --      1.4475                 1.3766                 1.2306
 Frc consts  --      1.5936                 1.5303                 1.3774
 IR Inten    --      4.6557                 5.4890                14.3985

                     79                     80                     81
                      A                      A                      A
 Frequencies --   1381.4647              1396.0569              1399.6389
 Red. masses --      1.2783                 1.4371                 1.3123
 Frc consts  --      1.4373                 1.6502                 1.5147
 IR Inten    --      0.9185                 2.6673                 3.6537

                     82                     83                     84
                      A                      A                      A
 Frequencies --   1408.3113              1417.5693              1428.5914
 Red. masses --      1.4704                 1.4132                 1.3690
 Frc consts  --      1.7183                 1.6732                 1.6461
 IR Inten    --     14.3100                29.4306                17.2967

                     85                     86                     87
                      A                      A                      A
 Frequencies --   1449.4162              1456.1439              1483.1221
 Red. masses --      1.2486                 1.5173                 1.0498
 Frc consts  --      1.5455                 1.8956                 1.3606
 IR Inten    --      4.7515                48.0719                 2.9995

                     88                     89                     90
                      A                      A                      A
 Frequencies --   1487.6393              1500.0413              1509.8838
 Red. masses --      1.0531                 1.3861                 1.0912
 Frc consts  --      1.3731                 1.8376                 1.4657
 IR Inten    --      4.5971                42.6189                 3.5815

                     91                     92                     93
                      A                      A                      A
 Frequencies --   1511.9090              1514.7930              1528.1893
 Red. masses --      1.2236                 1.0778                 1.0795
 Frc consts  --      1.6479                 1.4571                 1.4853
 IR Inten    --     11.9657                 1.1699                 2.3724

                     94                     95                     96
                      A                      A                      A
 Frequencies --   1531.7923              1534.6088              1535.6532
 Red. masses --      1.0806                 1.0706                 1.0900
 Frc consts  --      1.4938                 1.4854                 1.5144
 IR Inten    --      8.4585                 2.4650                10.2715

                     97                     98                     99
                      A                      A                      A
 Frequencies --   1540.9877              1563.9455              1767.3782
 Red. masses --      1.0713                 1.0792                 6.8676
 Frc consts  --      1.4988                 1.5553                12.6390
 IR Inten    --      3.3699                 8.8496               258.2777

                    100                    101                    102
                      A                      A                      A
 Frequencies --   3040.5957              3043.4044              3046.8018
 Red. masses --      1.0725                 1.0676                 1.0510
 Frc consts  --      5.8418                 5.8261                 5.7481
 IR Inten    --     11.3782                19.9911                31.0734

                    103                    104                    105
                      A                      A                      A
 Frequencies --   3049.5032              3057.2929              3059.7770
 Red. masses --      1.0715                 1.0729                 1.0622
 Frc consts  --      5.8710                 5.9085                 5.8589
 IR Inten    --     28.7201                52.3898                56.6592

                    106                    107                    108
                      A                      A                      A
 Frequencies --   3065.3138              3068.8406              3081.8383
 Red. masses --      1.0782                 1.0618                 1.0765
 Frc consts  --      5.9690                 5.8916                 6.0238
 IR Inten    --     37.6986                18.0453                65.8368

                    109                    110                    111
                      A                      A                      A
 Frequencies --   3084.2869              3084.9795              3097.1226
 Red. masses --      1.0608                 1.0291                 1.1044
 Frc consts  --      5.9455                 5.7707                 6.2414
 IR Inten    --     15.2272                 0.9451                15.6040

                    112                    113                    114
                      A                      A                      A
 Frequencies --   3108.4300              3108.6919              3113.9130
 Red. masses --      1.0976                 1.1006                 1.1067
 Frc consts  --      6.2483                 6.2668                 6.3228
 IR Inten    --     14.7647                39.6848                34.3256

                    115                    116                    117
                      A                      A                      A
 Frequencies --   3131.9537              3134.4684              3139.4624
 Red. masses --      1.1062                 1.0997                 1.0936
 Frc consts  --      6.3933                 6.3661                 6.3505
 IR Inten    --      8.3199                22.6559                17.1825

                    118                    119                    120
                      A                      A                      A
 Frequencies --   3147.7089              3167.5181              3184.3989
 Red. masses --      1.0923                 1.0924                 1.1067
 Frc consts  --      6.3764                 6.4577                 6.6119
 IR Inten    --      2.8071                 9.5959                 1.1042

                    121                    122                    123
                      A                      A                      A
 Frequencies --   3191.7117              3210.2131              3580.4953
 Red. masses --      1.1079                 1.0820                 1.0756
 Frc consts  --      6.6499                 6.5698                 8.1243
 IR Inten    --      1.4486                14.2952                16.3643

 - Thermochemistry -
 -------------------
 Temperature   298.150 Kelvin.  Pressure   1.00000 Atm.
 Atom     1 has atomic number  6 and mass  12.00000

 Molecular mass:   288.15076 amu.
 Principal axes and moments of inertia in atomic units:
                           1         2         3
     Eigenvalues --  4084.128885326.043537782.86128
           X            0.99590   0.09033   0.00456
           Y           -0.09032   0.99591  -0.00246
           Z           -0.00477   0.00204   0.99999
 This molecule is an asymmetric top.
 Rotational symmetry number  1.
 Warning -- assumption of classical behavior for rotation
           may cause significant error
 Rotational temperatures (Kelvin)      0.02121     0.01626     0.01113
 Rotational constants (GHZ):           0.44189     0.33885     0.23189
 Zero-point vibrational energy     992095.8 (Joules/Mol)
                                  237.11659 (Kcal/Mol)
 Warning -- explicit consideration of  30 degrees of freedom as
           vibrations may cause significant error
 Vibrational temperatures:     34.46    62.73    72.75    82.94    90.10
          (Kelvin)            103.77   136.31   200.84   257.91   287.42
                              316.74   331.32   349.17   359.86   363.12
                              409.74   427.81   446.90   470.73   493.87
                              542.51   570.00   594.01   641.08   694.50
                              702.05   709.37   759.66   845.91   852.20
                              914.62   951.02   962.90  1023.40  1072.63
                             1095.17  1105.43  1165.47  1180.79  1216.83
                             1252.67  1325.07  1330.07  1353.69  1359.93
                             1363.26  1425.80  1431.96  1434.38  1445.76
                             1474.94  1488.86  1507.80  1519.58  1545.97
                             1588.23  1605.71  1611.68  1637.77  1643.16
                             1652.15  1705.08  1732.76  1764.71  1792.33
                             1808.20  1815.00  1840.46  1852.66  1883.39
                             1903.24  1910.51  1922.74  1923.12  1958.64
                             1966.75  1976.31  1983.07  1987.62  2008.61
                             2013.77  2026.25  2039.57  2055.42  2085.39
                             2095.07  2133.88  2140.38  2158.22  2172.39
                             2175.30  2179.45  2198.72  2203.91  2207.96
                             2209.46  2217.14  2250.17  2542.86  4374.74
                             4378.78  4383.67  4387.55  4398.76  4402.34
                             4410.30  4415.38  4434.08  4437.60  4438.60
                             4456.07  4472.34  4472.71  4480.23  4506.18
                             4509.80  4516.99  4528.85  4557.35  4581.64
                             4592.16  4618.78  5151.53

 Zero-point correction=                           0.377869 (Hartree/Particle)
 Thermal correction to Energy=                    0.397270
 Thermal correction to Enthalpy=                  0.398214
 Thermal correction to Gibbs Free Energy=         0.329397
 Sum of electronic and zero-point Energies=          -1242.858311
 Sum of electronic and thermal Energies=             -1242.838911
 Sum of electronic and thermal Enthalpies=           -1242.837966
 Sum of electronic and thermal Free Energies=        -1242.906784

                     E (Thermal)             CV                S
                      KCal/Mol        Cal/Mol-Kelvin    Cal/Mol-Kelvin
 Total                  249.291             74.793            144.839
 Electronic               0.000              0.000              0.000
 Translational            0.889              2.981             42.873
 Rotational               0.889              2.981             33.492
 Vibrational            247.513             68.831             68.474
 Vibration     1          0.593              1.985              6.276
 Vibration     2          0.595              1.980              5.088
 Vibration     3          0.595              1.977              4.795
 Vibration     4          0.596              1.974              4.536
 Vibration     5          0.597              1.972              4.373
 Vibration     6          0.598              1.967              4.095
 Vibration     7          0.603              1.953              3.560
 Vibration     8          0.615              1.914              2.809
 Vibration     9          0.629              1.868              2.336
 Vibration    10          0.638              1.840              2.135
 Vibration    11          0.647              1.810              1.958
 Vibration    12          0.652              1.795              1.877
 Vibration    13          0.659              1.775              1.783
 Vibration    14          0.663              1.763              1.730
 Vibration    15          0.664              1.759              1.714
 Vibration    16          0.683              1.702              1.505
 Vibration    17          0.691              1.679              1.432
 Vibration    18          0.699              1.653              1.359
 Vibration    19          0.711              1.621              1.274
 Vibration    20          0.722              1.589              1.197
 Vibration    21          0.748              1.519              1.051
 Vibration    22          0.763              1.478              0.977
 Vibration    23          0.777              1.442              0.917
 Vibration    24          0.805              1.371              0.809
 Vibration    25          0.839              1.288              0.703
 Vibration    26          0.844              1.277              0.689
 Vibration    27          0.849              1.265              0.676
 Vibration    28          0.883              1.188              0.592
 Vibration    29          0.945              1.058              0.471
 Vibration    30          0.950              1.048              0.463

 Optimization completed.
    -- Stationary point found.
 Normal termination of Gaussian 16 at Sat Dec 12 10:18:48 2020.

 ----------------------------------------------------------------------
 # B3LYP/6-311++G(d,p) empiricaldispersion=gd3bj scf=xqc pop=npa geom=c
 heck
 ----------------------------------------------------------------------

 ---------------------------------------
 CID_127751133_JID_9032_Energie_neutraal
 ---------------------------------------
 Structure from the checkpoint file:  "JID_9032.chk"
 Charge =  0 Multiplicity = 1

 SCF Done:  E(RB3LYP) =  -1243.50395164     A.U. after   17 cycles
 Normal termination of Gaussian 16 at Sat Dec 12 10:30:30 2020.

 ----------------------------------------------------------------------
 # B3LYP/6-311++G(d,p) empiricaldispersion=gd3bj scf=xqc pop=npa geom=c
 heck
 ----------------------------------------------------------------------

 -------------------------------------
 CID_127751133_JID_9032_Energie_kation
 -------------------------------------
 Structure from the checkpoint file:  "JID_9032.chk"
 Charge =  1 Multiplicity = 2

 SCF Done:  E(UB3LYP) =  -1243.19053490     A.U. after   29 cycles
 Normal termination of Gaussian 16 at Sat Dec 12 10:57:13 2020.
 Gaussian 16:  ES64L-G16RevA.03 25-Dec-2016

 ----------------------------------------------------------------------
 # B3LYP/6-311++G(d,p) empiricaldispersion=gd3bj scf=xqc pop=npa geom=c
 heck
 ----------------------------------------------------------------------

 ------------------------------------
 CID_127751133_JID_9032_Energie_anion
 ------------------------------------
 Structure from the checkpoint file:  "JID_9032.chk"
 Charge = -1 Multiplicity = 2

                         Standard orientation:
 ---------------------------------------------------------------------
 Center     Atomic      Atomic             Coordinates (Angstroms)
 Number     Number       Type             X           Y           Z
 ---------------------------------------------------------------------
      1          6           0       -1.645372   -3.127196    0.092261
      2          6           0       -2.665056   -2.024184    0.401377
      3          6           0       -3.232076   -1.371905   -0.872531
      4          6           0       -2.132657   -0.392684   -1.311429
      5          6           0       -1.523704    0.144477    0.026685
      6          6           0       -2.034564   -0.819196    1.134247
      7          6           0       -1.999525    1.566676    0.261642
      8          8           0       -3.152945    1.801290    0.612423
      9          7           0       -1.162097    2.631952   -0.001113
     10          6           0        0.274143    2.764929   -0.262574
     11          6           0        0.785731    1.916453   -1.461959
     12          6           0        2.106897    1.213367   -1.140066
     13          7           0        2.030235    0.452613    0.116463
     14          6           0        1.508806    1.128542    1.324992
     15          6           0        1.168466    2.579470    0.988111
     16         16           0        1.974238   -1.213750    0.045582
     17          8           0        1.356960   -1.680122    1.290420
     18          8           0        1.448637   -1.620251   -1.265272
     19          6           0        3.708757   -1.700291    0.082615
     20          1           0       -2.118620   -3.952742   -0.453708
     21          1           0       -0.811235   -2.756400   -0.511432
     22          1           0       -1.216336   -3.530921    1.015998
     23          1           0       -3.471761   -2.455345    1.007545
     24          1           0       -3.487100   -2.098695   -1.652522
     25          1           0       -4.137800   -0.807149   -0.623337
     26          1           0       -2.516645    0.409474   -1.949511
     27          1           0       -1.348074   -0.913509   -1.870071
     28          1           0       -0.442334    0.105112   -0.038917
     29          1           0       -2.800015   -0.302526    1.718964
     30          1           0       -1.224105   -1.121737    1.803944
     31          1           0       -1.643831    3.501425    0.195222
     32          1           0        0.380560    3.818253   -0.538997
     33          1           0        0.048976    1.164422   -1.742374
     34          1           0        0.925005    2.557602   -2.339531
     35          1           0        2.360652    0.519665   -1.942490
     36          1           0        2.927846    1.937001   -1.060106
     37          1           0        2.259847    1.098439    2.123520
     38          1           0        0.626205    0.604539    1.694849
     39          1           0        2.098523    3.137618    0.823926
     40          1           0        0.677452    3.033983    1.854350
     41          1           0        4.217487   -1.256124   -0.774989
     42          1           0        4.145437   -1.352197    1.019925
     43          1           0        3.744789   -2.790236    0.022176
 ---------------------------------------------------------------------

 SCF Done:  E(UB3LYP) =  -1243.50240615     A.U. after   32 cycles

 The electronic state is 2-A.
 Alpha  occ. eigenvalues --  -88.97608 -19.02958 -19.02880 -18.99135 -14.25299
 Alpha  occ. eigenvalues --  -14.24006 -10.17724 -10.12765 -10.11890 -10.11818
 Alpha  occ. eigenvalues --  -10.11607 -10.08588 -10.08463 -10.08192 -10.08113
 Alpha  occ. eigenvalues --  -10.07886 -10.07397 -10.06715 -10.06215  -8.03744
 Alpha  occ. eigenvalues --   -6.00036  -6.00007  -5.99815  -1.03240  -0.94378
 Alpha  occ. eigenvalues --   -0.92281  -0.85384  -0.82406  -0.75338  -0.70925
 Alpha  occ. eigenvalues --   -0.68077  -0.67609  -0.65957  -0.62547  -0.59945
 Alpha  occ. eigenvalues --   -0.57794  -0.56002  -0.53369  -0.50896  -0.47111
 Alpha  occ. eigenvalues --   -0.45813  -0.45361  -0.43674  -0.43017  -0.41096
 Alpha  occ. eigenvalues --   -0.40422  -0.39083  -0.38840  -0.38016  -0.36558
 Alpha  occ. eigenvalues --   -0.36000  -0.35668  -0.34146  -0.33949  -0.33455
 Alpha  occ. eigenvalues --   -0.33130  -0.32050  -0.31415  -0.30688  -0.30556
 Alpha  occ. eigenvalues --   -0.29550  -0.28685  -0.28393  -0.26368  -0.26107
 Alpha  occ. eigenvalues --   -0.25372  -0.24435  -0.23978  -0.23785  -0.23658
 Alpha  occ. eigenvalues --   -0.23232  -0.22977  -0.22716  -0.22151  -0.21638
 Alpha  occ. eigenvalues --   -0.16443  -0.16176  -0.15608   0.03458
 Alpha virt. eigenvalues --    0.05822   0.06874   0.07396   0.07886   0.08677
 Alpha virt. eigenvalues --    0.09111   0.09241   0.09261   0.10005   0.10248
 Alpha virt. eigenvalues --    0.10826   0.11385   0.11522   0.11686   0.12104

  Beta  occ. eigenvalues --  -88.97606 -19.02952 -19.02874 -18.99133 -14.25298
  Beta  occ. eigenvalues --  -14.23996 -10.17724 -10.12743 -10.11875 -10.11782
  Beta  occ. eigenvalues --  -10.11552 -10.08584 -10.08430 -10.08176 -10.08113
  Beta  occ. eigenvalues --  -10.07885 -10.07397 -10.06715 -10.06214  -8.03742
  Beta  occ. eigenvalues --   -6.00034  -6.00005  -5.99812  -1.03228  -0.94374
  Beta  occ. eigenvalues --   -0.92267  -0.85364  -0.82378  -0.75336  -0.70881
  Beta  occ. eigenvalues --   -0.68030  -0.67548  -0.65951  -0.62543  -0.59899
  Beta  occ. eigenvalues --   -0.57783  -0.55942  -0.53338  -0.50869  -0.47073
  Beta  occ. eigenvalues --   -0.45796  -0.45335  -0.43645  -0.42961  -0.41058
  Beta  occ. eigenvalues --   -0.40405  -0.39057  -0.38828  -0.37973  -0.36532
  Beta  occ. eigenvalues --   -0.35960  -0.35631  -0.34111  -0.33937  -0.33418
  Beta  occ. eigenvalues --   -0.33095  -0.32031  -0.31395  -0.30657  -0.30545
  Beta  occ. eigenvalues --   -0.29538  -0.28647  -0.28359  -0.26351  -0.26078
  Beta  occ. eigenvalues --   -0.25357  -0.24407  -0.23973  -0.23764  -0.23644
  Beta  occ. eigenvalues --   -0.23222  -0.22973  -0.22711  -0.22140  -0.21610
  Beta  occ. eigenvalues --   -0.16434  -0.16158  -0.15586
  Beta virt. eigenvalues --    0.06092   0.06923   0.06932   0.08072   0.08631
  Beta virt. eigenvalues --    0.08933   0.09174   0.09378   0.09692   0.10236
  Beta virt. eigenvalues --    0.10741   0.11063   0.11526   0.11675   0.11980

 Mulliken charges and spin densities:
               1          2
     1  C   -0.694743  -0.019396
     2  C    0.356143   0.034245
     3  C   -0.678949  -0.001834
     4  C   -0.225145   0.120300
     5  C    1.125068  -0.142510
     6  C   -0.683832   0.069312
     7  C   -0.934698   0.316916
     8  O   -0.287233   0.000044
     9  N   -0.379227   0.063789
    10  C   -0.062619   0.270239
    11  C    0.031787  -0.222542
    12  C    0.345839  -0.873626
    13  N   -0.163312   0.018553
    14  C   -1.154744   1.038439
    15  C    1.780105  -2.554871
    16  S    0.667940  -0.516440
    17  O   -0.064930   0.005959
    18  O   -0.003432  -0.003996
    19  C   -0.454849  -0.266433
    20  H    0.112457  -0.003137
    21  H    0.139212  -0.009039
    22  H    0.115803   0.019616
    23  H    0.197617  -0.002420
    24  H    0.161932   0.005591
    25  H    0.156577  -0.005474
    26  H    0.151153   0.029321
    27  H    0.202500   0.043525
    28  H    1.156133  -1.622403
    29  H    0.198733   0.009707
    30  H    0.173169   0.011511
    31  H    0.168275   0.164331
    32  H   -0.695009   0.927426
    33  H    0.308899  -0.049108
    34  H   -0.429442   0.651978
    35  H    0.208638   0.002386
    36  H   -0.559665   0.753609
    37  H   -0.334492   0.557626
    38  H    0.114125   0.110269
    39  H   -0.334560   0.520346
    40  H    0.013940   0.180412
    41  H   -0.407973   0.611269
    42  H   -0.279579   0.500339
    43  H   -0.057613   0.256174
 Sum of Mulliken charges =  -1.00000   1.00000

 Dipole moment (field-independent basis, Debye):
    X=             -5.3198    Y=             -6.2315    Z=              0.0594  Tot=              8.1937
 Quadrupole moment (field-independent basis, Debye-Ang):
   XX=           -199.4553   YY=           -190.2728   ZZ=           -158.0008
   XY=             -5.5280   XZ=              4.0134   YZ=              3.1443

 Summary of Natural Population Analysis:

                                       Natural Population
                Natural  -----------------------------------------------
    Atom  No    Charge         Core      Valence    Rydberg      Total
 -----------------------------------------------------------------------
      C    1   -0.28969      0.99965     2.28462    0.00541     3.28969
      C    2   -0.10970      0.99962     2.10199    0.00809     3.10970
      C    3   -0.19005      0.99962     2.18351    0.00691     3.19005
      C    4   -0.18801      0.99963     2.18109    0.00730     3.18801
      C    5   -0.16336      0.99955     2.15351    0.01031     3.16336
      C    6   -0.19016      0.99962     2.18186    0.00868     3.19016
      C    7    0.35125      0.99963     1.62500    0.02412     2.64875
      O    8   -0.33517      0.99988     3.32978    0.00551     4.33517
      N    9   -0.32037      0.99966     2.80978    0.01093     3.82037
      C   10   -0.01038      0.99957     1.99546    0.01536     3.01038
      C   11   -0.19965      0.99959     2.19046    0.00960     3.19965
      C   12   -0.08638      0.99958     2.07405    0.01275     3.08638
      N   13   -0.39164      0.99972     2.87291    0.01901     3.89164
      C   14   -0.08292      0.99958     2.07124    0.01210     3.08292
      C   15   -0.19917      0.99959     2.19066    0.00892     3.19917
      S   16    1.10960      4.99922     1.79067    0.10052     6.89040
      O   17   -0.46693      0.99990     3.46197    0.00506     4.46693
      O   18   -0.47010      0.99991     3.46512    0.00508     4.47010
      C   19   -0.38466      0.99961     2.37776    0.00729     3.38466
      H   20    0.09134      0.00000     0.40792    0.00074     0.40866
      H   21    0.10747      0.00000     0.39127    0.00126     0.39253
      H   22    0.10038      0.00000     0.39877    0.00085     0.39962
      H   23    0.09289      0.00000     0.40610    0.00101     0.40711
      H   24    0.09549      0.00000     0.40361    0.00090     0.40451
      H   25    0.10190      0.00000     0.39713    0.00097     0.39810
      H   26    0.10243      0.00000     0.39671    0.00086     0.39757
      H   27    0.10446      0.00000     0.39445    0.00109     0.39554
      H   28    0.10848      0.00000     0.38773    0.00380     0.39152
      H   29    0.10867      0.00000     0.39021    0.00112     0.39133
      H   30    0.10743      0.00000     0.39150    0.00108     0.39257
      H   31    0.19470      0.00000     0.30311    0.00219     0.30530
      H   32    0.10790      0.00000     0.38846    0.00364     0.39210
      H   33    0.10478      0.00000     0.39315    0.00207     0.39522
      H   34    0.10727      0.00000     0.39133    0.00140     0.39273
      H   35    0.11243      0.00000     0.38618    0.00139     0.38757
      H   36    0.10141      0.00000     0.39513    0.00346     0.39859
      H   37    0.09990      0.00000     0.39883    0.00127     0.40010
      H   38    0.10187      0.00000     0.39622    0.00190     0.39813
      H   39    0.10850      0.00000     0.38791    0.00359     0.39150
      H   40    0.10868      0.00000     0.39019    0.00114     0.39132
      H   41    0.11732      0.00000     0.38114    0.00154     0.38268
      H   42    0.11776      0.00000     0.38072    0.00152     0.38224
      H   43    0.11403      0.00000     0.38516    0.00081     0.38597
 =======================================================================
   * Total *    0.00000     22.99311    54.68436    0.32253    78.00000

 Normal termination of Gaussian 16 at Sat Dec 12 11:26:33 2020.
