 Gaussian 16, Revision A.03,

 -----------------------------------------------------------
 # opt freq B3LYP/6-31G(d) empiricaldispersion=gd3bj scf=xqc
 -----------------------------------------------------------

 ------------------------------
 CID_79695691_JID_6266_neutraal
 ------------------------------
 Symbolic Z-matrix:
 Charge =  0 Multiplicity = 1

 SCF Done:  E(RB3LYP) =  -709.621188610     A.U. after   14 cycles
 SCF Done:  E(RB3LYP) =  -709.630805441     A.U. after   13 cycles
 SCF Done:  E(RB3LYP) =  -709.630951027     A.U. after   12 cycles
 SCF Done:  E(RB3LYP) =  -709.631936211     A.U. after   13 cycles
 SCF Done:  E(RB3LYP) =  -709.632480251     A.U. after   11 cycles
 SCF Done:  E(RB3LYP) =  -709.632724488     A.U. after   12 cycles
 SCF Done:  E(RB3LYP) =  -709.632809638     A.U. after   11 cycles
 SCF Done:  E(RB3LYP) =  -709.632856550     A.U. after   10 cycles
 SCF Done:  E(RB3LYP) =  -709.632881681     A.U. after   11 cycles
 SCF Done:  E(RB3LYP) =  -709.632884668     A.U. after    8 cycles
 SCF Done:  E(RB3LYP) =  -709.632891995     A.U. after    8 cycles
 SCF Done:  E(RB3LYP) =  -709.632892143     A.U. after    7 cycles
 SCF Done:  E(RB3LYP) =  -709.632892208     A.U. after    7 cycles
 SCF Done:  E(RB3LYP) =  -709.632892245     A.U. after    7 cycles
 SCF Done:  E(RB3LYP) =  -709.632892269     A.U. after    6 cycles
 Optimization completed.
    -- Stationary point found.
 Normal termination of Gaussian 16 at Thu Dec 10 21:59:22 2020.

 --------------------------------------------------------------------
 #N Geom=AllCheck Guess=TCheck SCRF=Check GenChk RB3LYP/6-31G(d) Freq
 --------------------------------------------------------------------

 Structure from the checkpoint file:  "JID_6266.chk"
 ------------------------------
 CID_79695691_JID_6266_neutraal
 ------------------------------
 Charge =  0 Multiplicity = 1

 SCF Done:  E(RB3LYP) =  -709.632892269     A.U. after    1 cycles

  Exact polarizability: 239.776   0.728 144.241  -6.927  -0.091  82.861
 Approx polarizability: 316.170   7.819 238.503 -18.053  -1.060 127.972

                      1                      2                      3
                      A                      A                      A
 Frequencies --     33.3564                49.2501                70.3695
 Red. masses --      4.8339                 7.3097                 3.1007
 Frc consts  --      0.0032                 0.0104                 0.0090
 IR Inten    --      0.3280                 1.2973                 0.0487

                      4                      5                      6
                      A                      A                      A
 Frequencies --     90.9615                95.1329               150.8277
 Red. masses --      4.3451                 3.3975                 3.8304
 Frc consts  --      0.0212                 0.0181                 0.0513
 IR Inten    --      0.2207                 0.6737                10.2716

                      7                      8                      9
                      A                      A                      A
 Frequencies --    204.4623               227.3422               230.4057
 Red. masses --      1.5730                 3.4399                 1.9509
 Frc consts  --      0.0387                 0.1048                 0.0610
 IR Inten    --      2.0903                 1.8565                 0.6886

                     10                     11                     12
                      A                      A                      A
 Frequencies --    263.6448               286.9836               296.8529
 Red. masses --      5.5516                 1.9472                 2.9823
 Frc consts  --      0.2274                 0.0945                 0.1548
 IR Inten    --      0.7260                 0.1771                 0.7360

                     13                     14                     15
                      A                      A                      A
 Frequencies --    304.5663               357.7074               387.5033
 Red. masses --      5.3793                 3.2730                 2.0735
 Frc consts  --      0.2940                 0.2467                 0.1834
 IR Inten    --     11.0150                 1.6964                 6.7764

                     16                     17                     18
                      A                      A                      A
 Frequencies --    426.1780               459.3545               476.8775
 Red. masses --      5.2179                 3.0928                 5.0661
 Frc consts  --      0.5584                 0.3845                 0.6788
 IR Inten    --      7.2881                 3.7073                 3.8751

                     19                     20                     21
                      A                      A                      A
 Frequencies --    562.8303               574.1362               579.9581
 Red. masses --      5.0404                 2.4489                 4.0773
 Frc consts  --      0.9407                 0.4756                 0.8080
 IR Inten    --      4.7460                17.9969                11.4495

                     22                     23                     24
                      A                      A                      A
 Frequencies --    605.5769               625.8020               690.1214
 Red. masses --      4.3980                 1.4639                 4.2549
 Frc consts  --      0.9503                 0.3378                 1.1940
 IR Inten    --     27.8968                46.0192                16.5059

                     25                     26                     27
                      A                      A                      A
 Frequencies --    716.1427               749.9979               779.4304
 Red. masses --      2.8074                 4.6251                 4.3601
 Frc consts  --      0.8483                 1.5328                 1.5606
 IR Inten    --     29.7836                17.8212                51.2455

                     28                     29                     30
                      A                      A                      A
 Frequencies --    782.2704               831.6303               852.2170
 Red. masses --      1.0392                 1.5642                 1.8907
 Frc consts  --      0.3747                 0.6374                 0.8091
 IR Inten    --      0.4734                 5.0493                 5.5339

                     31                     32                     33
                      A                      A                      A
 Frequencies --    862.1981               878.6184               892.9603
 Red. masses --      2.7000                 2.5839                 1.1681
 Frc consts  --      1.1826                 1.1752                 0.5488
 IR Inten    --      9.7301                14.2884                 0.0681

                     34                     35                     36
                      A                      A                      A
 Frequencies --    915.7994               943.1801               986.0821
 Red. masses --      1.7218                 4.3929                 1.3035
 Frc consts  --      0.8508                 2.3024                 0.7468
 IR Inten    --      0.3435                 6.5147                 0.4737

                     37                     38                     39
                      A                      A                      A
 Frequencies --    998.1483              1029.4927              1038.3088
 Red. masses --      2.5156                 1.9233                 1.3364
 Frc consts  --      1.4766                 1.2010                 0.8488
 IR Inten    --      9.4846                 0.1491                 0.3187

                     40                     41                     42
                      A                      A                      A
 Frequencies --   1063.8540              1073.0574              1075.3724
 Red. masses --      1.4552                 2.1619                 1.5281
 Frc consts  --      0.9704                 1.4667                 1.0412
 IR Inten    --      1.4103                 2.0195                 3.6643

                     43                     44                     45
                      A                      A                      A
 Frequencies --   1084.4768              1110.7525              1137.6256
 Red. masses --      1.4351                 5.1608                 2.0909
 Frc consts  --      0.9944                 3.7515                 1.5943
 IR Inten    --      0.6391                50.9421                70.4544

                     46                     47                     48
                      A                      A                      A
 Frequencies --   1143.4268              1145.9108              1165.8527
 Red. masses --      1.5866                 1.3061                 3.9127
 Frc consts  --      1.2222                 1.0105                 3.1334
 IR Inten    --     91.7842                67.7001               110.9848

                     49                     50                     51
                      A                      A                      A
 Frequencies --   1188.2839              1199.0233              1220.4837
 Red. masses --      1.2917                 1.3003                 1.6717
 Frc consts  --      1.0746                 1.1014                 1.4671
 IR Inten    --      3.9531                 0.0162                 0.9278

                     52                     53                     54
                      A                      A                      A
 Frequencies --   1234.6295              1266.0140              1304.3379
 Red. masses --      1.7587                 2.2036                 1.6285
 Frc consts  --      1.5794                 2.0810                 1.6323
 IR Inten    --    241.1981                 1.6059                 4.1074

                     55                     56                     57
                      A                      A                      A
 Frequencies --   1313.6119              1321.8985              1369.0749
 Red. masses --      1.4193                 1.5242                 6.7579
 Frc consts  --      1.4430                 1.5693                 7.4631
 IR Inten    --     27.1584                66.3148                30.1974

                     58                     59                     60
                      A                      A                      A
 Frequencies --   1389.7897              1409.6204              1440.1712
 Red. masses --      2.4246                 3.0247                 2.0437
 Frc consts  --      2.7593                 3.5411                 2.4974
 IR Inten    --     98.6728               310.3742               118.3914

                     61                     62                     63
                      A                      A                      A
 Frequencies --   1448.1220              1486.1978              1489.4348
 Red. masses --      1.4135                 2.9947                 1.0898
 Frc consts  --      1.7465                 3.8973                 1.4244
 IR Inten    --     39.9740                 2.4572                 1.8173

                     64                     65                     66
                      A                      A                      A
 Frequencies --   1511.4035              1523.1758              1534.3118
 Red. masses --      1.0449                 1.2606                 1.0842
 Frc consts  --      1.4063                 1.7231                 1.5038
 IR Inten    --      4.8707                15.9301                 2.2849

                     67                     68                     69
                      A                      A                      A
 Frequencies --   1538.3792              1552.2654              1566.0356
 Red. masses --      1.6496                 1.2041                 2.8044
 Frc consts  --      2.3002                 1.7093                 4.0523
 IR Inten    --      0.1821                83.6952                59.6535

                     70                     71                     72
                      A                      A                      A
 Frequencies --   1606.1397              1667.9121              1796.4050
 Red. masses --      6.7749                 5.4953                 8.9678
 Frc consts  --     10.2972                 9.0072                17.0508
 IR Inten    --     22.1223               529.5937               363.5813

                     73                     74                     75
                      A                      A                      A
 Frequencies --   3009.0141              3016.3617              3064.4368
 Red. masses --      1.0584                 1.0627                 1.1030
 Frc consts  --      5.6461                 5.6969                 6.1029
 IR Inten    --     69.9389                29.2613                23.3900

                     76                     77                     78
                      A                      A                      A
 Frequencies --   3065.8293              3066.1416              3133.4455
 Red. masses --      1.0965                 1.0439                 1.1003
 Frc consts  --      6.0721                 5.7822                 6.3649
 IR Inten    --     63.7320                20.8199                10.6961

                     79                     80                     81
                      A                      A                      A
 Frequencies --   3136.3703              3138.7211              3141.9839
 Red. masses --      1.1035                 1.0504                 1.0585
 Frc consts  --      6.3953                 6.0967                 6.1565
 IR Inten    --     19.2294                19.6893                12.8323

                     82                     83                     84
                      A                      A                      A
 Frequencies --   3192.9430              3203.7379              3213.1847
 Red. masses --      1.0891                 1.0885                 1.1198
 Frc consts  --      6.5417                 6.5825                 6.8119
 IR Inten    --     16.0255                10.2919                 0.0049

                     85                     86                     87
                      A                      A                      A
 Frequencies --   3227.1046              3229.4171              3690.0949
 Red. masses --      1.1164                 1.0928                 1.0639
 Frc consts  --      6.8499                 6.7147                 8.5352
 IR Inten    --     17.3100                 3.6946                74.9866

 - Thermochemistry -
 -------------------
 Temperature   298.150 Kelvin.  Pressure   1.00000 Atm.
 Atom     1 has atomic number  6 and mass  12.00000

 Molecular mass:   217.11028 amu.
 Principal axes and moments of inertia in atomic units:
                           1         2         3
     Eigenvalues --  1086.023598109.264848940.44080
           X            0.99996  -0.00849   0.00185
           Y            0.00848   0.99996   0.00143
           Z           -0.00186  -0.00141   1.00000
 This molecule is an asymmetric top.
 Rotational symmetry number  1.
 Warning -- assumption of classical behavior for rotation
           may cause significant error
 Rotational temperatures (Kelvin)      0.07975     0.01068     0.00969
 Rotational constants (GHZ):           1.66179     0.22255     0.20186
 Zero-point vibrational energy     677161.2 (Joules/Mol)
                                  161.84542 (Kcal/Mol)
 Warning -- explicit consideration of  22 degrees of freedom as
           vibrations may cause significant error
 Vibrational temperatures:     47.99    70.86   101.25   130.87   136.87
          (Kelvin)            217.01   294.18   327.09   331.50   379.33
                              412.91   427.11   438.20   514.66   557.53
                              613.18   660.91   686.12   809.79   826.05
                              834.43   871.29   900.39   992.93  1030.37
                             1079.08  1121.43  1125.51  1196.53  1226.15
                             1240.51  1264.14  1284.77  1317.63  1357.03
                             1418.75  1436.11  1481.21  1493.89  1530.65
                             1543.89  1547.22  1560.32  1598.13  1636.79
                             1645.14  1648.71  1677.40  1709.68  1725.13
                             1756.00  1776.36  1821.51  1876.65  1889.99
                             1901.92  1969.79  1999.60  2028.13  2072.09
                             2083.52  2138.31  2142.96  2174.57  2191.51
                             2207.53  2213.38  2233.36  2253.18  2310.88
                             2399.75  2584.63  4329.30  4339.87  4409.04
                             4411.04  4411.49  4508.33  4512.54  4515.92
                             4520.61  4593.93  4609.46  4623.06  4643.08
                             4646.41  5309.22

 Zero-point correction=                           0.257917 (Hartree/Particle)
 Thermal correction to Energy=                    0.272443
 Thermal correction to Enthalpy=                  0.273387
 Thermal correction to Gibbs Free Energy=         0.215606
 Sum of electronic and zero-point Energies=           -709.374975
 Sum of electronic and thermal Energies=              -709.360449
 Sum of electronic and thermal Enthalpies=            -709.359505
 Sum of electronic and thermal Free Energies=         -709.417286

                     E (Thermal)             CV                S
                      KCal/Mol        Cal/Mol-Kelvin    Cal/Mol-Kelvin
 Total                  170.961             56.195            121.610
 Electronic               0.000              0.000              0.000
 Translational            0.889              2.981             42.029
 Rotational               0.889              2.981             32.732
 Vibrational            169.183             50.233             46.849
 Vibration     1          0.594              1.983              5.619
 Vibration     2          0.595              1.978              4.847
 Vibration     3          0.598              1.968              4.143
 Vibration     4          0.602              1.956              3.639
 Vibration     5          0.603              1.953              3.552
 Vibration     6          0.618              1.902              2.662
 Vibration     7          0.640              1.834              2.093
 Vibration     8          0.651              1.799              1.900
 Vibration     9          0.652              1.795              1.876
 Vibration    10          0.670              1.740              1.638
 Vibration    11          0.684              1.698              1.492
 Vibration    12          0.691              1.680              1.435
 Vibration    13          0.695              1.665              1.392
 Vibration    14          0.733              1.559              1.132
 Vibration    15          0.756              1.497              1.010
 Vibration    16          0.788              1.413              0.871
 Vibration    17          0.817              1.340              0.768
 Vibration    18          0.833              1.301              0.719
 Vibration    19          0.919              1.112              0.518
 Vibration    20          0.930              1.087              0.496
 Vibration    21          0.937              1.075              0.485
 Vibration    22          0.964              1.020              0.440

 Optimization completed.
    -- Stationary point found.
 Normal termination of Gaussian 16 at Thu Dec 10 22:07:51 2020.

 ----------------------------------------------------------------------
 # B3LYP/6-311++G(d,p) empiricaldispersion=gd3bj scf=xqc pop=npa geom=c
 heck
 ----------------------------------------------------------------------

 --------------------------------------
 CID_79695691_JID_6266_Energie_neutraal
 --------------------------------------
 Structure from the checkpoint file:  "JID_6266.chk"
 Charge =  0 Multiplicity = 1

 SCF Done:  E(RB3LYP) =  -709.829899786     A.U. after   15 cycles
 Normal termination of Gaussian 16 at Thu Dec 10 22:11:31 2020.

 ----------------------------------------------------------------------
 # B3LYP/6-311++G(d,p) empiricaldispersion=gd3bj scf=xqc pop=npa geom=c
 heck
 ----------------------------------------------------------------------

 ------------------------------------
 CID_79695691_JID_6266_Energie_kation
 ------------------------------------
 Structure from the checkpoint file:  "JID_6266.chk"
 Charge =  1 Multiplicity = 2

 SCF Done:  E(UB3LYP) =  -709.559043522     A.U. after   21 cycles
 Normal termination of Gaussian 16 at Thu Dec 10 22:18:04 2020.
 Gaussian 16:  ES64L-G16RevA.03 25-Dec-2016

 ----------------------------------------------------------------------
 # B3LYP/6-311++G(d,p) empiricaldispersion=gd3bj scf=xqc pop=npa geom=c
 heck
 ----------------------------------------------------------------------

 -----------------------------------
 CID_79695691_JID_6266_Energie_anion
 -----------------------------------
 Structure from the checkpoint file:  "JID_6266.chk"
 Charge = -1 Multiplicity = 2

                         Standard orientation:
 ---------------------------------------------------------------------
 Center     Atomic      Atomic             Coordinates (Angstroms)
 Number     Number       Type             X           Y           Z
 ---------------------------------------------------------------------
      1          6           0       -2.457945    2.310313   -0.010829
      2          6           0       -1.739632    0.983121   -0.082656
      3          6           0       -2.387731   -0.276630   -0.008922
      4          6           0       -1.611064   -1.447187   -0.089112
      5          6           0       -0.237876   -1.413004   -0.233961
      6          6           0        0.418041   -0.168271   -0.304495
      7          6           0       -0.354130    1.006527   -0.228047
      8          7           0        1.777609   -0.099313   -0.466674
      9          6           0        2.760453   -1.131938   -0.107660
     10          6           0        3.776567   -0.003909    0.110929
     11          6           0        2.655752    1.021452   -0.101510
     12          6           0        5.181970    0.065885   -0.400952
     13          6           0        4.906779    0.048280    1.088741
     14          6           0       -3.838457   -0.503833    0.147859
     15          8           0       -4.367177   -1.601318    0.208884
     16          8           0       -4.596721    0.626471    0.225777
     17          1           0       -3.194454    2.412296   -0.812834
     18          1           0       -3.008482    2.419500    0.927861
     19          1           0       -1.739364    3.131393   -0.091218
     20          1           0       -2.131526   -2.396722   -0.030861
     21          1           0        0.331704   -2.334480   -0.298897
     22          1           0        0.147891    1.967342   -0.291422
     23          1           0        2.493020   -1.689405    0.802475
     24          1           0        2.981669   -1.843348   -0.913360
     25          1           0        2.806829    1.755852   -0.902850
     26          1           0        2.335588    1.545087    0.811794
     27          1           0        5.604344   -0.826843   -0.855608
     28          1           0        5.515657    0.997926   -0.850455
     29          1           0        5.054932    0.967945    1.649479
     30          1           0        5.143536   -0.855856    1.644268
     31          1           0       -5.509783    0.298444    0.324753
 ---------------------------------------------------------------------

 SCF Done:  E(UB3LYP) =  -709.823717743     A.U. after   33 cycles
 SCF Done:  E(UB3LYP) =  -709.823717743     a.u. after    1 cycles

 The electronic state is 2-A.
 Alpha  occ. eigenvalues --  -19.04908 -18.97661 -14.22213 -10.16670 -10.10579
 Alpha  occ. eigenvalues --  -10.10517 -10.09549 -10.09417 -10.07694 -10.07600
 Alpha  occ. eigenvalues --  -10.07419 -10.05940 -10.05539 -10.05396 -10.05351
 Alpha  occ. eigenvalues --  -10.05345  -0.98590  -0.88853  -0.86611  -0.76694
 Alpha  occ. eigenvalues --   -0.73995  -0.67319  -0.65319  -0.60137  -0.59136
 Alpha  occ. eigenvalues --   -0.57662  -0.51640  -0.51034  -0.48175  -0.46049
 Alpha  occ. eigenvalues --   -0.44304  -0.41919  -0.40127  -0.38924  -0.38134
 Alpha  occ. eigenvalues --   -0.37442  -0.35192  -0.34029  -0.33555  -0.32120
 Alpha  occ. eigenvalues --   -0.31137  -0.30526  -0.30347  -0.29982  -0.29589
 Alpha  occ. eigenvalues --   -0.27555  -0.27026  -0.25901  -0.24543  -0.23708
 Alpha  occ. eigenvalues --   -0.22362  -0.21218  -0.20190  -0.19608  -0.17236
 Alpha  occ. eigenvalues --   -0.15935  -0.13940  -0.09511   0.04283
 Alpha virt. eigenvalues --    0.06009   0.07329   0.07621   0.07991   0.08514
 Alpha virt. eigenvalues --    0.09172   0.09705   0.10509   0.10688   0.11181
 Alpha virt. eigenvalues --    0.11371   0.12118   0.12325   0.12902   0.13773

  Beta  occ. eigenvalues --  -19.04855 -18.97508 -14.22180 -10.16486 -10.10552
  Beta  occ. eigenvalues --  -10.10488 -10.09420 -10.09352 -10.07661 -10.07563
  Beta  occ. eigenvalues --  -10.07299 -10.05948 -10.05474 -10.05406 -10.05398
  Beta  occ. eigenvalues --  -10.05307  -0.98396  -0.88611  -0.86514  -0.76626
  Beta  occ. eigenvalues --   -0.73851  -0.67123  -0.65144  -0.60074  -0.58950
  Beta  occ. eigenvalues --   -0.57632  -0.51440  -0.50924  -0.48069  -0.45890
  Beta  occ. eigenvalues --   -0.44223  -0.41824  -0.39999  -0.38864  -0.38012
  Beta  occ. eigenvalues --   -0.37317  -0.35099  -0.33910  -0.32928  -0.32023
  Beta  occ. eigenvalues --   -0.31094  -0.30303  -0.30216  -0.29942  -0.29478
  Beta  occ. eigenvalues --   -0.27489  -0.26984  -0.25499  -0.24422  -0.23661
  Beta  occ. eigenvalues --   -0.22312  -0.20711  -0.20068  -0.19324  -0.16791
  Beta  occ. eigenvalues --   -0.15788  -0.13580  -0.09071
  Beta virt. eigenvalues --    0.06677   0.07448   0.08094   0.08123   0.08547
  Beta virt. eigenvalues --    0.08718   0.09351   0.09910   0.10632   0.11121
  Beta virt. eigenvalues --    0.11387   0.11482   0.12053   0.12337   0.12990

 Mulliken charges and spin densities:
               1          2
     1  C   -0.682756   0.063980
     2  C    0.261619   0.178262
     3  C    0.223625  -0.032256
     4  C   -0.539173   0.080321
     5  C    0.176555  -0.110376
     6  C   -0.778921   0.218264
     7  C   -0.302888  -0.028259
     8  N    0.146195   0.065830
     9  C    1.026709  -1.687632
    10  C   -2.946605   3.875200
    11  C    1.340605  -2.007170
    12  C    1.097952  -1.582837
    13  C    0.389070  -0.786574
    14  C    0.511330   0.003594
    15  O   -0.399715   0.056136
    16  O   -0.234146   0.007666
    17  H    0.158137   0.006112
    18  H    0.147000   0.019628
    19  H    0.053118   0.078128
    20  H    0.166476   0.013686
    21  H    0.091261   0.062059
    22  H    0.149911  -0.052439
    23  H   -0.054703   0.203774
    24  H    0.022167   0.149774
    25  H   -0.049089   0.222563
    26  H   -0.145301   0.300787
    27  H   -0.253405   0.391774
    28  H   -0.240980   0.378471
    29  H   -0.329717   0.476516
    30  H   -0.286106   0.433640
    31  H    0.281774   0.001378
 Sum of Mulliken charges =  -1.00000   1.00000

 Dipole moment (field-independent basis, Debye):
    X=             -4.5257    Y=              1.6836    Z=             -1.2809  Tot=              4.9957
 Quadrupole moment (field-independent basis, Debye-Ang):
   XX=           -198.1511   YY=           -123.6462   ZZ=           -116.5968
   XY=            -12.9560   XZ=             -6.1283   YZ=             -0.1892

 Summary of Natural Population Analysis:

                                       Natural Population
                Natural  -----------------------------------------------
    Atom  No    Charge         Core      Valence    Rydberg      Total
 -----------------------------------------------------------------------
      C    1   -0.29323      0.99964     2.28808    0.00551     3.29323
      C    2    0.03560      0.99951     1.95716    0.00772     2.96440
      C    3   -0.10695      0.99941     2.09793    0.00960     3.10695
      C    4   -0.04163      0.99956     2.03291    0.00916     3.04163
      C    5   -0.14873      0.99953     2.14180    0.00739     3.14873
      C    6    0.13947      0.99949     1.85042    0.01062     2.86053
      C    7   -0.14704      0.99950     2.13955    0.00799     3.14704
      N    8   -0.24050      0.99965     2.73061    0.01024     3.74050
      C    9   -0.06600      0.99960     2.05671    0.00968     3.06600
      C   10   -0.05699      0.99956     2.04477    0.01266     3.05699
      C   11   -0.06597      0.99960     2.05668    0.00969     3.06597
      C   12   -0.19058      0.99959     2.18192    0.00907     3.19058
      C   13   -0.19097      0.99958     2.18218    0.00922     3.19097
      C   14    0.41489      0.99965     1.55960    0.02586     2.58511
      O   15   -0.32011      0.99987     3.31400    0.00624     4.32011
      O   16   -0.35291      0.99988     3.34670    0.00634     4.35291
      H   17    0.10678      0.00000     0.39197    0.00125     0.39322
      H   18    0.10742      0.00000     0.39110    0.00147     0.39258
      H   19    0.09404      0.00000     0.40512    0.00084     0.40596
      H   20    0.10800      0.00000     0.39090    0.00110     0.39200
      H   21    0.09947      0.00000     0.39930    0.00123     0.40053
      H   22    0.09715      0.00000     0.40127    0.00159     0.40285
      H   23    0.09343      0.00000     0.40513    0.00144     0.40657
      H   24    0.09155      0.00000     0.40714    0.00131     0.40845
      H   25    0.09170      0.00000     0.40694    0.00136     0.40830
      H   26    0.09391      0.00000     0.40449    0.00159     0.40609
      H   27    0.10246      0.00000     0.39624    0.00130     0.39754
      H   28    0.10289      0.00000     0.39576    0.00135     0.39711
      H   29    0.10479      0.00000     0.39355    0.00166     0.39521
      H   30    0.10416      0.00000     0.39431    0.00153     0.39584
      H   31    0.23393      0.00000     0.26336    0.00271     0.26607
 =======================================================================
   * Total *   -0.00000     15.99363    41.82762    0.17874    58.00000

 Normal termination of Gaussian 16 at Thu Dec 10 22:29:17 2020.
