 Gaussian 16, Revision A.03,

 -----------------------------------------------------------
 # opt freq B3LYP/6-31G(d) empiricaldispersion=gd3bj scf=xqc
 -----------------------------------------------------------

 ------------------------------
 CID_64268376_JID_2452_neutraal
 ------------------------------
 Symbolic Z-matrix:
 Charge =  0 Multiplicity = 1

 SCF Done:  E(RB3LYP) =  -519.867460585     A.U. after   13 cycles
 SCF Done:  E(RB3LYP) =  -519.872637304     A.U. after   11 cycles
 SCF Done:  E(RB3LYP) =  -519.872926579     A.U. after   11 cycles
 SCF Done:  E(RB3LYP) =  -519.873464060     A.U. after   10 cycles
 SCF Done:  E(RB3LYP) =  -519.873685962     A.U. after   10 cycles
 SCF Done:  E(RB3LYP) =  -519.873795115     A.U. after   11 cycles
 SCF Done:  E(RB3LYP) =  -519.874010119     A.U. after   10 cycles
 SCF Done:  E(RB3LYP) =  -519.873999337     A.U. after   11 cycles
 SCF Done:  E(RB3LYP) =  -519.874122194     A.U. after   10 cycles
 SCF Done:  E(RB3LYP) =  -519.874129064     A.U. after    8 cycles
 SCF Done:  E(RB3LYP) =  -519.874251751     A.U. after    9 cycles
 SCF Done:  E(RB3LYP) =  -519.874252306     A.U. after    8 cycles
 SCF Done:  E(RB3LYP) =  -519.874252542     A.U. after    8 cycles
 SCF Done:  E(RB3LYP) =  -519.874252623     A.U. after    8 cycles
 SCF Done:  E(RB3LYP) =  -519.874252660     A.U. after    7 cycles
 SCF Done:  E(RB3LYP) =  -519.874252664     A.U. after    6 cycles
 Optimization completed.
    -- Stationary point found.

 1\1\GINC-NODE101\FOpt\RB3LYP\6-31G(d)\C9H21N3\VSC10255\09-Dec-2020\0\\
 # opt freq B3LYP/6-31G(d) empiricaldispersion=gd3bj scf=xqc\\CID_64268
 376_JID_2452_neutraal\\0,1\C,0.8521948606,-0.0194738804,0.2528321775\C
 ,0.4903475166,-0.943595598,-0.9116287954\C,1.2377020722,-2.2976513091,
 -0.8512868977\N,1.1116739002,-3.002867647,0.4209451079\C,0.9085332814,
 -4.4469486194,0.3146984931\C,0.983478968,-4.9094742779,1.7734115388\C,
 1.9808318214,-3.907342475,2.4435359596\C,2.23647225,-2.8610106317,1.33
 95537954\N,3.2529661484,-4.4393891656,2.9329622179\N,-0.9691738821,-1.

 Normal termination of Gaussian 16 at Wed Dec  9 17:35:06 2020.

 --------------------------------------------------------------------
 #N Geom=AllCheck Guess=TCheck SCRF=Check GenChk RB3LYP/6-31G(d) Freq
 --------------------------------------------------------------------

 Structure from the checkpoint file:  "JID_2452.chk"
 ------------------------------
 CID_64268376_JID_2452_neutraal
 ------------------------------
 Charge =  0 Multiplicity = 1

 SCF Done:  E(RB3LYP) =  -519.874252664     A.U. after    1 cycles

  Exact polarizability: 132.086   1.476 108.694   0.751  -2.049 102.440
 Approx polarizability: 159.843   2.217 154.001  -0.853  -2.990 154.099

                      1                      2                      3
                      A                      A                      A
 Frequencies --     21.4973                39.4531                56.5084
 Red. masses --      3.1584                 2.8834                 2.6376
 Frc consts  --      0.0009                 0.0026                 0.0050
 IR Inten    --      0.3486                 0.0527                 0.2985

                      4                      5                      6
                      A                      A                      A
 Frequencies --     77.3939               133.8825               179.4808
 Red. masses --      2.5312                 2.6424                 3.4128
 Frc consts  --      0.0089                 0.0279                 0.0648
 IR Inten    --      0.3984                 0.9950                 1.8677

                      7                      8                      9
                      A                      A                      A
 Frequencies --    243.6229               259.2982               260.4485
 Red. masses --      1.3632                 1.2663                 1.3719
 Frc consts  --      0.0477                 0.0502                 0.0548
 IR Inten    --      0.6004                 0.2145                 0.8849

                     10                     11                     12
                      A                      A                      A
 Frequencies --    273.1303               293.5081               310.9038
 Red. masses --      1.6071                 1.7452                 1.1293
 Frc consts  --      0.0706                 0.0886                 0.0643
 IR Inten    --      0.1642                 2.5859                48.1296

                     13                     14                     15
                      A                      A                      A
 Frequencies --    322.0637               362.8083               366.8526
 Red. masses --      1.8262                 2.1408                 2.4113
 Frc consts  --      0.1116                 0.1660                 0.1912
 IR Inten    --      1.9784                 8.4945                 2.8113

                     16                     17                     18
                      A                      A                      A
 Frequencies --    421.3430               441.4736               457.6336
 Red. masses --      2.0952                 1.9983                 2.7861
 Frc consts  --      0.2192                 0.2295                 0.3438
 IR Inten    --      6.2673                 0.8440                 3.9901

                     19                     20                     21
                      A                      A                      A
 Frequencies --    480.7889               541.9268               629.5864
 Red. masses --      2.8400                 3.1885                 2.8063
 Frc consts  --      0.3868                 0.5517                 0.6554
 IR Inten    --      9.6465                 0.2622                 3.4656

                     22                     23                     24
                      A                      A                      A
 Frequencies --    680.6479               745.1934               796.2644
 Red. masses --      2.6900                 2.8312                 2.0915
 Frc consts  --      0.7343                 0.9263                 0.7813
 IR Inten    --      5.5851                11.1045                 6.9695

                     25                     26                     27
                      A                      A                      A
 Frequencies --    861.8127               889.8043               907.0850
 Red. masses --      2.8122                 2.4431                 1.6113
 Frc consts  --      1.2306                 1.1397                 0.7811
 IR Inten    --      9.1184                19.2039               129.0076

                     28                     29                     30
                      A                      A                      A
 Frequencies --    921.9447               927.9913               982.3832
 Red. masses --      1.8136                 2.0825                 1.8410
 Frc consts  --      0.9083                 1.0566                 1.0468
 IR Inten    --     30.5036                 4.1321                 4.0208

                     31                     32                     33
                      A                      A                      A
 Frequencies --   1001.1569              1018.7151              1045.6894
 Red. masses --      1.6520                 1.8669                 1.8559
 Frc consts  --      0.9756                 1.1415                 1.1957
 IR Inten    --      3.6865                 4.6076                23.8854

                     34                     35                     36
                      A                      A                      A
 Frequencies --   1056.5000              1074.8865              1084.0571
 Red. masses --      1.8650                 2.1180                 1.5272
 Frc consts  --      1.2265                 1.4418                 1.0574
 IR Inten    --     37.6977                 5.2350                15.5887

                     37                     38                     39
                      A                      A                      A
 Frequencies --   1110.1943              1125.4313              1136.4882
 Red. masses --      2.1274                 1.7282                 1.3841
 Frc consts  --      1.5449                 1.2897                 1.0533
 IR Inten    --     22.3958                25.1963                15.1851

                     40                     41                     42
                      A                      A                      A
 Frequencies --   1151.2396              1178.1750              1186.1234
 Red. masses --      2.0627                 1.2597                 1.8501
 Frc consts  --      1.6107                 1.0303                 1.5336
 IR Inten    --      7.3339                13.9157                27.9392

                     43                     44                     45
                      A                      A                      A
 Frequencies --   1194.8233              1204.3424              1251.7598
 Red. masses --      1.6277                 2.0949                 1.3278
 Frc consts  --      1.3691                 1.7903                 1.2258
 IR Inten    --     12.8203                 1.5488                 4.4395

                     46                     47                     48
                      A                      A                      A
 Frequencies --   1255.8634              1269.4812              1288.7009
 Red. masses --      2.5287                 1.5856                 1.6758
 Frc consts  --      2.3498                 1.5056                 1.6397
 IR Inten    --     17.0789                 0.2077                11.4434

                     49                     50                     51
                      A                      A                      A
 Frequencies --   1318.9949              1333.5401              1335.8462
 Red. masses --      1.8457                 1.3320                 1.5067
 Frc consts  --      1.8919                 1.3957                 1.5841
 IR Inten    --      0.9656                 3.5527                14.2911

                     52                     53                     54
                      A                      A                      A
 Frequencies --   1346.8125              1357.7644              1380.9325
 Red. masses --      1.3778                 1.4692                 1.3538
 Frc consts  --      1.4724                 1.5959                 1.5211
 IR Inten    --     24.5938                 4.4037                 4.7864

                     55                     56                     57
                      A                      A                      A
 Frequencies --   1400.9266              1416.2837              1426.1522
 Red. masses --      1.4378                 1.2941                 1.3035
 Frc consts  --      1.6625                 1.5294                 1.5621
 IR Inten    --     35.5739                 6.0741                18.6787

                     58                     59                     60
                      A                      A                      A
 Frequencies --   1444.0513              1444.7687              1471.3681
 Red. masses --      1.3940                 1.4071                 1.1491
 Frc consts  --      1.7126                 1.7305                 1.4657
 IR Inten    --     10.6056                14.5611                 0.4343

                     61                     62                     63
                      A                      A                      A
 Frequencies --   1499.2970              1502.7445              1508.2690
 Red. masses --      1.1516                 1.0522                 1.0748
 Frc consts  --      1.5253                 1.4000                 1.4406
 IR Inten    --      5.9576                 7.2369                 1.2752

                     64                     65                     66
                      A                      A                      A
 Frequencies --   1513.4688              1520.6200              1523.8246
 Red. masses --      1.0905                 1.0711                 1.0583
 Frc consts  --      1.4717                 1.4593                 1.4479
 IR Inten    --      2.1631                10.8985                14.9868

                     67                     68                     69
                      A                      A                      A
 Frequencies --   1529.2867              1536.5083              1547.4449
 Red. masses --      1.0743                 1.0664                 1.0679
 Frc consts  --      1.4803                 1.4833                 1.5066
 IR Inten    --      6.6949                 2.8111                 7.1753

                     70                     71                     72
                      A                      A                      A
 Frequencies --   1549.4724              1554.4126              1695.3797
 Red. masses --      1.0583                 1.0896                 1.0910
 Frc consts  --      1.4970                 1.5511                 1.8477
 IR Inten    --      1.8003                 3.5475                28.1638

                     73                     74                     75
                      A                      A                      A
 Frequencies --   2898.5319              2912.4091              2924.2730
 Red. masses --      1.0741                 1.0739                 1.0630
 Frc consts  --      5.3169                 5.3670                 5.3555
 IR Inten    --     46.0230               106.1838                77.0920

                     76                     77                     78
                      A                      A                      A
 Frequencies --   2954.7902              2972.6706              3022.7261
 Red. masses --      1.0726                 1.0591                 1.0843
 Frc consts  --      5.5177                 5.5141                 5.8371
 IR Inten    --     76.6489                95.1354                42.5147

                     79                     80                     81
                      A                      A                      A
 Frequencies --   3058.7147              3061.1556              3062.7009
 Red. masses --      1.0492                 1.0694                 1.0654
 Frc consts  --      5.7836                 5.9044                 5.8881
 IR Inten    --     36.5315                25.8689                34.3484

                     82                     83                     84
                      A                      A                      A
 Frequencies --   3063.9062              3073.8813              3077.0931
 Red. masses --      1.0675                 1.0887                 1.0838
 Frc consts  --      5.9042                 6.0607                 6.0462
 IR Inten    --     69.4270                 5.4872                36.8373

                     85                     86                     87
                      A                      A                      A
 Frequencies --   3084.4369              3110.3590              3112.0719
 Red. masses --      1.0859                 1.1032                 1.1057
 Frc consts  --      6.0871                 6.2880                 6.3095
 IR Inten    --     48.3829                29.6112                42.1565

                     88                     89                     90
                      A                      A                      A
 Frequencies --   3125.7056              3127.8268              3142.0560
 Red. masses --      1.0959                 1.0921                 1.1017
 Frc consts  --      6.3084                 6.2950                 6.4084
 IR Inten    --     40.3285                29.8702                22.0255

                     91                     92                     93
                      A                      A                      A
 Frequencies --   3157.1486              3451.9602              3540.6426
 Red. masses --      1.0940                 1.0497                 1.0919
 Frc consts  --      6.4250                 7.3698                 8.0651
 IR Inten    --     30.2327                 2.2015                 1.2797

 - Thermochemistry -
 -------------------
 Temperature   298.150 Kelvin.  Pressure   1.00000 Atm.
 Atom     1 has atomic number  6 and mass  12.00000

 Molecular mass:   171.17355 amu.
 Principal axes and moments of inertia in atomic units:
                           1         2         3
     Eigenvalues --  1002.808563653.463793996.15068
           X            1.00000   0.00014   0.00078
           Y           -0.00014   1.00000   0.00209
           Z           -0.00077  -0.00209   1.00000
 This molecule is an asymmetric top.
 Rotational symmetry number  1.
 Warning -- assumption of classical behavior for rotation
           may cause significant error
 Rotational temperatures (Kelvin)      0.08637     0.02371     0.02167
 Rotational constants (GHZ):           1.79969     0.49398     0.45162
 Zero-point vibrational energy     805168.1 (Joules/Mol)
                                  192.43979 (Kcal/Mol)
 Warning -- explicit consideration of  20 degrees of freedom as
           vibrations may cause significant error
 Vibrational temperatures:     30.93    56.76    81.30   111.35   192.63
          (Kelvin)            258.23   350.52   373.07   374.73   392.97
                              422.29   447.32   463.38   522.00   527.82
                              606.22   635.18   658.43   691.75   779.71
                              905.83   979.30  1072.17  1145.65  1239.96
                             1280.23  1305.09  1326.47  1335.17  1413.43
                             1440.44  1465.70  1504.51  1520.07  1546.52
                             1559.72  1597.32  1619.24  1635.15  1656.38
                             1695.13  1706.57  1719.08  1732.78  1801.00
                             1806.91  1826.50  1854.15  1897.74  1918.67
                             1921.98  1937.76  1953.52  1986.85  2015.62
                             2037.72  2051.91  2077.67  2078.70  2116.97
                             2157.15  2162.11  2170.06  2177.54  2187.83
                             2192.44  2200.30  2210.69  2226.43  2229.35
                             2236.45  2439.27  4170.34  4190.31  4207.38
                             4251.28  4277.01  4349.03  4400.81  4404.32
                             4406.54  4408.28  4422.63  4427.25  4437.82
                             4475.11  4477.58  4497.19  4500.25  4520.72
                             4542.43  4966.60  5094.20

 Zero-point correction=                           0.306672 (Hartree/Particle)
 Thermal correction to Energy=                    0.320479
 Thermal correction to Enthalpy=                  0.321423
 Thermal correction to Gibbs Free Energy=         0.265363
 Sum of electronic and zero-point Energies=           -519.567580
 Sum of electronic and thermal Energies=              -519.553774
 Sum of electronic and thermal Enthalpies=            -519.552829
 Sum of electronic and thermal Free Energies=         -519.608889

                     E (Thermal)             CV                S
                      KCal/Mol        Cal/Mol-Kelvin    Cal/Mol-Kelvin
 Total                  201.104             52.057            117.988
 Electronic               0.000              0.000              0.000
 Translational            0.889              2.981             41.320
 Rotational               0.889              2.981             31.060
 Vibrational            199.326             46.095             45.607
 Vibration     1          0.593              1.985              6.491
 Vibration     2          0.594              1.981              5.286
 Vibration     3          0.596              1.975              4.576
 Vibration     4          0.599              1.964              3.956
 Vibration     5          0.613              1.919              2.890
 Vibration     6          0.629              1.868              2.334
 Vibration     7          0.659              1.773              1.776
 Vibration     8          0.668              1.747              1.666
 Vibration     9          0.668              1.745              1.659
 Vibration    10          0.676              1.723              1.576
 Vibration    11          0.688              1.686              1.454
 Vibration    12          0.700              1.653              1.358
 Vibration    13          0.707              1.631              1.300
 Vibration    14          0.737              1.549              1.110
 Vibration    15          0.740              1.540              1.093
 Vibration    16          0.784              1.424              0.887
 Vibration    17          0.801              1.380              0.822
 Vibration    18          0.816              1.344              0.773
 Vibration    19          0.837              1.293              0.708
 Vibration    20          0.897              1.157              0.561

 Optimization completed.
    -- Stationary point found.

 1\1\GINC-NODE101\Freq\RB3LYP\6-31G(d)\C9H21N3\VSC10255\09-Dec-2020\0\\
 #N Geom=AllCheck Guess=TCheck SCRF=Check GenChk RB3LYP/6-31G(d) Freq\\
 CID_64268376_JID_2452_neutraal\\0,1\C,0.8521948606,-0.0194738804,0.252
 8321775\C,0.4903475166,-0.943595598,-0.9116287954\C,1.2377020722,-2.29
 76513091,-0.8512868977\N,1.1116739002,-3.002867647,0.4209451079\C,0.90
 85332814,-4.4469486194,0.3146984931\C,0.983478968,-4.9094742779,1.7734
 115388\C,1.9808318214,-3.907342475,2.4435359596\C,2.23647225,-2.861010
 6317,1.3395537954\N,3.2529661484,-4.4393891656,2.9329622179\N,-0.96917

 Normal termination of Gaussian 16 at Wed Dec  9 17:44:51 2020.

 ----------------------------------------------------------------------
 # B3LYP/6-311++G(d,p) empiricaldispersion=gd3bj scf=xqc pop=npa geom=c
 heck
 ----------------------------------------------------------------------

 --------------------------------------
 CID_64268376_JID_2452_Energie_neutraal
 --------------------------------------
 Structure from the checkpoint file:  "JID_2452.chk"
 Charge =  0 Multiplicity = 1

 SCF Done:  E(RB3LYP) =  -520.027679377     A.U. after   14 cycles
 Normal termination of Gaussian 16 at Wed Dec  9 17:50:07 2020.

 ----------------------------------------------------------------------
 # B3LYP/6-311++G(d,p) empiricaldispersion=gd3bj scf=xqc pop=npa geom=c
 heck
 ----------------------------------------------------------------------

 ------------------------------------
 CID_64268376_JID_2452_Energie_kation
 ------------------------------------
 Structure from the checkpoint file:  "JID_2452.chk"
 Charge =  1 Multiplicity = 2

 SCF Done:  E(UB3LYP) =  -519.760901052     A.U. after   22 cycles
 Normal termination of Gaussian 16 at Wed Dec  9 18:00:59 2020.
 Gaussian 16:  ES64L-G16RevA.03 25-Dec-2016

 -----------------------------------
 CID_64268376_JID_2452_Energie_anion
 -----------------------------------
 Structure from the checkpoint file:  "JID_2452.chk"
 Charge = -1 Multiplicity = 2

                         Standard orientation:
 ---------------------------------------------------------------------
 Center     Atomic      Atomic             Coordinates (Angstroms)
 Number     Number       Type             X           Y           Z
 ---------------------------------------------------------------------
      1          6           0       -1.464329    2.061634    0.519587
      2          6           0       -1.848444    0.894146   -0.391637
      3          6           0       -0.630526    0.292433   -1.133436
      4          7           0        0.483720   -0.079348   -0.266244
      5          6           0        1.132180   -1.347875   -0.595279
      6          6           0        2.331920   -1.374009    0.357260
      7          6           0        2.715058    0.132634    0.534117
      8          6           0        1.579987    0.880943   -0.194296
      9          7           0        4.013223    0.568899    0.018967
     10          7           0       -2.687578   -0.073684    0.330811
     11          6           0       -3.445520   -0.950684   -0.541287
     12          6           0       -2.043880   -0.828750    1.396478
     13          1           0       -0.771712    1.747827    1.305280
     14          1           0       -2.360870    2.472072    0.993133
     15          1           0       -0.976512    2.854883   -0.058051
     16          1           0       -2.502368    1.298672   -1.177396
     17          1           0       -0.966147   -0.603916   -1.667909
     18          1           0       -0.298588    1.004200   -1.911448
     19          1           0        0.438432   -2.183178   -0.451194
     20          1           0        1.473395   -1.374379   -1.650407
     21          1           0        3.170251   -1.959437   -0.035072
     22          1           0        2.038262   -1.808768    1.318240
     23          1           0        2.700321    0.386007    1.598990
     24          1           0        1.931927    1.170492   -1.206940
     25          1           0        1.283569    1.798978    0.317303
     26          1           0        4.761080    0.093892    0.522458
     27          1           0        4.103884    0.285594   -0.956958
     28          1           0       -2.832945   -1.709468   -1.068566
     29          1           0       -4.191964   -1.493731    0.050494
     30          1           0       -3.975765   -0.360248   -1.296730
     31          1           0       -1.367536   -1.623042    1.034276
     32          1           0       -1.459853   -0.166952    2.037754
     33          1           0       -2.821094   -1.303398    2.008971
 ---------------------------------------------------------------------

 SCF Done:  E(UB3LYP) =  -520.012126183     A.U. after   28 cycles

 The electronic state is 2-A.
 Alpha  occ. eigenvalues --  -14.19898 -14.19831 -14.19099 -10.09690 -10.09593
 Alpha  occ. eigenvalues --  -10.08735 -10.08604 -10.08498 -10.08334 -10.07786
 Alpha  occ. eigenvalues --  -10.05894 -10.05736  -0.83797  -0.81620  -0.77896
 Alpha  occ. eigenvalues --   -0.67984  -0.64096  -0.61693  -0.60244  -0.56934
 Alpha  occ. eigenvalues --   -0.53912  -0.48460  -0.47573  -0.45151  -0.40675
 Alpha  occ. eigenvalues --   -0.39190  -0.37911  -0.36873  -0.36345  -0.34861
 Alpha  occ. eigenvalues --   -0.33478  -0.31649  -0.31300  -0.30141  -0.29706
 Alpha  occ. eigenvalues --   -0.28509  -0.27753  -0.26830  -0.26469  -0.26079
 Alpha  occ. eigenvalues --   -0.25529  -0.24824  -0.23602  -0.22888  -0.21782
 Alpha  occ. eigenvalues --   -0.14086  -0.12641  -0.10130   0.04545
 Alpha virt. eigenvalues --    0.06315   0.07433   0.07604   0.08468   0.09006
 Alpha virt. eigenvalues --    0.09563   0.09909   0.10392   0.10958   0.11521
 Alpha virt. eigenvalues --    0.12149   0.12213   0.13070   0.13400   0.14210

  Beta  occ. eigenvalues --  -14.19894 -14.19818 -14.19060 -10.09681 -10.09583
  Beta  occ. eigenvalues --  -10.08722 -10.08582 -10.08486 -10.08303 -10.07767
  Beta  occ. eigenvalues --  -10.05870 -10.05722  -0.83773  -0.81601  -0.77830
  Beta  occ. eigenvalues --   -0.67952  -0.64057  -0.61648  -0.60202  -0.56887
  Beta  occ. eigenvalues --   -0.53862  -0.48399  -0.47514  -0.45101  -0.40626
  Beta  occ. eigenvalues --   -0.39150  -0.37870  -0.36837  -0.36303  -0.34829
  Beta  occ. eigenvalues --   -0.33443  -0.31602  -0.31269  -0.30098  -0.29680
  Beta  occ. eigenvalues --   -0.28483  -0.27719  -0.26798  -0.26438  -0.26046
  Beta  occ. eigenvalues --   -0.25500  -0.24789  -0.23567  -0.22858  -0.21745
  Beta  occ. eigenvalues --   -0.14043  -0.12579  -0.10084
  Beta virt. eigenvalues --    0.06646   0.07420   0.07959   0.08046   0.09138
  Beta virt. eigenvalues --    0.09484   0.09952   0.10157   0.10751   0.11524
  Beta virt. eigenvalues --    0.11975   0.12398   0.12518   0.13369   0.13651

 Mulliken charges and spin densities:
               1          2
     1  C    0.267058  -0.806512
     2  C   -1.406104   1.234287
     3  C    0.036801  -0.683823
     4  N    0.231821   0.121992
     5  C   -0.248692   0.103381
     6  C    1.046002  -1.572704
     7  C   -0.359415   0.170827
     8  C    0.524883  -0.948625
     9  N   -0.267528  -0.046426
    10  N    0.080584   0.052214
    11  C    0.734909  -0.984763
    12  C    0.101462  -0.507191
    13  H    0.073303   0.074230
    14  H    0.040496   0.127162
    15  H    0.019009   0.114974
    16  H   -0.266594   0.437058
    17  H    0.031379   0.128798
    18  H   -0.234489   0.338878
    19  H   -0.312648   0.454090
    20  H   -0.103306   0.225961
    21  H   -0.275522   0.450186
    22  H   -0.009825   0.138225
    23  H   -0.136438   0.324022
    24  H   -0.011470   0.134716
    25  H    0.098031   0.029897
    26  H   -0.165550   0.399907
    27  H    0.000455   0.212634
    28  H   -0.174795   0.282719
    29  H   -0.093958   0.222263
    30  H   -0.340805   0.473614
    31  H    0.084477   0.056984
    32  H    0.062031   0.071218
    33  H   -0.025562   0.169807
 Sum of Mulliken charges =  -1.00000   1.00000

 Dipole moment (field-independent basis, Debye):
    X=             -1.8397    Y=              1.5554    Z=              1.3610  Tot=              2.7670
 Quadrupole moment (field-independent basis, Debye-Ang):
   XX=           -162.5843   YY=           -117.3336   ZZ=           -111.4432
   XY=             -0.4886   XZ=             -3.1001   YZ=             -0.4900

 Summary of Natural Population Analysis:

                                       Natural Population
                Natural  -----------------------------------------------
    Atom  No    Charge         Core      Valence    Rydberg      Total
 -----------------------------------------------------------------------
      C    1   -0.28990      0.99964     2.28502    0.00524     3.28990
      C    2   -0.00440      0.99958     1.99001    0.01481     3.00440
      C    3   -0.09148      0.99958     2.07983    0.01206     3.09148
      N    4   -0.29278      0.99970     2.77973    0.01334     3.79278
      C    5   -0.08115      0.99963     2.07010    0.01143     3.08115
      C    6   -0.20182      0.99961     2.19264    0.00956     3.20182
      C    7   -0.01681      0.99961     2.00314    0.01407     3.01681
      C    8   -0.07873      0.99960     2.06952    0.00961     3.07873
      N    9   -0.41989      0.99977     2.90915    0.01097     3.91989
      N   10   -0.28272      0.99972     2.76875    0.01425     3.78272
      C   11   -0.17572      0.99964     2.16709    0.00899     3.17572
      C   12   -0.17617      0.99963     2.16778    0.00876     3.17617
      H   13    0.10002      0.00000     0.39868    0.00129     0.39998
      H   14    0.10231      0.00000     0.39626    0.00143     0.39769
      H   15    0.09854      0.00000     0.40063    0.00084     0.40146
      H   16    0.09339      0.00000     0.40511    0.00150     0.40661
      H   17    0.09926      0.00000     0.39904    0.00171     0.40074
      H   18    0.08792      0.00000     0.41053    0.00155     0.41208
      H   19    0.09731      0.00000     0.40098    0.00171     0.40269
      H   20    0.07888      0.00000     0.41951    0.00160     0.42112
      H   21    0.10049      0.00000     0.39748    0.00203     0.39951
      H   22    0.09972      0.00000     0.39864    0.00164     0.40028
      H   23    0.09116      0.00000     0.40765    0.00119     0.40884
      H   24    0.07856      0.00000     0.41983    0.00161     0.42144
      H   25    0.09830      0.00000     0.40016    0.00154     0.40170
      H   26    0.17569      0.00000     0.32185    0.00246     0.32431
      H   27    0.17186      0.00000     0.32566    0.00248     0.32814
      H   28    0.07941      0.00000     0.41880    0.00178     0.42059
      H   29    0.09345      0.00000     0.40539    0.00116     0.40655
      H   30    0.09497      0.00000     0.40359    0.00144     0.40503
      H   31    0.08393      0.00000     0.41467    0.00140     0.41607
      H   32    0.09763      0.00000     0.40099    0.00138     0.40237
      H   33    0.08878      0.00000     0.41020    0.00103     0.41122
 =======================================================================
   * Total *   -0.00000     11.99571    35.83841    0.16588    48.00000

 Normal termination of Gaussian 16 at Wed Dec  9 18:14:39 2020.
