 Gaussian 16, Revision A.03,

 -----------------------------------------------------------
 # opt freq B3LYP/6-31G(d) empiricaldispersion=gd3bj scf=xqc
 -----------------------------------------------------------

 ------------------------------
 CID_61048802_JID_4970_neutraal
 ------------------------------
 Symbolic Z-matrix:
 Charge =  0 Multiplicity = 1

 SCF Done:  E(RB3LYP) =  -634.630581474     A.U. after   13 cycles
 SCF Done:  E(RB3LYP) =  -634.634262814     A.U. after   12 cycles
 SCF Done:  E(RB3LYP) =  -634.632841206     A.U. after   12 cycles
 SCF Done:  E(RB3LYP) =  -634.634595044     A.U. after   12 cycles
 SCF Done:  E(RB3LYP) =  -634.635064635     A.U. after   11 cycles
 SCF Done:  E(RB3LYP) =  -634.635235420     A.U. after   11 cycles
 SCF Done:  E(RB3LYP) =  -634.635292912     A.U. after   11 cycles
 SCF Done:  E(RB3LYP) =  -634.635326355     A.U. after    9 cycles
 SCF Done:  E(RB3LYP) =  -634.635336023     A.U. after    9 cycles
 SCF Done:  E(RB3LYP) =  -634.635338159     A.U. after    8 cycles
 SCF Done:  E(RB3LYP) =  -634.635339381     A.U. after    8 cycles
 SCF Done:  E(RB3LYP) =  -634.635339550     A.U. after    7 cycles
 Optimization completed.
    -- Stationary point found.
 Normal termination of Gaussian 16 at Thu Dec 10 11:00:14 2020.

 --------------------------------------------------------------------
 #N Geom=AllCheck Guess=TCheck SCRF=Check GenChk RB3LYP/6-31G(d) Freq
 --------------------------------------------------------------------

 Structure from the checkpoint file:  "JID_4970.chk"
 ------------------------------
 CID_61048802_JID_4970_neutraal
 ------------------------------
 Charge =  0 Multiplicity = 1

 SCF Done:  E(RB3LYP) =  -634.635339551     A.U. after    1 cycles

  Exact polarizability: 162.920   1.268 130.782  10.279  -7.309  86.777
 Approx polarizability: 218.238  -2.534 207.186  25.705 -19.148 136.704

                      1                      2                      3
                      A                      A                      A
 Frequencies --     22.8141                55.7637                78.2169
 Red. masses --      4.1102                 3.0280                 4.0409
 Frc consts  --      0.0013                 0.0055                 0.0146
 IR Inten    --      0.0987                 0.5154                 0.1804

                      4                      5                      6
                      A                      A                      A
 Frequencies --     95.8057               163.5742               182.4742
 Red. masses --      3.5772                 6.4204                 4.0650
 Frc consts  --      0.0193                 0.1012                 0.0797
 IR Inten    --      1.0208                 9.7753                 6.2777

                      7                      8                      9
                      A                      A                      A
 Frequencies --    205.6907               223.2256               233.7698
 Red. masses --      2.4177                 1.1641                 4.0277
 Frc consts  --      0.0603                 0.0342                 0.1297
 IR Inten    --      1.7252                18.1162                 0.5370

                     10                     11                     12
                      A                      A                      A
 Frequencies --    250.5166               265.2022               278.9860
 Red. masses --      3.0248                 1.5132                 2.6144
 Frc consts  --      0.1118                 0.0627                 0.1199
 IR Inten    --      0.2279                21.4845                 9.5565

                     13                     14                     15
                      A                      A                      A
 Frequencies --    323.6010               361.0031               377.6658
 Red. masses --      2.2993                 1.2763                 1.1071
 Frc consts  --      0.1419                 0.0980                 0.0930
 IR Inten    --      0.9275               130.0243               117.9663

                     16                     17                     18
                      A                      A                      A
 Frequencies --    401.3645               431.0543               439.7916
 Red. masses --      2.2323                 2.3069                 3.4990
 Frc consts  --      0.2119                 0.2525                 0.3987
 IR Inten    --      7.8151                11.6252                 5.5992

                     19                     20                     21
                      A                      A                      A
 Frequencies --    450.7189               482.4318               541.5458
 Red. masses --      2.1888                 2.8108                 6.7258
 Frc consts  --      0.2620                 0.3854                 1.1622
 IR Inten    --      6.4579                 3.0516                 1.9555

                     22                     23                     24
                      A                      A                      A
 Frequencies --    547.0902               599.2151               634.7409
 Red. masses --      1.9343                 2.7716                 3.9122
 Frc consts  --      0.3411                 0.5863                 0.9287
 IR Inten    --     29.0236                 7.4450                13.9151

                     25                     26                     27
                      A                      A                      A
 Frequencies --    712.4993               715.8957               760.4637
 Red. masses --      2.9663                 3.3273                 4.0606
 Frc consts  --      0.8872                 1.0047                 1.3836
 IR Inten    --     16.2169                10.5417                 9.3927

                     28                     29                     30
                      A                      A                      A
 Frequencies --    798.4933               861.3604               887.1790
 Red. masses --      1.5277                 2.1908                 3.0653
 Frc consts  --      0.5739                 0.9577                 1.4215
 IR Inten    --     26.2970                 7.4878                 9.9344

                     31                     32                     33
                      A                      A                      A
 Frequencies --    892.9285               902.7809               936.7668
 Red. masses --      1.4652                 1.4082                 1.2829
 Frc consts  --      0.6883                 0.6762                 0.6633
 IR Inten    --      2.8021                15.1716                 1.3673

                     34                     35                     36
                      A                      A                      A
 Frequencies --    940.3272               947.0923               967.5685
 Red. masses --      2.4246                 1.4452                 1.2607
 Frc consts  --      1.2631                 0.7638                 0.6954
 IR Inten    --     18.2640                 2.3591                 0.3297

                     37                     38                     39
                      A                      A                      A
 Frequencies --    992.0759              1020.5498              1045.7085
 Red. masses --      1.8846                 6.0057                 1.9690
 Frc consts  --      1.0928                 3.6854                 1.2686
 IR Inten    --      8.8933                 1.1139                 7.4386

                     40                     41                     42
                      A                      A                      A
 Frequencies --   1088.3279              1111.7815              1148.7375
 Red. masses --      3.0547                 1.6267                 2.1527
 Frc consts  --      2.1318                 1.1847                 1.6737
 IR Inten    --     52.2276                21.1820                18.3390

                     43                     44                     45
                      A                      A                      A
 Frequencies --   1153.6782              1183.8437              1196.5245
 Red. masses --      2.8902                 1.6457                 1.1482
 Frc consts  --      2.2664                 1.3589                 0.9685
 IR Inten    --     36.7288                20.3763                20.4637

                     46                     47                     48
                      A                      A                      A
 Frequencies --   1201.3446              1210.2164              1222.9258
 Red. masses --      2.1160                 1.9451                 1.3263
 Frc consts  --      1.7993                 1.6785                 1.1686
 IR Inten    --     47.9432                55.8533               104.9772

                     49                     50                     51
                      A                      A                      A
 Frequencies --   1235.3685              1296.7923              1328.4602
 Red. masses --      1.2827                 1.9723                 1.3802
 Frc consts  --      1.1534                 1.9541                 1.4351
 IR Inten    --     23.3599                67.9295                25.9345

                     52                     53                     54
                      A                      A                      A
 Frequencies --   1344.2564              1358.6293              1367.7996
 Red. masses --      2.0303                 1.3533                 1.5291
 Frc consts  --      2.1616                 1.4718                 1.6856
 IR Inten    --     11.3893                 8.7531                 2.4952

                     55                     56                     57
                      A                      A                      A
 Frequencies --   1385.8282              1408.1508              1411.3572
 Red. masses --      2.6061                 1.2577                 1.4375
 Frc consts  --      2.9489                 1.4694                 1.6870
 IR Inten    --      3.4871                 1.5504                32.3622

                     58                     59                     60
                      A                      A                      A
 Frequencies --   1427.0914              1440.3166              1446.0087
 Red. masses --      1.2637                 1.2678                 1.2441
 Frc consts  --      1.5163                 1.5495                 1.5327
 IR Inten    --      7.5995                41.5370                15.6429

                     61                     62                     63
                      A                      A                      A
 Frequencies --   1497.5712              1503.7086              1515.6353
 Red. masses --      1.2142                 2.8712                 1.0516
 Frc consts  --      1.6044                 3.8251                 1.4233
 IR Inten    --     48.0259                84.0071                 2.5713

                     64                     65                     66
                      A                      A                      A
 Frequencies --   1519.3376              1534.5293              1543.2609
 Red. masses --      1.0592                 1.0873                 1.0756
 Frc consts  --      1.4405                 1.5085                 1.5093
 IR Inten    --      2.3810                 7.3082                11.3410

                     67                     68                     69
                      A                      A                      A
 Frequencies --   1544.6480              1556.6189              1663.1640
 Red. masses --      1.0648                 2.4530                 5.8161
 Frc consts  --      1.4968                 3.5020                 9.4788
 IR Inten    --      8.6782                 7.1334                74.2759

                     70                     71                     72
                      A                      A                      A
 Frequencies --   1669.5395              3001.5096              3016.4998
 Red. masses --      5.8312                 1.0763                 1.0791
 Frc consts  --      9.5764                 5.7128                 5.7850
 IR Inten    --     39.1639                25.4395                64.5405

                     73                     74                     75
                      A                      A                      A
 Frequencies --   3035.1147              3041.4812              3047.6821
 Red. masses --      1.0474                 1.0647                 1.0495
 Frc consts  --      5.6847                 5.8028                 5.7434
 IR Inten    --     11.2945                15.3259                43.9137

                     76                     77                     78
                      A                      A                      A
 Frequencies --   3098.5103              3107.7405              3110.3977
 Red. masses --      1.0988                 1.0928                 1.0997
 Frc consts  --      6.2156                 6.2186                 6.2685
 IR Inten    --      7.5114                37.4098                72.2157

                     79                     80                     81
                      A                      A                      A
 Frequencies --   3132.0168              3138.3046              3187.3785
 Red. masses --      1.0997                 1.1017                 1.0865
 Frc consts  --      6.3560                 6.3928                 6.5035
 IR Inten    --     26.5453                29.3765                 8.7918

                     82                     83                     84
                      A                      A                      A
 Frequencies --   3194.6876              3205.3398              3219.1046
 Red. masses --      1.0904                 1.0925                 1.0945
 Frc consts  --      6.5569                 6.6136                 6.6824
 IR Inten    --      9.2649                15.7073                11.8849

                     85                     86                     87
                      A                      A                      A
 Frequencies --   3529.7518              3724.5602              3748.2727
 Red. masses --      1.0747                 1.0648                 1.0658
 Frc consts  --      7.8892                 8.7034                 8.8226
 IR Inten    --      0.1657                19.8125                35.5388

 - Thermochemistry -
 -------------------
 Temperature   298.150 Kelvin.  Pressure   1.00000 Atm.
 Atom     1 has atomic number  6 and mass  12.00000

 Molecular mass:   195.12593 amu.
 Principal axes and moments of inertia in atomic units:
                           1         2         3
     Eigenvalues --  1500.777084740.211775704.42389
           X            0.99998  -0.00221  -0.00618
           Y            0.00224   0.99998   0.00572
           Z            0.00617  -0.00573   0.99996
 This molecule is an asymmetric top.
 Rotational symmetry number  1.
 Warning -- assumption of classical behavior for rotation
           may cause significant error
 Rotational temperatures (Kelvin)      0.05771     0.01827     0.01518
 Rotational constants (GHZ):           1.20254     0.38073     0.31638
 Zero-point vibrational energy     706285.8 (Joules/Mol)
                                  168.80635 (Kcal/Mol)
 Warning -- explicit consideration of  23 degrees of freedom as
           vibrations may cause significant error
 Vibrational temperatures:     32.82    80.23   112.54   137.84   235.35
          (Kelvin)            262.54   295.94   321.17   336.34   360.44
                              381.57   401.40   465.59   519.40   543.38
                              577.47   620.19   632.76   648.48   694.11
                              779.16   787.14   862.14   913.25  1025.13
                             1030.01  1094.14  1148.85  1239.31  1276.45
                             1284.72  1298.90  1347.80  1352.92  1362.65
                             1392.12  1427.38  1468.34  1504.54  1565.86
                             1599.61  1652.78  1659.89  1703.29  1721.53
                             1728.47  1741.23  1759.52  1777.42  1865.79
                             1911.36  1934.09  1954.76  1967.96  1993.90
                             2026.01  2030.63  2053.27  2072.29  2080.48
                             2154.67  2163.50  2180.66  2185.99  2207.85
                             2220.41  2222.40  2239.63  2392.92  2402.09
                             4318.50  4340.07  4366.85  4376.01  4384.93
                             4458.07  4471.35  4475.17  4506.27  4515.32
                             4585.93  4596.44  4611.77  4631.57  5078.53
                             5358.81  5392.93

 Zero-point correction=                           0.269010 (Hartree/Particle)
 Thermal correction to Energy=                    0.283607
 Thermal correction to Enthalpy=                  0.284552
 Thermal correction to Gibbs Free Energy=         0.227310
 Sum of electronic and zero-point Energies=           -634.366330
 Sum of electronic and thermal Energies=              -634.351732
 Sum of electronic and thermal Enthalpies=            -634.350788
 Sum of electronic and thermal Free Energies=         -634.408029

                     E (Thermal)             CV                S
                      KCal/Mol        Cal/Mol-Kelvin    Cal/Mol-Kelvin
 Total                  177.966             56.115            120.475
 Electronic               0.000              0.000              0.000
 Translational            0.889              2.981             41.711
 Rotational               0.889              2.981             32.073
 Vibrational            176.189             50.154             46.691
 Vibration     1          0.593              1.985              6.373
 Vibration     2          0.596              1.975              4.602
 Vibration     3          0.600              1.964              3.935
 Vibration     4          0.603              1.952              3.538
 Vibration     5          0.623              1.887              2.508
 Vibration     6          0.630              1.864              2.303
 Vibration     7          0.640              1.832              2.082
 Vibration     8          0.649              1.806              1.933
 Vibration     9          0.654              1.789              1.850
 Vibration    10          0.663              1.762              1.727
 Vibration    11          0.671              1.737              1.627
 Vibration    12          0.679              1.712              1.540
 Vibration    13          0.708              1.628              1.292
 Vibration    14          0.735              1.553              1.118
 Vibration    15          0.748              1.518              1.048
 Vibration    16          0.767              1.467              0.958
 Vibration    17          0.792              1.403              0.855
 Vibration    18          0.800              1.383              0.827
 Vibration    19          0.809              1.359              0.794
 Vibration    20          0.839              1.289              0.704
 Vibration    21          0.897              1.158              0.562
 Vibration    22          0.902              1.146              0.550
 Vibration    23          0.957              1.033              0.451

                           ! Non-Optimized Parameters !
 Normal termination of Gaussian 16 at Thu Dec 10 11:09:25 2020.

 ----------------------------------------------------------------------
 # B3LYP/6-311++G(d,p) empiricaldispersion=gd3bj scf=xqc pop=npa geom=c
 heck
 ----------------------------------------------------------------------

 --------------------------------------
 CID_61048802_JID_4970_Energie_neutraal
 --------------------------------------
 Structure from the checkpoint file:  "JID_4970.chk"
 Charge =  0 Multiplicity = 1

 SCF Done:  E(RB3LYP) =  -634.832196395     A.U. after   15 cycles
 Normal termination of Gaussian 16 at Thu Dec 10 11:13:22 2020.

 ----------------------------------------------------------------------
 # B3LYP/6-311++G(d,p) empiricaldispersion=gd3bj scf=xqc pop=npa geom=c
 heck
 ----------------------------------------------------------------------

 ------------------------------------
 CID_61048802_JID_4970_Energie_kation
 ------------------------------------
 Structure from the checkpoint file:  "JID_4970.chk"
 Charge =  1 Multiplicity = 2

 SCF Done:  E(UB3LYP) =  -634.548961046     A.U. after   23 cycles
 Normal termination of Gaussian 16 at Thu Dec 10 11:20:45 2020.
 Gaussian 16:  ES64L-G16RevA.03 25-Dec-2016

 ----------------------------------------------------------------------
 # B3LYP/6-311++G(d,p) empiricaldispersion=gd3bj scf=xqc pop=npa geom=c
 heck
 ----------------------------------------------------------------------

 -----------------------------------
 CID_61048802_JID_4970_Energie_anion
 -----------------------------------
 Structure from the checkpoint file:  "JID_4970.chk"
 Charge = -1 Multiplicity = 2

                         Standard orientation:
 ---------------------------------------------------------------------
 Center     Atomic      Atomic             Coordinates (Angstroms)
 Number     Number       Type             X           Y           Z
 ---------------------------------------------------------------------
      1          6           0        3.562736   -1.782546   -0.641616
      2          6           0        2.980642   -0.506936   -0.020286
      3          6           0        3.692992    0.736341   -0.584460
      4          7           0        1.527411   -0.516105   -0.197094
      5          6           0        0.652375    0.055041    0.827872
      6          6           0        0.894056    1.545936    1.137346
      7          8           0        0.816714    2.390630   -0.006065
      8          6           0       -0.785596   -0.289379    0.462968
      9          6           0       -1.679556    0.665654   -0.029202
     10          6           0       -2.987818    0.299612   -0.363652
     11          6           0       -3.413273   -1.021739   -0.218552
     12          6           0       -2.514718   -1.973177    0.261658
     13          6           0       -1.210423   -1.616586    0.598492
     14          8           0       -3.892045    1.207744   -0.845411
     15          1           0        3.376480   -1.799217   -1.723057
     16          1           0        3.089478   -2.667132   -0.206529
     17          1           0        4.646229   -1.844181   -0.487551
     18          1           0        3.153079   -0.542792    1.063702
     19          1           0        3.531468    0.803036   -1.669173
     20          1           0        3.336805    1.664302   -0.127213
     21          1           0        4.775440    0.679872   -0.421041
     22          1           0        1.229158   -0.288612   -1.141088
     23          1           0        0.888029   -0.478658    1.760906
     24          1           0        0.139092    1.909881    1.840811
     25          1           0        1.876143    1.650033    1.623594
     26          1           0        1.318322    1.946178   -0.708668
     27          1           0       -1.349898    1.691638   -0.167000
     28          1           0       -4.432691   -1.282128   -0.483567
     29          1           0       -2.840154   -3.003587    0.375768
     30          1           0       -0.510264   -2.363733    0.959837
     31          1           0       -3.464454    2.077511   -0.881670
 ---------------------------------------------------------------------

 SCF Done:  E(UB3LYP) =  -634.818895065     A.U. after   33 cycles
 SCF Done:  E(UB3LYP) =  -634.818895065     a.u. after    1 cycles

 The electronic state is 2-A.
 Alpha  occ. eigenvalues --  -19.05761 -19.02786 -14.20072 -10.14008 -10.11760
 Alpha  occ. eigenvalues --  -10.11288 -10.10540 -10.08822 -10.08340 -10.07607
 Alpha  occ. eigenvalues --  -10.07326 -10.07105 -10.06150 -10.05599  -0.96779
 Alpha  occ. eigenvalues --   -0.93070  -0.81581  -0.75913  -0.69369  -0.65232
 Alpha  occ. eigenvalues --   -0.64366  -0.61672  -0.58822  -0.54790  -0.52201
 Alpha  occ. eigenvalues --   -0.49160  -0.48908  -0.45196  -0.41769  -0.40030
 Alpha  occ. eigenvalues --   -0.38506  -0.38021  -0.37178  -0.34770  -0.34133
 Alpha  occ. eigenvalues --   -0.33532  -0.31792  -0.31448  -0.31179  -0.29871
 Alpha  occ. eigenvalues --   -0.29684  -0.28789  -0.27655  -0.26617  -0.25760
 Alpha  occ. eigenvalues --   -0.24490  -0.24438  -0.23791  -0.23553  -0.18604
 Alpha  occ. eigenvalues --   -0.15919  -0.13686  -0.12068   0.04358
 Alpha virt. eigenvalues --    0.06137   0.06890   0.07209   0.07897   0.08317
 Alpha virt. eigenvalues --    0.08609   0.09088   0.09655   0.10216   0.10736
 Alpha virt. eigenvalues --    0.11069   0.11329   0.12014   0.13072   0.13599

  Beta  occ. eigenvalues --  -19.05722 -19.02767 -14.20053 -10.14009 -10.11744
  Beta  occ. eigenvalues --  -10.11279 -10.10524 -10.08815 -10.08337 -10.07593
  Beta  occ. eigenvalues --  -10.07305 -10.07097 -10.06107 -10.05562  -0.96705
  Beta  occ. eigenvalues --   -0.93034  -0.81543  -0.75889  -0.69331  -0.65193
  Beta  occ. eigenvalues --   -0.64328  -0.61622  -0.58743  -0.54744  -0.52152
  Beta  occ. eigenvalues --   -0.49080  -0.48875  -0.45142  -0.41736  -0.39984
  Beta  occ. eigenvalues --   -0.38466  -0.37979  -0.37137  -0.34714  -0.34108
  Beta  occ. eigenvalues --   -0.33494  -0.31754  -0.31399  -0.31144  -0.29827
  Beta  occ. eigenvalues --   -0.29654  -0.28747  -0.27616  -0.26590  -0.25729
  Beta  occ. eigenvalues --   -0.24458  -0.24384  -0.23758  -0.23508  -0.18574
  Beta  occ. eigenvalues --   -0.15873  -0.13653  -0.12037
  Beta virt. eigenvalues --    0.06517   0.07264   0.07409   0.07577   0.08145
  Beta virt. eigenvalues --    0.08789   0.08971   0.09307   0.09952   0.10622
  Beta virt. eigenvalues --    0.11010   0.11469   0.11692   0.12345   0.13395

 Mulliken charges and spin densities:
               1          2
     1  C    1.088453  -1.624410
     2  C   -0.931811   1.035335
     3  C    0.882556  -1.443174
     4  N    0.104660  -0.103221
     5  C    1.147624  -1.700941
     6  C    0.606181  -1.224763
     7  O   -0.156524   0.001497
     8  C    0.683630   0.905244
     9  C   -2.934195   2.333040
    10  C    0.598706  -1.237897
    11  C    1.253684  -1.297020
    12  C   -0.458235   0.147589
    13  C   -0.641033   0.263377
    14  O   -0.260849   0.025393
    15  H   -0.156172   0.283836
    16  H   -0.180968   0.336916
    17  H   -0.254217   0.388556
    18  H   -0.190839   0.345527
    19  H   -0.300665   0.453960
    20  H   -0.059902   0.205697
    21  H   -0.250802   0.399553
    22  H    0.329289  -0.118018
    23  H   -0.216234   0.384803
    24  H   -0.034209   0.187259
    25  H   -0.075094   0.247981
    26  H    0.059608   0.198715
    27  H   -0.263780   0.460167
    28  H    0.089923   0.072452
    29  H   -0.045883   0.203020
    30  H   -0.168573   0.324675
    31  H   -0.264329   0.544854
 Sum of Mulliken charges =  -1.00000   1.00000

 Dipole moment (field-independent basis, Debye):
    X=             -3.5128    Y=             -1.6098    Z=              0.7159  Tot=              3.9299
 Quadrupole moment (field-independent basis, Debye-Ang):
   XX=           -172.2218   YY=           -131.6425   ZZ=           -115.2955
   XY=             12.1620   XZ=             -1.6677   YZ=              2.4247

 Summary of Natural Population Analysis:

                                       Natural Population
                Natural  -----------------------------------------------
    Atom  No    Charge         Core      Valence    Rydberg      Total
 -----------------------------------------------------------------------
      C    1   -0.28339      0.99965     2.27742    0.00633     3.28339
      C    2   -0.01422      0.99962     2.00297    0.01164     3.01422
      C    3   -0.29744      0.99964     2.29130    0.00650     3.29744
      N    4   -0.34817      0.99972     2.83574    0.01271     3.84817
      C    5   -0.02422      0.99955     2.01172    0.01295     3.02422
      C    6   -0.01813      0.99958     2.00651    0.01205     3.01813
      O    7   -0.37218      0.99990     3.36526    0.00702     4.37218
      C    8   -0.00565      0.99950     1.99545    0.01069     3.00565
      C    9   -0.14339      0.99946     2.13421    0.00972     3.14339
      C   10    0.15969      0.99939     1.82692    0.01399     2.84031
      C   11   -0.13099      0.99952     2.12211    0.00937     3.13099
      C   12   -0.09436      0.99957     2.08551    0.00928     3.09436
      C   13   -0.10903      0.99951     2.10054    0.00898     3.10903
      O   14   -0.34219      0.99988     3.33541    0.00691     4.34219
      H   15    0.09556      0.00000     0.40340    0.00104     0.40444
      H   16    0.10282      0.00000     0.39586    0.00131     0.39718
      H   17    0.09922      0.00000     0.39944    0.00134     0.40078
      H   18    0.09119      0.00000     0.40647    0.00234     0.40881
      H   19    0.09564      0.00000     0.40293    0.00143     0.40436
      H   20    0.09923      0.00000     0.39919    0.00158     0.40077
      H   21    0.10443      0.00000     0.39418    0.00139     0.39557
      H   22    0.17665      0.00000     0.32098    0.00237     0.32335
      H   23    0.09889      0.00000     0.39898    0.00213     0.40111
      H   24    0.09086      0.00000     0.40774    0.00140     0.40914
      H   25    0.08021      0.00000     0.41833    0.00146     0.41979
      H   26    0.22903      0.00000     0.26686    0.00411     0.27097
      H   27    0.11558      0.00000     0.38239    0.00203     0.38442
      H   28    0.10363      0.00000     0.39552    0.00085     0.39637
      H   29    0.09831      0.00000     0.40094    0.00076     0.40169
      H   30    0.10431      0.00000     0.39428    0.00141     0.39569
      H   31    0.23812      0.00000     0.25556    0.00632     0.26188
 =======================================================================
   * Total *   -0.00000     13.99449    38.83412    0.17139    53.00000

 Normal termination of Gaussian 16 at Thu Dec 10 11:31:35 2020.
