 Gaussian 16, Revision A.03,

 -----------------------------------------------------------
 # opt freq B3LYP/6-31G(d) empiricaldispersion=gd3bj scf=xqc
 -----------------------------------------------------------

 ------------------------------
 CID_63643130_JID_4489_neutraal
 ------------------------------
 Symbolic Z-matrix:
 Charge =  0 Multiplicity = 1

 SCF Done:  E(RB3LYP) =  -578.995918075     A.U. after   14 cycles
 SCF Done:  E(RB3LYP) =  -579.015747723     A.U. after   13 cycles
 SCF Done:  E(RB3LYP) =  -579.016242430     A.U. after   12 cycles
 SCF Done:  E(RB3LYP) =  -579.008539073     A.U. after   14 cycles
 SCF Done:  E(RB3LYP) =  -579.017228962     A.U. after   12 cycles
 SCF Done:  E(RB3LYP) =  -579.014570236     A.U. after   14 cycles
 SCF Done:  E(RB3LYP) =  -579.017598371     A.U. after   12 cycles
 SCF Done:  E(RB3LYP) =  -579.017990986     A.U. after   11 cycles
 SCF Done:  E(RB3LYP) =  -579.018044260     A.U. after   10 cycles
 SCF Done:  E(RB3LYP) =  -579.018029576     A.U. after   10 cycles
 SCF Done:  E(RB3LYP) =  -579.018027083     A.U. after   10 cycles
 SCF Done:  E(RB3LYP) =  -579.018050861     A.U. after   10 cycles
 SCF Done:  E(RB3LYP) =  -579.018052872     A.U. after    9 cycles
 SCF Done:  E(RB3LYP) =  -579.018052933     A.U. after    7 cycles
 Optimization completed.
    -- Stationary point found.
 Normal termination of Gaussian 16 at Thu Dec 10 09:54:12 2020.

 --------------------------------------------------------------------
 #N Geom=AllCheck Guess=TCheck SCRF=Check GenChk RB3LYP/6-31G(d) Freq
 --------------------------------------------------------------------

 Structure from the checkpoint file:  "JID_4489.chk"
 ------------------------------
 CID_63643130_JID_4489_neutraal
 ------------------------------
 Charge =  0 Multiplicity = 1

 SCF Done:  E(RB3LYP) =  -579.018052933     A.U. after    1 cycles

  Exact polarizability: 157.233  -2.105 122.308   6.108   0.090 100.958
 Approx polarizability: 205.714  -1.444 203.004  11.351   1.530 168.968

                      1                      2                      3
                      A                      A                      A
 Frequencies --     33.3334                49.6752                96.1407
 Red. masses --      4.7226                 4.2337                 4.4688
 Frc consts  --      0.0031                 0.0062                 0.0243
 IR Inten    --      0.2913                 0.1747                 0.4546

                      4                      5                      6
                      A                      A                      A
 Frequencies --    134.5653               136.7474               207.0869
 Red. masses --      4.0031                 3.2231                 3.2700
 Frc consts  --      0.0427                 0.0355                 0.0826
 IR Inten    --      0.9275                 0.2261                 0.5659

                      7                      8                      9
                      A                      A                      A
 Frequencies --    221.5150               267.7238               292.3106
 Red. masses --      2.7578                 3.3760                 4.3631
 Frc consts  --      0.0797                 0.1426                 0.2197
 IR Inten    --      1.8611                 1.0252                 0.5730

                     10                     11                     12
                      A                      A                      A
 Frequencies --    340.7601               357.8833               373.2678
 Red. masses --      2.2497                 2.1184                 1.6093
 Frc consts  --      0.1539                 0.1599                 0.1321
 IR Inten    --     20.1328                14.9771                89.4468

                     13                     14                     15
                      A                      A                      A
 Frequencies --    418.7558               474.4395               503.4713
 Red. masses --      3.1258                 3.5993                 2.8524
 Frc consts  --      0.3230                 0.4773                 0.4260
 IR Inten    --      2.4240                 5.4350                 0.5679

                     16                     17                     18
                      A                      A                      A
 Frequencies --    512.1390               529.2117               590.8005
 Red. masses --      4.0818                 4.6201                 2.8074
 Frc consts  --      0.6308                 0.7624                 0.5773
 IR Inten    --     15.8069                 0.3933                 4.2434

                     19                     20                     21
                      A                      A                      A
 Frequencies --    602.0620               614.1280               615.9767
 Red. masses --      1.2426                 4.5791                 1.2503
 Frc consts  --      0.2654                 1.0175                 0.2795
 IR Inten    --     48.7300                 2.7504                44.7987

                     22                     23                     24
                      A                      A                      A
 Frequencies --    650.2763               738.2662               762.7658
 Red. masses --      4.4452                 3.8587                 1.3342
 Frc consts  --      1.1075                 1.2391                 0.4574
 IR Inten    --      4.5330                 1.3245                40.4301

                     25                     26                     27
                      A                      A                      A
 Frequencies --    809.5573               821.2453               863.7003
 Red. masses --      1.9222                 3.1357                 4.0235
 Frc consts  --      0.7422                 1.2460                 1.7684
 IR Inten    --      4.7473                 3.2743                 4.8825

                     28                     29                     30
                      A                      A                      A
 Frequencies --    869.0839               892.9242               917.5815
 Red. masses --      2.1357                 1.6619                 1.7490
 Frc consts  --      0.9504                 0.7807                 0.8676
 IR Inten    --      5.8418                 2.7474                 1.1162

                     31                     32                     33
                      A                      A                      A
 Frequencies --    946.8817               957.9790               985.4660
 Red. masses --      1.4547                 1.8680                 1.2507
 Frc consts  --      0.7685                 1.0100                 0.7156
 IR Inten    --      0.8071                 0.8986                 0.0158

                     34                     35                     36
                      A                      A                      A
 Frequencies --   1025.7967              1053.7609              1060.9055
 Red. masses --      2.9187                 2.1520                 2.3930
 Frc consts  --      1.8095                 1.4079                 1.5869
 IR Inten    --      0.9331                 2.2951                15.9198

                     37                     38                     39
                      A                      A                      A
 Frequencies --   1083.8089              1096.6447              1125.8149
 Red. masses --      3.8737                 2.5424                 2.3228
 Frc consts  --      2.6809                 1.8015                 1.7346
 IR Inten    --     64.3344                 1.5701                 3.6919

                     40                     41                     42
                      A                      A                      A
 Frequencies --   1147.7441              1174.9054              1189.5356
 Red. masses --      2.0089                 1.1947                 1.1479
 Frc consts  --      1.5592                 0.9717                 0.9570
 IR Inten    --     14.6579                 5.4518                 0.3478

                     43                     44                     45
                      A                      A                      A
 Frequencies --   1199.1420              1211.7418              1239.5053
 Red. masses --      1.7419                 1.3858                 1.3171
 Frc consts  --      1.4758                 1.1989                 1.1923
 IR Inten    --      1.8238                13.0280                 4.3948

                     46                     47                     48
                      A                      A                      A
 Frequencies --   1246.2710              1271.2687              1291.3691
 Red. masses --      1.8569                 1.3486                 1.5515
 Frc consts  --      1.6993                 1.2841                 1.5245
 IR Inten    --      9.2283                 2.7583                 3.6455

                     49                     50                     51
                      A                      A                      A
 Frequencies --   1318.1512              1331.1001              1357.7745
 Red. masses --      1.5117                 1.5555                 1.4360
 Frc consts  --      1.5476                 1.6238                 1.5598
 IR Inten    --      5.8077                 3.0602                 1.7305

                     52                     53                     54
                      A                      A                      A
 Frequencies --   1370.3854              1378.3300              1385.4266
 Red. masses --      1.5532                 1.6690                 2.0458
 Frc consts  --      1.7186                 1.8682                 2.3135
 IR Inten    --      8.5802                 0.5993                 5.5650

                     55                     56                     57
                      A                      A                      A
 Frequencies --   1421.3689              1441.8310              1505.1919
 Red. masses --      1.5996                 1.2355                 1.0982
 Frc consts  --      1.9040                 1.5133                 1.4660
 IR Inten    --     12.6381                81.4252                 8.3194

                     58                     59                     60
                      A                      A                      A
 Frequencies --   1508.2206              1514.9290              1519.2150
 Red. masses --      2.0856                 1.2716                 1.1716
 Frc consts  --      2.7952                 1.7194                 1.5932
 IR Inten    --      5.6140                 2.3008                 4.4373

                     61                     62                     63
                      A                      A                      A
 Frequencies --   1528.1242              1648.4502              1669.3979
 Red. masses --      1.9579                 6.3612                 6.5335
 Frc consts  --      2.6937                10.1845                10.7279
 IR Inten    --     12.4174                 1.8170                 2.4822

                     64                     65                     66
                      A                      A                      A
 Frequencies --   2240.3288              3012.8834              3025.5462
 Red. masses --      5.9783                 1.0717                 1.0798
 Frc consts  --     17.6788                 5.7316                 5.8239
 IR Inten    --      1.6518                17.8376                10.8448

                     67                     68                     69
                      A                      A                      A
 Frequencies --   3033.1880              3038.1990              3045.8541
 Red. masses --      1.0697                 1.0676                 1.0710
 Frc consts  --      5.7986                 5.8060                 5.8539
 IR Inten    --     10.7854                 3.4379                77.7689

                     70                     71                     72
                      A                      A                      A
 Frequencies --   3067.6600              3089.5442              3095.5144
 Red. masses --      1.1012                 1.0929                 1.1005
 Frc consts  --      6.1054                 6.1466                 6.2132
 IR Inten    --     20.3699                23.4982                31.3636

                     73                     74                     75
                      A                      A                      A
 Frequencies --   3178.4913              3187.5550              3197.8503
 Red. masses --      1.0858                 1.0885                 1.0927
 Frc consts  --      6.4630                 6.5164                 6.5834
 IR Inten    --      2.5717                 7.6923                28.2185

                     76                     77                     78
                      A                      A                      A
 Frequencies --   3208.3126              3496.3756              3717.9163
 Red. masses --      1.0971                 1.1598                 1.0657
 Frc consts  --      6.6532                 8.3537                 8.6791
 IR Inten    --     30.3819                54.3436                 7.9687

 - Thermochemistry -
 -------------------
 Temperature   298.150 Kelvin.  Pressure   1.00000 Atm.
 Atom     1 has atomic number  6 and mass  12.00000

 Molecular mass:   186.10447 amu.
 Principal axes and moments of inertia in atomic units:
                           1         2         3
     Eigenvalues --  1319.133624561.373075154.61201
           X            0.99996  -0.00137   0.00836
           Y            0.00132   0.99999   0.00493
           Z           -0.00836  -0.00492   0.99995
 This molecule is an asymmetric top.
 Rotational symmetry number  1.
 Warning -- assumption of classical behavior for rotation
           may cause significant error
 Rotational temperatures (Kelvin)      0.06566     0.01899     0.01680
 Rotational constants (GHZ):           1.36813     0.39566     0.35012
 Zero-point vibrational energy     619301.1 (Joules/Mol)
                                  148.01650 (Kcal/Mol)
 Warning -- explicit consideration of  21 degrees of freedom as
           vibrations may cause significant error
 Vibrational temperatures:     47.96    71.47   138.33   193.61   196.75
          (Kelvin)            297.95   318.71   385.19   420.57   490.28
                              514.91   537.05   602.50   682.61   724.38
                              736.85   761.42   850.03   866.23   883.59
                              886.25   935.60  1062.20  1097.45  1164.77
                             1181.59  1242.67  1250.42  1284.72  1320.20
                             1362.35  1378.32  1417.87  1475.89  1516.13
                             1526.41  1559.36  1577.83  1619.80  1651.35
                             1690.43  1711.48  1725.30  1743.43  1783.37
                             1793.11  1829.07  1857.99  1896.53  1915.16
                             1953.53  1971.68  1983.11  1993.32  2045.03
                             2074.47  2165.64  2169.99  2179.64  2185.81
                             2198.63  2371.75  2401.89  3223.33  4334.87
                             4353.09  4364.08  4371.29  4382.30  4413.68
                             4445.16  4453.75  4573.14  4586.18  4600.99
                             4616.05  5030.50  5349.25

 Zero-point correction=                           0.235879 (Hartree/Particle)
 Thermal correction to Energy=                    0.248560
 Thermal correction to Enthalpy=                  0.249504
 Thermal correction to Gibbs Free Energy=         0.196285
 Sum of electronic and zero-point Energies=           -578.782174
 Sum of electronic and thermal Energies=              -578.769493
 Sum of electronic and thermal Enthalpies=            -578.768549
 Sum of electronic and thermal Free Energies=         -578.821768

                     E (Thermal)             CV                S
                      KCal/Mol        Cal/Mol-Kelvin    Cal/Mol-Kelvin
 Total                  155.974             49.851            112.009
 Electronic               0.000              0.000              0.000
 Translational            0.889              2.981             41.569
 Rotational               0.889              2.981             31.806
 Vibrational            154.196             43.889             38.634
 Vibration     1          0.594              1.983              5.620
 Vibration     2          0.595              1.978              4.830
 Vibration     3          0.603              1.952              3.531
 Vibration     4          0.613              1.919              2.880
 Vibration     5          0.614              1.917              2.849
 Vibration     6          0.641              1.830              2.069
 Vibration     7          0.648              1.808              1.947
 Vibration     8          0.673              1.732              1.611
 Vibration     9          0.688              1.688              1.461
 Vibration    10          0.720              1.594              1.209
 Vibration    11          0.733              1.559              1.131
 Vibration    12          0.745              1.527              1.066
 Vibration    13          0.782              1.429              0.896
 Vibration    14          0.831              1.307              0.725
 Vibration    15          0.859              1.242              0.650
 Vibration    16          0.867              1.223              0.628
 Vibration    17          0.884              1.185              0.589
 Vibration    18          0.948              1.051              0.466
 Vibration    19          0.960              1.027              0.446
 Vibration    20          0.974              1.002              0.426
 Vibration    21          0.976              0.998              0.423

 Optimization completed.
    -- Stationary point found.
 Normal termination of Gaussian 16 at Thu Dec 10 10:01:42 2020.

 ----------------------------------------------------------------------
 # B3LYP/6-311++G(d,p) empiricaldispersion=gd3bj scf=xqc pop=npa geom=c
 heck
 ----------------------------------------------------------------------

 --------------------------------------
 CID_63643130_JID_4489_Energie_neutraal
 --------------------------------------
 Structure from the checkpoint file:  "JID_4489.chk"
 Charge =  0 Multiplicity = 1

 SCF Done:  E(RB3LYP) =  -579.183741480     A.U. after   14 cycles
 Normal termination of Gaussian 16 at Thu Dec 10 10:04:25 2020.

 ----------------------------------------------------------------------
 # B3LYP/6-311++G(d,p) empiricaldispersion=gd3bj scf=xqc pop=npa geom=c
 heck
 ----------------------------------------------------------------------

 ------------------------------------
 CID_63643130_JID_4489_Energie_kation
 ------------------------------------
 Structure from the checkpoint file:  "JID_4489.chk"
 Charge =  1 Multiplicity = 2

 SCF Done:  E(UB3LYP) =  -578.871049018     A.U. after   33 cycles
 SCF Done:  E(UB3LYP) =  -578.871049018     a.u. after    1 cycles
 Normal termination of Gaussian 16 at Thu Dec 10 10:15:04 2020.
 Gaussian 16:  ES64L-G16RevA.03 25-Dec-2016

 ----------------------------------------------------------------------
 # B3LYP/6-311++G(d,p) empiricaldispersion=gd3bj scf=xqc pop=npa geom=c
 heck
 ----------------------------------------------------------------------

 -----------------------------------
 CID_63643130_JID_4489_Energie_anion
 -----------------------------------
 Structure from the checkpoint file:  "JID_4489.chk"
 Charge = -1 Multiplicity = 2

                         Standard orientation:
 ---------------------------------------------------------------------
 Center     Atomic      Atomic             Coordinates (Angstroms)
 Number     Number       Type             X           Y           Z
 ---------------------------------------------------------------------
      1          6           0       -3.976785   -0.783239    1.766992
      2          6           0       -3.702049   -0.632731    0.600636
      3          6           0       -3.336949   -0.433959   -0.801912
      4          6           0       -2.206041    0.599347   -0.991877
      5          6           0       -0.925340    0.250451   -0.243460
      6          6           0       -0.237420   -1.075497   -0.654052
      7          6           0        1.209177   -0.839028   -0.276267
      8          6           0        2.239149   -1.756155   -0.085225
      9          6           0        3.506585   -1.286261    0.274461
     10          6           0        3.740162    0.082765    0.439758
     11          6           0        2.707482    1.003962    0.242623
     12          6           0        1.449516    0.530019   -0.114921
     13          6           0        0.186673    1.322178   -0.375117
     14          8           0        0.004319    2.463842    0.450914
     15          1           0       -4.235112   -0.919606    2.792171
     16          1           0       -3.030322   -1.396073   -1.234212
     17          1           0       -4.221086   -0.112877   -1.367865
     18          1           0       -1.995231    0.679770   -2.066964
     19          1           0       -2.551577    1.583923   -0.656163
     20          1           0       -1.159613    0.179700    0.828671
     21          1           0       -0.675562   -1.951045   -0.162887
     22          1           0       -0.332530   -1.235440   -1.739185
     23          1           0        2.062104   -2.822637   -0.201148
     24          1           0        4.316318   -1.992952    0.434675
     25          1           0        4.729021    0.429960    0.726379
     26          1           0        2.871866    2.069913    0.375036
     27          1           0        0.196335    1.729394   -1.395907
     28          1           0        0.065891    2.156129    1.370252
 ---------------------------------------------------------------------

 SCF Done:  E(UB3LYP) =  -579.168077728     A.U. after   33 cycles
 SCF Done:  E(UB3LYP) =  -579.168077729     a.u. after    1 cycles

 The electronic state is 2-A.
 Alpha  occ. eigenvalues --  -19.03752 -10.13266 -10.10082 -10.08516 -10.08363
 Alpha  occ. eigenvalues --  -10.08235 -10.08189 -10.08133 -10.08077 -10.08066
 Alpha  occ. eigenvalues --  -10.07951 -10.07939 -10.07916 -10.06958  -0.93974
 Alpha  occ. eigenvalues --   -0.78008  -0.73423  -0.70252  -0.66218  -0.65121
 Alpha  occ. eigenvalues --   -0.61592  -0.59568  -0.55648  -0.50614  -0.49477
 Alpha  occ. eigenvalues --   -0.48388  -0.43888  -0.43046  -0.40149  -0.37873
 Alpha  occ. eigenvalues --   -0.37530  -0.37123  -0.35525  -0.34140  -0.33477
 Alpha  occ. eigenvalues --   -0.32183  -0.31298  -0.30981  -0.28907  -0.27205
 Alpha  occ. eigenvalues --   -0.26667  -0.24954  -0.24761  -0.23848  -0.23128
 Alpha  occ. eigenvalues --   -0.19126  -0.18120  -0.18006  -0.16021  -0.15010
 Alpha  occ. eigenvalues --    0.04363
 Alpha virt. eigenvalues --    0.05906   0.06459   0.06946   0.07327   0.07846
 Alpha virt. eigenvalues --    0.08190   0.08791   0.08909   0.09894   0.10783
 Alpha virt. eigenvalues --    0.10968   0.11422   0.11563   0.12241   0.12450

  Beta  occ. eigenvalues --  -19.03745 -10.13260 -10.10051 -10.08518 -10.08363
  Beta  occ. eigenvalues --  -10.08229 -10.08171 -10.08119 -10.08056 -10.08048
  Beta  occ. eigenvalues --  -10.07932 -10.07926 -10.07894 -10.06936  -0.93957
  Beta  occ. eigenvalues --   -0.77982  -0.73390  -0.70214  -0.66176  -0.65094
  Beta  occ. eigenvalues --   -0.61553  -0.59530  -0.55593  -0.50564  -0.49443
  Beta  occ. eigenvalues --   -0.48342  -0.43836  -0.43004  -0.40115  -0.37842
  Beta  occ. eigenvalues --   -0.37489  -0.37083  -0.35489  -0.34100  -0.33449
  Beta  occ. eigenvalues --   -0.32150  -0.31260  -0.30939  -0.28873  -0.27170
  Beta  occ. eigenvalues --   -0.26619  -0.24922  -0.24725  -0.23812  -0.23104
  Beta  occ. eigenvalues --   -0.19107  -0.18093  -0.17977  -0.15933  -0.14972
  Beta virt. eigenvalues --    0.06388   0.06856   0.07046   0.07266   0.07806
  Beta virt. eigenvalues --    0.08171   0.08614   0.09136   0.09382   0.10326
  Beta virt. eigenvalues --    0.11133   0.11199   0.11529   0.11906   0.12387

 Mulliken charges and spin densities:
               1          2
     1  C   -4.026466   2.290741
     2  C    4.264039  -2.963623
     3  C    0.559892  -0.737621
     4  C    0.242077  -0.830926
     5  C   -0.634141   1.721638
     6  C    1.413015  -2.801253
     7  C   -0.101504   0.813915
     8  C   -1.306733   1.034026
     9  C    1.310307  -1.591072
    10  C    0.609718  -0.912701
    11  C   -1.516278   1.373858
    12  C    0.143926   0.041280
    13  C    1.070888  -1.773108
    14  O   -0.182957  -0.005448
    15  H   -0.793665   0.929314
    16  H   -0.231169   0.402648
    17  H   -0.444447   0.653468
    18  H   -0.212039   0.349346
    19  H    0.052789   0.101383
    20  H    0.159778   0.051954
    21  H    0.229943  -0.063320
    22  H   -0.262953   0.463625
    23  H   -0.552999   0.722059
    24  H   -0.503896   0.666063
    25  H   -0.461600   0.623729
    26  H   -0.054882   0.220308
    27  H    0.059827   0.155072
    28  H    0.169531   0.064646
 Sum of Mulliken charges =  -1.00000   1.00000

 Dipole moment (field-independent basis, Debye):
    X=              0.9881    Y=              2.9333    Z=              0.8138  Tot=              3.2005
 Quadrupole moment (field-independent basis, Debye-Ang):
   XX=           -177.2602   YY=           -126.6490   ZZ=           -120.0001
   XY=              3.1253   XZ=             -2.0061   YZ=              0.5927

 Summary of Natural Population Analysis:

                                       Natural Population
                Natural  -----------------------------------------------
    Atom  No    Charge         Core      Valence    Rydberg      Total
 -----------------------------------------------------------------------
      C    1   -0.12828      0.99926     2.12530    0.00371     3.12828
      C    2    0.00490      0.99937     1.98770    0.00803     2.99510
      C    3   -0.23173      0.99957     2.22198    0.01019     3.23173
      C    4   -0.17906      0.99960     2.16959    0.00987     3.17906
      C    5   -0.11579      0.99958     2.10458    0.01162     3.11579
      C    6   -0.19837      0.99959     2.18968    0.00910     3.19837
      C    7   -0.00745      0.99947     1.99775    0.01022     3.00745
      C    8   -0.09620      0.99951     2.08683    0.00987     3.09620
      C    9   -0.09532      0.99957     2.08569    0.01006     3.09532
      C   10   -0.10403      0.99957     2.09374    0.01072     3.10403
      C   11   -0.09550      0.99950     2.08662    0.00938     3.09550
      C   12   -0.03293      0.99944     2.02220    0.01129     3.03293
      C   13    0.06476      0.99947     1.92219    0.01358     2.93524
      O   14   -0.36654      0.99990     3.36065    0.00600     4.36654
      H   15    0.11102      0.00000     0.38746    0.00152     0.38898
      H   16    0.11360      0.00000     0.38433    0.00207     0.38640
      H   17    0.11562      0.00000     0.38246    0.00192     0.38438
      H   18    0.09969      0.00000     0.39872    0.00159     0.40031
      H   19    0.10370      0.00000     0.39495    0.00136     0.39630
      H   20    0.10065      0.00000     0.39726    0.00209     0.39935
      H   21    0.10736      0.00000     0.39123    0.00141     0.39264
      H   22    0.10469      0.00000     0.39367    0.00164     0.39531
      H   23    0.10233      0.00000     0.39594    0.00173     0.39767
      H   24    0.10162      0.00000     0.39686    0.00152     0.39838
      H   25    0.10068      0.00000     0.39812    0.00120     0.39932
      H   26    0.10425      0.00000     0.39472    0.00103     0.39575
      H   27    0.09018      0.00000     0.40830    0.00152     0.40982
      H   28    0.22616      0.00000     0.27097    0.00288     0.27384
 =======================================================================
   * Total *    0.00000     13.99341    35.84948    0.15711    50.00000

 Normal termination of Gaussian 16 at Thu Dec 10 10:24:31 2020.
