 Gaussian 16, Revision A.03,

 -----------------------------------------------------------
 # opt freq B3LYP/6-31G(d) empiricaldispersion=gd3bj scf=xqc
 -----------------------------------------------------------

 ------------------------------
 CID_80395567_JID_9038_neutraal
 ------------------------------
 Symbolic Z-matrix:
 Charge =  0 Multiplicity = 1

 SCF Done:  E(RB3LYP) =  -895.269721583     A.U. after   15 cycles
 SCF Done:  E(RB3LYP) =  -895.277524580     A.U. after   15 cycles
 SCF Done:  E(RB3LYP) =  -895.277521629     A.U. after   15 cycles
 SCF Done:  E(RB3LYP) =  -895.279833754     A.U. after   14 cycles
 SCF Done:  E(RB3LYP) =  -895.281824510     A.U. after   14 cycles
 SCF Done:  E(RB3LYP) =  -895.283481759     A.U. after   16 cycles
 SCF Done:  E(RB3LYP) =  -895.284641947     A.U. after   14 cycles
 SCF Done:  E(RB3LYP) =  -895.285938548     A.U. after   14 cycles
 SCF Done:  E(RB3LYP) =  -895.286186409     A.U. after   14 cycles
 SCF Done:  E(RB3LYP) =  -895.286884259     A.U. after   13 cycles
 SCF Done:  E(RB3LYP) =  -895.286941092     A.U. after   14 cycles
 SCF Done:  E(RB3LYP) =  -895.287135017     A.U. after   14 cycles
 SCF Done:  E(RB3LYP) =  -895.287139383     A.U. after   12 cycles
 SCF Done:  E(RB3LYP) =  -895.287142465     A.U. after    8 cycles
 SCF Done:  E(RB3LYP) =  -895.287139760     A.U. after    8 cycles
 Optimization completed.
    -- Stationary point found.
 Normal termination of Gaussian 16 at Sat Dec 12 09:41:01 2020.

 --------------------------------------------------------------------
 #N Geom=AllCheck Guess=TCheck SCRF=Check GenChk RB3LYP/6-31G(d) Freq
 --------------------------------------------------------------------

 Structure from the checkpoint file:  "JID_9038.chk"
 ------------------------------
 CID_80395567_JID_9038_neutraal
 ------------------------------
 Charge =  0 Multiplicity = 1

 SCF Done:  E(RB3LYP) =  -895.287139761     A.U. after    1 cycles

  Exact polarizability: 203.231  -9.263 138.162   6.544   8.486 161.984
 Approx polarizability: 298.411 -11.424 199.937  13.822  33.610 268.101

                      1                      2                      3
                      A                      A                      A
 Frequencies --     22.9719                48.7927                51.1280
 Red. masses --      3.7723                 4.2500                 3.6735
 Frc consts  --      0.0012                 0.0060                 0.0057
 IR Inten    --      0.5664                 0.0593                 0.5575

                      4                      5                      6
                      A                      A                      A
 Frequencies --     65.1045                90.9450                96.6577
 Red. masses --      3.2291                 3.6672                 4.8343
 Frc consts  --      0.0081                 0.0179                 0.0266
 IR Inten    --      1.7451                 2.5021                 1.3212

                      7                      8                      9
                      A                      A                      A
 Frequencies --    111.5321               136.3665               146.6885
 Red. masses --      2.4092                 3.8567                 2.7880
 Frc consts  --      0.0177                 0.0423                 0.0353
 IR Inten    --      1.4260                 1.6499                 0.8252

                     10                     11                     12
                      A                      A                      A
 Frequencies --    162.5496               177.5697               190.1712
 Red. masses --      3.3116                 2.3596                 1.9834
 Frc consts  --      0.0516                 0.0438                 0.0423
 IR Inten    --      1.4755                 1.4612                 1.1327

                     13                     14                     15
                      A                      A                      A
 Frequencies --    203.9205               219.1849               223.1646
 Red. masses --      1.0758                 2.7028                 2.8611
 Frc consts  --      0.0264                 0.0765                 0.0840
 IR Inten    --      0.1154                 2.7468                 3.0875

                     16                     17                     18
                      A                      A                      A
 Frequencies --    232.0774               235.5548               253.9957
 Red. masses --      1.4730                 1.4078                 1.9367
 Frc consts  --      0.0467                 0.0460                 0.0736
 IR Inten    --      0.9296                 0.4136                 1.6868

                     19                     20                     21
                      A                      A                      A
 Frequencies --    264.2527               268.8676               297.2836
 Red. masses --      1.7287                 1.1695                 2.4397
 Frc consts  --      0.0711                 0.0498                 0.1270
 IR Inten    --      0.5688                 0.7176                 4.4650

                     22                     23                     24
                      A                      A                      A
 Frequencies --    304.4934               324.0887               346.7220
 Red. masses --      2.2364                 3.2481                 3.5557
 Frc consts  --      0.1222                 0.2010                 0.2518
 IR Inten    --      1.3359                 1.1256                 3.6339

                     25                     26                     27
                      A                      A                      A
 Frequencies --    369.0501               395.0882               426.2779
 Red. masses --      2.8303                 5.5112                 3.6395
 Frc consts  --      0.2271                 0.5069                 0.3897
 IR Inten    --      1.9421                 1.7907                 3.4234

                     28                     29                     30
                      A                      A                      A
 Frequencies --    440.4658               468.4499               472.4745
 Red. masses --      3.1405                 3.3268                 4.5681
 Frc consts  --      0.3590                 0.4301                 0.6008
 IR Inten    --      6.0355                 4.6034                 0.4256

                     31                     32                     33
                      A                      A                      A
 Frequencies --    539.7061               595.1933               655.8162
 Red. masses --      2.6692                 3.3477                 4.2446
 Frc consts  --      0.4581                 0.6987                 1.0756
 IR Inten    --      3.1265                 9.8398                 5.1997

                     34                     35                     36
                      A                      A                      A
 Frequencies --    685.9238               697.4829               730.1934
 Red. masses --      4.7173                 5.8503                 6.7832
 Frc consts  --      1.3077                 1.6768                 2.1309
 IR Inten    --      9.5632                 1.4933                 0.4981

                     37                     38                     39
                      A                      A                      A
 Frequencies --    773.4477               789.6865               808.8461
 Red. masses --      2.0488                 9.4392                 2.2787
 Frc consts  --      0.7221                 3.4681                 0.8784
 IR Inten    --      5.6935                 9.8229                38.0700

                     40                     41                     42
                      A                      A                      A
 Frequencies --    825.9193               863.6482               878.4802
 Red. masses --      2.2356                 3.6364                 2.4296
 Frc consts  --      0.8985                 1.5981                 1.1047
 IR Inten    --      7.0235                42.7435                10.8558

                     43                     44                     45
                      A                      A                      A
 Frequencies --    922.9865               947.8179               949.6990
 Red. masses --      2.7733                 1.2963                 1.5472
 Frc consts  --      1.3920                 0.6861                 0.8222
 IR Inten    --      4.0680                 1.9726                11.6055

                     46                     47                     48
                      A                      A                      A
 Frequencies --    978.9354               981.4215              1037.7555
 Red. masses --      2.4286                 1.5499                 2.3421
 Frc consts  --      1.3713                 0.8796                 1.4861
 IR Inten    --     18.3409                 2.7170                 3.0581

                     49                     50                     51
                      A                      A                      A
 Frequencies --   1053.4421              1064.4279              1096.2361
 Red. masses --      1.9255                 1.5716                 2.3214
 Frc consts  --      1.2590                 1.0491                 1.6437
 IR Inten    --     11.6641                23.3187                23.4627

                     52                     53                     54
                      A                      A                      A
 Frequencies --   1098.7092              1135.6445              1138.7654
 Red. masses --      2.4923                 1.7081                 2.3133
 Frc consts  --      1.7726                 1.2979                 1.7675
 IR Inten    --     20.6267                 6.4075                 7.4782

                     55                     56                     57
                      A                      A                      A
 Frequencies --   1148.2608              1155.3057              1161.0353
 Red. masses --      2.4470                 1.7210                 1.6502
 Frc consts  --      1.9009                 1.3534                 1.3106
 IR Inten    --     24.8646                 9.6293                10.8780

                     58                     59                     60
                      A                      A                      A
 Frequencies --   1162.6019              1172.3325              1199.3502
 Red. masses --      1.3332                 1.4313                 1.9161
 Frc consts  --      1.0617                 1.1590                 1.6239
 IR Inten    --      5.9705                11.0354                 3.6877

                     61                     62                     63
                      A                      A                      A
 Frequencies --   1213.5863              1226.2119              1261.7418
 Red. masses --      2.0535                 2.2161                 2.0816
 Frc consts  --      1.7819                 1.9632                 1.9525
 IR Inten    --     13.8134                18.0346                16.5182

                     64                     65                     66
                      A                      A                      A
 Frequencies --   1288.7055              1302.5204              1335.3890
 Red. masses --      1.5200                 4.7661                 1.4191
 Frc consts  --      1.4873                 4.7641                 1.4910
 IR Inten    --      4.7215                 8.4730                13.8541

                     67                     68                     69
                      A                      A                      A
 Frequencies --   1342.9437              1351.8140              1370.9456
 Red. masses --      1.6637                 1.4028                 1.8976
 Frc consts  --      1.7679                 1.5103                 2.1013
 IR Inten    --      0.4107                 2.0270                57.2164

                     70                     71                     72
                      A                      A                      A
 Frequencies --   1397.5226              1411.1523              1420.3728
 Red. masses --      1.3033                 1.8702                 1.2574
 Frc consts  --      1.4997                 2.1943                 1.4947
 IR Inten    --      9.7318                87.9152                13.1969

                     73                     74                     75
                      A                      A                      A
 Frequencies --   1426.8005              1433.1748              1443.7473
 Red. masses --      2.7161                 1.3568                 1.5556
 Frc consts  --      3.2577                 1.6420                 1.9104
 IR Inten    --    135.6766                16.2559                 5.7702

                     76                     77                     78
                      A                      A                      A
 Frequencies --   1445.7351              1469.3193              1477.7999
 Red. masses --      1.6462                 2.4392                 1.7218
 Frc consts  --      2.0273                 3.1026                 2.2154
 IR Inten    --      9.8223                29.2980                45.8098

                     79                     80                     81
                      A                      A                      A
 Frequencies --   1481.2736              1483.9569              1497.8353
 Red. masses --      1.5593                 1.1931                 1.1032
 Frc consts  --      2.0158                 1.5481                 1.4582
 IR Inten    --     69.6403                 5.3925                 6.1718

                     82                     83                     84
                      A                      A                      A
 Frequencies --   1507.6590              1513.3695              1515.7222
 Red. masses --      1.1567                 1.1114                 1.0689
 Frc consts  --      1.5491                 1.4998                 1.4468
 IR Inten    --     21.9447                 8.0041                 4.3742

                     85                     86                     87
                      A                      A                      A
 Frequencies --   1517.3503              1518.3417              1520.7123
 Red. masses --      1.0757                 1.0616                 1.0879
 Frc consts  --      1.4592                 1.4420                 1.4823
 IR Inten    --      2.4968                 9.1147                14.6000

                     88                     89                     90
                      A                      A                      A
 Frequencies --   1523.3121              1528.5650              1531.2071
 Red. masses --      1.1448                 1.1023                 1.1787
 Frc consts  --      1.5652                 1.5174                 1.6283
 IR Inten    --      7.2503                 7.6589                13.4056

                     91                     92                     93
                      A                      A                      A
 Frequencies --   1535.6881              1539.9083              1542.9785
 Red. masses --      1.2927                 1.0951                 1.2042
 Frc consts  --      1.7962                 1.5300                 1.6892
 IR Inten    --     12.3537                 9.3609                 4.9862

                     94                     95                     96
                      A                      A                      A
 Frequencies --   1550.6600              1554.2974              1582.2903
 Red. masses --      1.5751                 1.2491                 3.7378
 Frc consts  --      2.2315                 1.7779                 5.5136
 IR Inten    --     35.8810                 3.9554                37.7946

                     97                     98                     99
                      A                      A                      A
 Frequencies --   1622.7560              2969.4038              3018.3486
 Red. masses --      6.8540                 1.0578                 1.0656
 Frc consts  --     10.6341                 5.4955                 5.7197
 IR Inten    --    454.6854                60.7317                23.0499

                    100                    101                    102
                      A                      A                      A
 Frequencies --   3046.3807              3049.2379              3051.4352
 Red. masses --      1.0623                 1.0438                 1.0359
 Frc consts  --      5.8088                 5.7183                 5.6830
 IR Inten    --      3.6058                53.5350                23.8250

                    103                    104                    105
                      A                      A                      A
 Frequencies --   3059.5482              3063.8824              3064.8609
 Red. masses --      1.0354                 1.0467                 1.0662
 Frc consts  --      5.7106                 5.7894                 5.9005
 IR Inten    --     31.3484                13.9069                70.3967

                    106                    107                    108
                      A                      A                      A
 Frequencies --   3069.8812              3075.6370              3091.9163
 Red. masses --      1.0859                 1.0755                 1.0847
 Frc consts  --      6.0294                 5.9943                 6.1098
 IR Inten    --     61.0488                54.4313                 2.0563

                    109                    110                    111
                      A                      A                      A
 Frequencies --   3092.1492              3118.6026              3120.6996
 Red. masses --      1.1036                 1.1025                 1.1028
 Frc consts  --      6.2172                 6.3174                 6.3280
 IR Inten    --     24.7341                16.5917                25.6007

                    112                    113                    114
                      A                      A                      A
 Frequencies --   3123.6465              3127.1205              3133.7360
 Red. masses --      1.0947                 1.1028                 1.0967
 Frc consts  --      6.2934                 6.3538                 6.3453
 IR Inten    --     15.5669                39.1691                24.7737

                    115                    116                    117
                      A                      A                      A
 Frequencies --   3137.0257              3140.8188              3142.1405
 Red. masses --      1.1014                 1.0963                 1.1009
 Frc consts  --      6.3858                 6.3716                 6.4040
 IR Inten    --     33.6227                 8.5699                21.4348

                    118                    119                    120
                      A                      A                      A
 Frequencies --   3162.9218              3183.7137              3504.2316
 Red. masses --      1.1035                 1.1053                 1.0726
 Frc consts  --      6.5044                 6.6011                 7.7605
 IR Inten    --     13.0132                 2.2186                 1.5728

 - Thermochemistry -
 -------------------
 Temperature   298.150 Kelvin.  Pressure   1.00000 Atm.
 Atom     1 has atomic number  6 and mass  12.00000

 Molecular mass:   269.18518 amu.
 Principal axes and moments of inertia in atomic units:
                           1         2         3
     Eigenvalues --  3705.194525926.114526047.26198
           X            0.99974  -0.01731  -0.01473
           Y            0.02246   0.65340   0.75668
           Z            0.00347   0.75682  -0.65362
 This molecule is an asymmetric top.
 Rotational symmetry number  1.
 Warning -- assumption of classical behavior for rotation
           may cause significant error
 Rotational temperatures (Kelvin)      0.02338     0.01462     0.01432
 Rotational constants (GHZ):           0.48708     0.30454     0.29844
 Zero-point vibrational energy     960180.6 (Joules/Mol)
                                  229.48868 (Kcal/Mol)
 Warning -- explicit consideration of  32 degrees of freedom as
           vibrations may cause significant error
 Vibrational temperatures:     33.05    70.20    73.56    93.67   130.85
          (Kelvin)            139.07   160.47   196.20   211.05   233.87
                              255.48   273.61   293.40   315.36   321.08
                              333.91   338.91   365.44   380.20   386.84
                              427.72   438.10   466.29   498.86   530.98
                              568.44   613.32   633.73   673.99   679.79
                              776.52   856.35   943.57   986.89  1003.52
                             1050.59  1112.82  1136.18  1163.75  1188.31
                             1242.60  1263.94  1327.97  1363.70  1366.40
                             1408.47  1412.05  1493.10  1515.67  1531.47
                             1577.24  1580.80  1633.94  1638.43  1652.09
                             1662.23  1670.47  1672.72  1686.72  1725.60
                             1746.08  1764.25  1815.36  1854.16  1874.04
                             1921.33  1932.20  1944.96  1972.48  2010.72
                             2030.33  2043.60  2052.85  2062.02  2077.23
                             2080.09  2114.02  2126.22  2131.22  2135.08
                             2155.05  2169.19  2177.40  2180.79  2183.13
                             2184.55  2187.97  2191.71  2199.26  2203.07
                             2209.51  2215.58  2220.00  2231.05  2236.29
                             2276.56  2334.78  4272.31  4342.73  4383.06
                             4387.17  4390.33  4402.01  4408.24  4409.65
                             4416.87  4425.16  4448.58  4448.91  4486.97
                             4489.99  4494.23  4499.23  4508.75  4513.48
                             4518.94  4520.84  4550.74  4580.65  5041.81

 Zero-point correction=                           0.365713 (Hartree/Particle)
 Thermal correction to Energy=                    0.386589
 Thermal correction to Enthalpy=                  0.387533
 Thermal correction to Gibbs Free Energy=         0.316366
 Sum of electronic and zero-point Energies=           -894.921426
 Sum of electronic and thermal Energies=              -894.900551
 Sum of electronic and thermal Enthalpies=            -894.899606
 Sum of electronic and thermal Free Energies=         -894.970774

                     E (Thermal)             CV                S
                      KCal/Mol        Cal/Mol-Kelvin    Cal/Mol-Kelvin
 Total                  242.588             76.716            149.785
 Electronic               0.000              0.000              0.000
 Translational            0.889              2.981             42.670
 Rotational               0.889              2.981             33.251
 Vibrational            240.811             70.754             73.864
 Vibration     1          0.593              1.985              6.359
 Vibration     2          0.595              1.978              4.866
 Vibration     3          0.595              1.977              4.773
 Vibration     4          0.597              1.971              4.296
 Vibration     5          0.602              1.956              3.640
 Vibration     6          0.603              1.952              3.521
 Vibration     7          0.607              1.940              3.242
 Vibration     8          0.614              1.917              2.854
 Vibration     9          0.617              1.906              2.715
 Vibration    10          0.623              1.888              2.520
 Vibration    11          0.628              1.870              2.354
 Vibration    12          0.633              1.853              2.226
 Vibration    13          0.640              1.834              2.097
 Vibration    14          0.647              1.812              1.966
 Vibration    15          0.649              1.806              1.933
 Vibration    16          0.653              1.792              1.863
 Vibration    17          0.655              1.786              1.836
 Vibration    18          0.665              1.756              1.703
 Vibration    19          0.671              1.738              1.634
 Vibration    20          0.673              1.730              1.603
 Vibration    21          0.691              1.679              1.432
 Vibration    22          0.695              1.665              1.392
 Vibration    23          0.709              1.627              1.289
 Vibration    24          0.725              1.582              1.181
 Vibration    25          0.741              1.536              1.084
 Vibration    26          0.762              1.481              0.981
 Vibration    27          0.788              1.413              0.871
 Vibration    28          0.800              1.382              0.825
 Vibration    29          0.826              1.320              0.742
 Vibration    30          0.829              1.311              0.731
 Vibration    31          0.895              1.162              0.566
 Vibration    32          0.953              1.042              0.458

                           ! Non-Optimized Parameters !
 Normal termination of Gaussian 16 at Sat Dec 12 10:05:01 2020.

 ----------------------------------------------------------------------
 # B3LYP/6-311++G(d,p) empiricaldispersion=gd3bj scf=xqc pop=npa geom=c
 heck
 ----------------------------------------------------------------------

 --------------------------------------
 CID_80395567_JID_9038_Energie_neutraal
 --------------------------------------
 Structure from the checkpoint file:  "JID_9038.chk"
 Charge =  0 Multiplicity = 1

 SCF Done:  E(RB3LYP) =  -895.538555533     A.U. after   17 cycles
 Normal termination of Gaussian 16 at Sat Dec 12 10:15:33 2020.

 ----------------------------------------------------------------------
 # B3LYP/6-311++G(d,p) empiricaldispersion=gd3bj scf=xqc pop=npa geom=c
 heck
 ----------------------------------------------------------------------

 ------------------------------------
 CID_80395567_JID_9038_Energie_kation
 ------------------------------------
 Structure from the checkpoint file:  "JID_9038.chk"
 Charge =  1 Multiplicity = 2

 SCF Done:  E(UB3LYP) =  -895.248808083     A.U. after   28 cycles
 Normal termination of Gaussian 16 at Sat Dec 12 10:38:40 2020.
 Gaussian 16:  ES64L-G16RevA.03 25-Dec-2016

 ----------------------------------------------------------------------
 # B3LYP/6-311++G(d,p) empiricaldispersion=gd3bj scf=xqc pop=npa geom=c
 heck
 ----------------------------------------------------------------------

 -----------------------------------
 CID_80395567_JID_9038_Energie_anion
 -----------------------------------
 Structure from the checkpoint file:  "JID_9038.chk"
 Charge = -1 Multiplicity = 2

                         Standard orientation:
 ---------------------------------------------------------------------
 Center     Atomic      Atomic             Coordinates (Angstroms)
 Number     Number       Type             X           Y           Z
 ---------------------------------------------------------------------
      1          6           0       -4.093401    0.105717    1.129134
      2          6           0       -3.114295   -0.130366   -0.027095
      3          6           0       -3.165768    1.029058   -1.041766
      4          6           0       -1.703451   -0.315757    0.469537
      5          7           0       -1.345845    0.133453    1.661425
      6          7           0       -0.010270   -0.145707    1.793673
      7          6           0        0.527223   -0.737297    0.689804
      8          6           0       -0.564229   -0.868691   -0.197620
      9          7           0       -0.519074   -1.335282   -1.535324
     10          8           0       -1.590776   -1.514931   -2.128873
     11          8           0        0.588497   -1.523305   -2.064146
     12          7           0        1.857901   -1.085760    0.661662
     13          6           0        2.289032   -2.323937    0.022175
     14          6           0        2.873556   -0.027285    0.776445
     15          6           0        3.224120    0.702466   -0.528261
     16          6           0        2.053637    1.432617   -1.193692
     17          7           0        1.375689    2.352341   -0.277612
     18          6           0        0.370659    3.161723   -0.962280
     19          6           0        0.626493    0.083003    3.074705
     20          1           0       -3.844174    1.019857    1.676296
     21          1           0       -4.076111   -0.723616    1.843286
     22          1           0       -5.111129    0.204002    0.736579
     23          1           0       -3.393991   -1.045485   -0.557011
     24          1           0       -2.865036    1.968542   -0.563782
     25          1           0       -2.505521    0.840143   -1.892342
     26          1           0       -4.185082    1.149870   -1.424754
     27          1           0        2.586160   -2.192844   -1.021253
     28          1           0        3.134211   -2.723113    0.596390
     29          1           0        1.475663   -3.050615    0.054558
     30          1           0        2.538175    0.709235    1.509911
     31          1           0        3.774912   -0.493729    1.191099
     32          1           0        4.009322    1.428307   -0.280970
     33          1           0        3.651286   -0.004785   -1.249071
     34          1           0        2.452600    2.032132   -2.021518
     35          1           0        1.371959    0.696383   -1.647658
     36          1           0        0.890772    1.807668    0.432376
     37          1           0       -0.366071    2.571714   -1.536990
     38          1           0       -0.172747    3.765659   -0.228455
     39          1           0        0.867523    3.845582   -1.660193
     40          1           0        1.045077    1.093093    3.143421
     41          1           0       -0.133879   -0.041460    3.846144
     42          1           0        1.424065   -0.651480    3.204805
 ---------------------------------------------------------------------

 SCF Done:  E(UB3LYP) =  -895.558459027     A.U. after   33 cycles
 SCF Done:  E(UB3LYP) =  -895.558459027     a.u. after    1 cycles

 The electronic state is 2-A.
 Alpha  occ. eigenvalues --  -18.92148 -18.92053 -14.29346 -14.25497 -14.20676
 Alpha  occ. eigenvalues --  -14.19617 -14.18720 -10.10554 -10.10295 -10.09620
 Alpha  occ. eigenvalues --  -10.08074 -10.07196 -10.07118 -10.06535 -10.05994
 Alpha  occ. eigenvalues --  -10.05621 -10.05387 -10.04389 -10.03606  -1.00252
 Alpha  occ. eigenvalues --   -0.92191  -0.83035  -0.82121  -0.79249  -0.73246
 Alpha  occ. eigenvalues --   -0.67507  -0.66740  -0.65226  -0.60346  -0.59200
 Alpha  occ. eigenvalues --   -0.56640  -0.56002  -0.53929  -0.52421  -0.48510
 Alpha  occ. eigenvalues --   -0.47597  -0.43437  -0.41413  -0.39522  -0.38830
 Alpha  occ. eigenvalues --   -0.36444  -0.36126  -0.35108  -0.34728  -0.34005
 Alpha  occ. eigenvalues --   -0.33566  -0.33167  -0.32547  -0.32106  -0.31259
 Alpha  occ. eigenvalues --   -0.30524  -0.29850  -0.29111  -0.29024  -0.27618
 Alpha  occ. eigenvalues --   -0.27262  -0.27243  -0.26646  -0.26439  -0.24140
 Alpha  occ. eigenvalues --   -0.23808  -0.23018  -0.22795  -0.22181  -0.21530
 Alpha  occ. eigenvalues --   -0.17652  -0.15073  -0.12566  -0.11855  -0.11406
 Alpha  occ. eigenvalues --   -0.10734  -0.09077  -0.07924   0.04394
 Alpha virt. eigenvalues --    0.07009   0.08209   0.08402   0.08826   0.09587
 Alpha virt. eigenvalues --    0.10128   0.10692   0.11301   0.11467   0.11988
 Alpha virt. eigenvalues --    0.12570   0.12763   0.13187   0.13473   0.13969

  Beta  occ. eigenvalues --  -18.91622 -18.91462 -14.28417 -14.25435 -14.20648
  Beta  occ. eigenvalues --  -14.19685 -14.18721 -10.10557 -10.09992 -10.09596
  Beta  occ. eigenvalues --  -10.08073 -10.07179 -10.07116 -10.06433 -10.05992
  Beta  occ. eigenvalues --  -10.05719 -10.05394 -10.04388 -10.03591  -0.98870
  Beta  occ. eigenvalues --   -0.92062  -0.82422  -0.81506  -0.79241  -0.73168
  Beta  occ. eigenvalues --   -0.67320  -0.66728  -0.65052  -0.59943  -0.59150
  Beta  occ. eigenvalues --   -0.56616  -0.55938  -0.53743  -0.51971  -0.48378
  Beta  occ. eigenvalues --   -0.47528  -0.43125  -0.41288  -0.39346  -0.38564
  Beta  occ. eigenvalues --   -0.36296  -0.35980  -0.34929  -0.34565  -0.33498
  Beta  occ. eigenvalues --   -0.33176  -0.32607  -0.32011  -0.31263  -0.30642
  Beta  occ. eigenvalues --   -0.30184  -0.29649  -0.28950  -0.28470  -0.27427
  Beta  occ. eigenvalues --   -0.27186  -0.26782  -0.26581  -0.26105  -0.24107
  Beta  occ. eigenvalues --   -0.23764  -0.22975  -0.22746  -0.22131  -0.21493
  Beta  occ. eigenvalues --   -0.17607  -0.14624  -0.12154  -0.11228  -0.10246
  Beta  occ. eigenvalues --   -0.08645  -0.08026  -0.07387
  Beta virt. eigenvalues --    0.06929   0.08138   0.08319   0.08780   0.09534
  Beta virt. eigenvalues --    0.10027   0.10626   0.11189   0.11382   0.11900
  Beta virt. eigenvalues --    0.12386   0.12672   0.12946   0.13307   0.13620

 Mulliken charges and spin densities:
               1          2
     1  C   -0.638805  -0.006846
     2  C    0.463709   0.003710
     3  C   -0.656995  -0.027718
     4  C    0.529267   0.024755
     5  N   -0.137046  -0.057396
     6  N    0.208684   0.032720
     7  C   -0.775539   0.331892
     8  C   -0.321193  -0.177432
     9  N   -0.650684   0.306966
    10  O   -0.131012   0.228938
    11  O   -0.145854   0.204329
    12  N    0.088973   0.002123
    13  C   -0.231010  -0.108484
    14  C   -0.169425   0.004121
    15  C   -0.479420  -0.008332
    16  C   -0.407228  -0.009810
    17  N   -0.151580   0.002051
    18  C   -0.372044   0.002163
    19  C   -0.250383  -0.041958
    20  H    0.144167  -0.000019
    21  H    0.130311   0.001887
    22  H    0.128570   0.000355
    23  H    0.246771   0.002287
    24  H    0.109765   0.001800
    25  H    0.112296   0.036143
    26  H    0.107038   0.012936
    27  H    0.180939   0.007260
    28  H   -0.002856   0.102451
    29  H    0.140233   0.044575
    30  H    0.141562  -0.004948
    31  H    0.127642   0.020262
    32  H    0.119612   0.008071
    33  H    0.151278  -0.002196
    34  H    0.136757   0.008925
    35  H    0.124433   0.013480
    36  H    0.296911  -0.000827
    37  H    0.160815  -0.010664
    38  H    0.125588   0.001709
    39  H    0.112343   0.000082
    40  H    0.176375  -0.003790
    41  H    0.143762   0.014838
    42  H    0.113275   0.039591
 Sum of Mulliken charges =  -1.00000   1.00000

 Dipole moment (field-independent basis, Debye):
    X=              3.0265    Y=              3.7939    Z=              5.8977  Tot=              7.6378
 Quadrupole moment (field-independent basis, Debye-Ang):
   XX=           -142.3532   YY=           -141.2924   ZZ=           -146.5813
   XY=             -3.8643   XZ=             -1.2611   YZ=            -13.4719

 Summary of Natural Population Analysis:

                                       Natural Population
                Natural  -----------------------------------------------
    Atom  No    Charge         Core      Valence    Rydberg      Total
 -----------------------------------------------------------------------
      C    1   -0.28121      0.99966     2.27656    0.00499     3.28121
      C    2   -0.13012      0.99958     2.12283    0.00772     3.13012
      C    3   -0.27819      0.99965     2.27384    0.00470     3.27819
      C    4    0.11036      0.99955     1.87281    0.01728     2.88964
      N    5   -0.19449      0.99969     2.68383    0.01096     3.69449
      N    6   -0.12515      0.99962     2.61269    0.01284     3.62515
      C    7    0.24310      0.99945     1.74207    0.01539     2.75690
      C    8   -0.03496      0.99934     2.02186    0.01377     3.03496
      N    9    0.33492      0.99967     2.13801    0.02740     3.16508
      O   10   -0.19574      0.99990     3.18872    0.00712     4.19574
      O   11   -0.21699      0.99990     3.20900    0.00809     4.21699
      N   12   -0.26992      0.99966     2.75839    0.01187     3.76992
      C   13   -0.16786      0.99964     2.16132    0.00689     3.16786
      C   14   -0.07595      0.99960     2.06613    0.01022     3.07595
      C   15   -0.19570      0.99963     2.18920    0.00688     3.19570
      C   16   -0.09770      0.99962     2.08845    0.00963     3.09770
      N   17   -0.35091      0.99975     2.83637    0.01479     3.85091
      C   18   -0.17694      0.99968     2.17036    0.00691     3.17694
      C   19   -0.17603      0.99965     2.17003    0.00635     3.17603
      H   20    0.09911      0.00000     0.39997    0.00092     0.40089
      H   21    0.09876      0.00000     0.40047    0.00077     0.40124
      H   22    0.08968      0.00000     0.40951    0.00081     0.41032
      H   23    0.11592      0.00000     0.38234    0.00174     0.38408
      H   24    0.09028      0.00000     0.40883    0.00089     0.40972
      H   25    0.11436      0.00000     0.38450    0.00115     0.38564
      H   26    0.08904      0.00000     0.41007    0.00089     0.41096
      H   27    0.10156      0.00000     0.39669    0.00174     0.39844
      H   28    0.07867      0.00000     0.41978    0.00155     0.42133
      H   29    0.10405      0.00000     0.39485    0.00110     0.39595
      H   30    0.09310      0.00000     0.40494    0.00196     0.40690
      H   31    0.08951      0.00000     0.40909    0.00140     0.41049
      H   32    0.09156      0.00000     0.40719    0.00126     0.40844
      H   33    0.09909      0.00000     0.39997    0.00094     0.40091
      H   34    0.08506      0.00000     0.41383    0.00111     0.41494
      H   35    0.10761      0.00000     0.39041    0.00198     0.39239
      H   36    0.17717      0.00000     0.32038    0.00245     0.32283
      H   37    0.08639      0.00000     0.41214    0.00147     0.41361
      H   38    0.09013      0.00000     0.40905    0.00082     0.40987
      H   39    0.08368      0.00000     0.41531    0.00100     0.41632
      H   40    0.08992      0.00000     0.40853    0.00155     0.41008
      H   41    0.10381      0.00000     0.39508    0.00111     0.39619
      H   42    0.10105      0.00000     0.39733    0.00162     0.39895
 =======================================================================
   * Total *   -0.00000     18.99324    53.77273    0.23403    73.00000

 Normal termination of Gaussian 16 at Sat Dec 12 11:04:41 2020.
