 Gaussian 16, Revision A.03,

 -----------------------------------------------------------
 # opt freq B3LYP/6-31G(d) empiricaldispersion=gd3bj scf=xqc
 -----------------------------------------------------------

 ------------------------------
 CID_64116356_JID_1085_neutraal
 ------------------------------
 Symbolic Z-matrix:
 Charge =  0 Multiplicity = 1

 SCF Done:  E(RB3LYP) =  -519.101168711     A.U. after   15 cycles
 SCF Done:  E(RB3LYP) =  -519.103529568     A.U. after   13 cycles
 SCF Done:  E(RB3LYP) =  -519.102814302     A.U. after   13 cycles
 SCF Done:  E(RB3LYP) =  -519.104076105     A.U. after   12 cycles
 SCF Done:  E(RB3LYP) =  -519.104219745     A.U. after   12 cycles
 SCF Done:  E(RB3LYP) =  -519.104347171     A.U. after   12 cycles
 SCF Done:  E(RB3LYP) =  -519.104459174     A.U. after   10 cycles
 SCF Done:  E(RB3LYP) =  -519.104490281     A.U. after   12 cycles
 SCF Done:  E(RB3LYP) =  -519.104512858     A.U. after   10 cycles
 SCF Done:  E(RB3LYP) =  -519.104516349     A.U. after    9 cycles
 SCF Done:  E(RB3LYP) =  -519.104517537     A.U. after    9 cycles
 SCF Done:  E(RB3LYP) =  -519.104518069     A.U. after    8 cycles
 SCF Done:  E(RB3LYP) =  -519.104518098     A.U. after    9 cycles
 SCF Done:  E(RB3LYP) =  -519.104518191     A.U. after    7 cycles
 Optimization completed.
    -- Stationary point found.
 Normal termination of Gaussian 16 at Tue Dec  8 19:15:22 2020.

 --------------------------------------------------------------------
 #N Geom=AllCheck Guess=TCheck SCRF=Check GenChk RB3LYP/6-31G(d) Freq
 --------------------------------------------------------------------

 Structure from the checkpoint file:  "JID_1085.chk"
 ------------------------------
 CID_64116356_JID_1085_neutraal
 ------------------------------
 Charge =  0 Multiplicity = 1

 SCF Done:  E(RB3LYP) =  -519.104518191     A.U. after    1 cycles

  Exact polarizability:  96.310  -0.927 108.940   3.828   2.199  80.923
 Approx polarizability: 125.276  -2.464 177.975   6.133   0.573 115.162

                      1                      2                      3
                      A                      A                      A
 Frequencies --     33.3030                53.8238                93.9183
 Red. masses --      4.2321                 8.1881                 2.4649
 Frc consts  --      0.0028                 0.0140                 0.0128
 IR Inten    --      0.2605                 0.9435                 0.1700

                      4                      5                      6
                      A                      A                      A
 Frequencies --    132.3328               156.2117               213.5324
 Red. masses --      3.2107                 4.4605                 2.9692
 Frc consts  --      0.0331                 0.0641                 0.0798
 IR Inten    --      0.2856                 0.4543                 3.3761

                      7                      8                      9
                      A                      A                      A
 Frequencies --    239.5851               245.6475               256.5469
 Red. masses --      1.0933                 1.0999                 3.2867
 Frc consts  --      0.0370                 0.0391                 0.1275
 IR Inten    --      0.0248                 0.2300                 4.6325

                     10                     11                     12
                      A                      A                      A
 Frequencies --    275.1716               300.5774               338.4849
 Red. masses --      1.1488                 2.5376                 2.6769
 Frc consts  --      0.0512                 0.1351                 0.1807
 IR Inten    --      0.1376                 0.7525                 0.5739

                     13                     14                     15
                      A                      A                      A
 Frequencies --    372.7992               413.7540               454.0150
 Red. masses --      2.3833                 2.4822                 3.2072
 Frc consts  --      0.1952                 0.2504                 0.3895
 IR Inten    --      1.0878                 7.5414                 1.5485

                     16                     17                     18
                      A                      A                      A
 Frequencies --    483.4253               511.2884               547.3415
 Red. masses --      2.1663                 3.1677                 2.3754
 Frc consts  --      0.2983                 0.4879                 0.4193
 IR Inten    --      3.7395                24.2691                17.7654

                     19                     20                     21
                      A                      A                      A
 Frequencies --    576.3086               634.9752               684.2516
 Red. masses --      4.4873                 1.3179                 1.7748
 Frc consts  --      0.8781                 0.3131                 0.4896
 IR Inten    --     18.2759                86.6127                22.5770

                     22                     23                     24
                      A                      A                      A
 Frequencies --    776.3934               785.6620               835.5720
 Red. masses --      2.7318                 2.4528                 3.1801
 Frc consts  --      0.9702                 0.8920                 1.3081
 IR Inten    --      5.1024                 4.2250                27.9109

                     25                     26                     27
                      A                      A                      A
 Frequencies --    887.7851               934.1184               955.2403
 Red. masses --      2.5843                 1.2548                 1.7155
 Frc consts  --      1.2001                 0.6451                 0.9223
 IR Inten    --      1.4050                 1.3492                 9.1190

                     28                     29                     30
                      A                      A                      A
 Frequencies --    959.8937               970.6450               982.0626
 Red. masses --      1.4547                 1.7023                 1.6021
 Frc consts  --      0.7897                 0.9449                 0.9104
 IR Inten    --      1.3169                13.6295                33.3649

                     31                     32                     33
                      A                      A                      A
 Frequencies --   1056.4316              1131.1926              1145.5065
 Red. masses --      1.9125                 2.2077                 2.4057
 Frc consts  --      1.2576                 1.6644                 1.8599
 IR Inten    --     28.7471                 7.3006               141.0712

                     34                     35                     36
                      A                      A                      A
 Frequencies --   1151.3759              1169.9221              1179.1595
 Red. masses --      1.6554                 1.5267                 1.9971
 Frc consts  --      1.2929                 1.2311                 1.6360
 IR Inten    --     20.2625                55.1317                34.1071

                     37                     38                     39
                      A                      A                      A
 Frequencies --   1221.4541              1278.7245              1305.8613
 Red. masses --      1.8725                 1.9058                 2.6993
 Frc consts  --      1.6460                 1.8361                 2.7121
 IR Inten    --     31.2990                35.8237                46.3688

                     40                     41                     42
                      A                      A                      A
 Frequencies --   1368.5674              1380.3116              1402.6361
 Red. masses --      1.4226                 1.3571                 1.1938
 Frc consts  --      1.5699                 1.5234                 1.3838
 IR Inten    --      8.4198                11.2098                 4.0535

                     43                     44                     45
                      A                      A                      A
 Frequencies --   1404.3298              1421.3718              1429.0536
 Red. masses --      2.7916                 1.2580                 1.3354
 Frc consts  --      3.2437                 1.4975                 1.6068
 IR Inten    --     51.4008                10.8388                 9.4670

                     46                     47                     48
                      A                      A                      A
 Frequencies --   1444.8713              1471.3914              1485.8219
 Red. masses --      1.2856                 1.2385                 1.1299
 Frc consts  --      1.5813                 1.5798                 1.4697
 IR Inten    --     21.3427                14.6479                 7.6150

                     49                     50                     51
                      A                      A                      A
 Frequencies --   1499.8605              1512.6388              1522.6452
 Red. masses --      1.0942                 1.0745                 1.0538
 Frc consts  --      1.4502                 1.4485                 1.4395
 IR Inten    --     16.8719                 5.6955                 5.4741

                     52                     53                     54
                      A                      A                      A
 Frequencies --   1527.6850              1534.4481              1545.5984
 Red. masses --      1.0569                 1.0485                 1.0606
 Frc consts  --      1.4533                 1.4545                 1.4927
 IR Inten    --      1.2226                 4.2260                 0.8682

                     55                     56                     57
                      A                      A                      A
 Frequencies --   1549.0312              1704.2157              1816.7464
 Red. masses --      1.0563                 4.9415                 9.4935
 Frc consts  --      1.4933                 8.4559                18.4614
 IR Inten    --      7.4363                 8.9135               246.4466

                     58                     59                     60
                      A                      A                      A
 Frequencies --   3006.1508              3013.1950              3050.0853
 Red. masses --      1.0718                 1.0550                 1.0587
 Frc consts  --      5.7070                 5.6437                 5.8028
 IR Inten    --     28.7541                68.0265                20.4345

                     61                     62                     63
                      A                      A                      A
 Frequencies --   3053.1599              3059.4099              3062.6698
 Red. masses --      1.0385                 1.0390                 1.0931
 Frc consts  --      5.7036                 5.7300                 6.0412
 IR Inten    --     36.0553                16.9676                61.3261

                     64                     65                     66
                      A                      A                      A
 Frequencies --   3098.2380              3114.1805              3122.2879
 Red. masses --      1.1023                 1.0997                 1.0988
 Frc consts  --      6.2343                 6.2836                 6.3113
 IR Inten    --     12.7897                29.4948                24.6920

                     67                     68                     69
                      A                      A                      A
 Frequencies --   3125.4332              3130.6628              3143.5912
 Red. masses --      1.1017                 1.1027                 1.1003
 Frc consts  --      6.3407                 6.3677                 6.4066
 IR Inten    --     40.8946                24.6091                33.7486

                     70                     71                     72
                      A                      A                      A
 Frequencies --   3171.9466              3262.9024              3693.6948
 Red. masses --      1.0614                 1.1145                 1.0641
 Frc consts  --      6.2919                 6.9913                 8.5539
 IR Inten    --      7.2005                 4.3232                57.4430

 - Thermochemistry -
 -------------------
 Temperature   298.150 Kelvin.  Pressure   1.00000 Atm.
 Atom     1 has atomic number  6 and mass  12.00000

 Molecular mass:   157.11028 amu.
 Principal axes and moments of inertia in atomic units:
                           1         2         3
     Eigenvalues --  1205.500882137.315112465.13468
           X            0.99997   0.00208  -0.00754
           Y           -0.00192   0.99977   0.02130
           Z            0.00758  -0.02128   0.99974
 This molecule is an asymmetric top.
 Rotational symmetry number  1.
 Warning -- assumption of classical behavior for rotation
           may cause significant error
 Rotational temperatures (Kelvin)      0.07185     0.04052     0.03514
 Rotational constants (GHZ):           1.49709     0.84440     0.73211
 Zero-point vibrational energy     597374.0 (Joules/Mol)
                                  142.77580 (Kcal/Mol)
 Warning -- explicit consideration of  19 degrees of freedom as
           vibrations may cause significant error
 Vibrational temperatures:     47.92    77.44   135.13   190.40   224.75
          (Kelvin)            307.23   344.71   353.43   369.11   395.91
                              432.46   487.00   536.37   595.30   653.23
                              695.54   735.63   787.50   829.18   913.59
                              984.49  1117.06  1130.39  1202.20  1277.32
                             1343.99  1374.38  1381.07  1396.54  1412.97
                             1519.97  1627.53  1648.13  1656.57  1683.26
                             1696.55  1757.40  1839.80  1878.84  1969.06
                             1985.96  2018.08  2020.52  2045.04  2056.09
                             2078.85  2117.00  2137.77  2157.96  2176.35
                             2190.75  2198.00  2207.73  2223.77  2228.71
                             2451.99  2613.89  4325.18  4335.32  4388.39
                             4392.82  4401.81  4406.50  4457.67  4480.61
                             4492.28  4496.80  4504.33  4522.93  4563.72
                             4694.59  5314.40

 Zero-point correction=                           0.227528 (Hartree/Particle)
 Thermal correction to Energy=                    0.240112
 Thermal correction to Enthalpy=                  0.241056
 Thermal correction to Gibbs Free Energy=         0.188809
 Sum of electronic and zero-point Energies=           -518.876990
 Sum of electronic and thermal Energies=              -518.864406
 Sum of electronic and thermal Enthalpies=            -518.863462
 Sum of electronic and thermal Free Energies=         -518.915709

                     E (Thermal)             CV                S
                      KCal/Mol        Cal/Mol-Kelvin    Cal/Mol-Kelvin
 Total                  150.673             46.693            109.963
 Electronic               0.000              0.000              0.000
 Translational            0.889              2.981             41.065
 Rotational               0.889              2.981             30.230
 Vibrational            148.895             40.732             38.668
 Vibration     1          0.594              1.983              5.622
 Vibration     2          0.596              1.976              4.672
 Vibration     3          0.603              1.954              3.577
 Vibration     4          0.612              1.921              2.912
 Vibration     5          0.620              1.896              2.595
 Vibration     6          0.644              1.820              2.013
 Vibration     7          0.657              1.780              1.806
 Vibration     8          0.660              1.770              1.762
 Vibration     9          0.666              1.752              1.685
 Vibration    10          0.677              1.719              1.564
 Vibration    11          0.693              1.673              1.414
 Vibration    12          0.719              1.599              1.219
 Vibration    13          0.744              1.528              1.068
 Vibration    14          0.777              1.440              0.913
 Vibration    15          0.812              1.352              0.784
 Vibration    16          0.840              1.287              0.701
 Vibration    17          0.866              1.225              0.630
 Vibration    18          0.903              1.146              0.550
 Vibration    19          0.933              1.083              0.492

 Optimization completed.
    -- Stationary point found.
 Normal termination of Gaussian 16 at Tue Dec  8 19:21:29 2020.

 ----------------------------------------------------------------------
 # B3LYP/6-311++G(d,p) empiricaldispersion=gd3bj scf=xqc pop=npa geom=c
 heck
 ----------------------------------------------------------------------

 --------------------------------------
 CID_64116356_JID_1085_Energie_neutraal
 --------------------------------------
 Structure from the checkpoint file:  "JID_1085.chk"
 Charge =  0 Multiplicity = 1

 SCF Done:  E(RB3LYP) =  -519.263346556     A.U. after   14 cycles
 Normal termination of Gaussian 16 at Tue Dec  8 19:24:10 2020.

 ----------------------------------------------------------------------
 # B3LYP/6-311++G(d,p) empiricaldispersion=gd3bj scf=xqc pop=npa geom=c
 heck
 ----------------------------------------------------------------------

 ------------------------------------
 CID_64116356_JID_1085_Energie_kation
 ------------------------------------
 Structure from the checkpoint file:  "JID_1085.chk"
 Charge =  1 Multiplicity = 2

 SCF Done:  E(UB3LYP) =  -518.983683697     A.U. after   21 cycles
 Normal termination of Gaussian 16 at Tue Dec  8 19:29:49 2020.
 Gaussian 16:  ES64L-G16RevA.03 25-Dec-2016

 ----------------------------------------------------------------------
 # B3LYP/6-311++G(d,p) empiricaldispersion=gd3bj scf=xqc pop=npa geom=c
 heck
 ----------------------------------------------------------------------

 -----------------------------------
 CID_64116356_JID_1085_Energie_anion
 -----------------------------------
 Structure from the checkpoint file:  "JID_1085.chk"
 Charge = -1 Multiplicity = 2

                         Standard orientation:
 ---------------------------------------------------------------------
 Center     Atomic      Atomic             Coordinates (Angstroms)
 Number     Number       Type             X           Y           Z
 ---------------------------------------------------------------------
      1          6           0       -2.555345   -1.255005   -0.107947
      2          6           0       -1.968883    0.047505    0.443640
      3          6           0       -1.229826   -0.196492    1.775683
      4          7           0       -1.201026    0.768633   -0.577020
      5          6           0       -0.888547    2.143751   -0.226992
      6          6           0       -0.217316    0.044508   -1.368479
      7          6           0        0.912138   -0.671072   -0.639818
      8          6           0        1.072073   -1.999785   -0.679160
      9          6           0        1.903141    0.181396    0.069272
     10          8           0        2.054127    1.371109   -0.129099
     11          8           0        2.663806   -0.496085    0.967545
     12          1           0       -1.784847   -2.018536   -0.255969
     13          1           0       -3.060417   -1.077971   -1.063238
     14          1           0       -3.285900   -1.661962    0.599108
     15          1           0       -2.817331    0.710419    0.669099
     16          1           0       -0.413428   -0.914586    1.659276
     17          1           0       -0.810748    0.734258    2.172288
     18          1           0       -1.923944   -0.593218    2.526247
     19          1           0       -0.173731    2.267816    0.600028
     20          1           0       -0.462890    2.652027   -1.097054
     21          1           0       -1.820311    2.655070    0.047405
     22          1           0       -0.733557   -0.707750   -1.976395
     23          1           0        0.223066    0.768476   -2.062298
     24          1           0        1.887405   -2.497521   -0.166008
     25          1           0        0.384085   -2.625265   -1.242241
     26          1           0        3.291654    0.159290    1.324136
 ---------------------------------------------------------------------

 SCF Done:  E(UB3LYP) =  -519.259773975     A.U. after   33 cycles
 SCF Done:  E(UB3LYP) =  -519.259773975     a.u. after    1 cycles

 The electronic state is 2-A.
 Alpha  occ. eigenvalues --  -19.01046 -18.93592 -14.16460 -10.11571 -10.07358
 Alpha  occ. eigenvalues --  -10.05392 -10.05344 -10.03356 -10.02468 -10.00701
 Alpha  occ. eigenvalues --   -9.99440  -0.94553  -0.85135  -0.78606  -0.64971
 Alpha  occ. eigenvalues --   -0.63462  -0.56871  -0.55124  -0.51156  -0.48966
 Alpha  occ. eigenvalues --   -0.43516  -0.39665  -0.36115  -0.34223  -0.32777
 Alpha  occ. eigenvalues --   -0.31719  -0.31114  -0.30030  -0.28822  -0.27546
 Alpha  occ. eigenvalues --   -0.26608  -0.26135  -0.25286  -0.24658  -0.23097
 Alpha  occ. eigenvalues --   -0.22299  -0.21826  -0.20985  -0.20545  -0.16992
 Alpha  occ. eigenvalues --   -0.11880  -0.11736  -0.06980   0.05924
 Alpha virt. eigenvalues --    0.07884   0.09561   0.09875   0.10271   0.11353
 Alpha virt. eigenvalues --    0.12217   0.12393   0.12519   0.13800   0.14392
 Alpha virt. eigenvalues --    0.15218   0.15475   0.16377   0.16836   0.17268

  Beta  occ. eigenvalues --  -19.01007 -18.93286 -14.16446 -10.11267 -10.07354
  Beta  occ. eigenvalues --  -10.05401 -10.05342 -10.03332 -10.02463 -10.00552
  Beta  occ. eigenvalues --   -9.99042  -0.94268  -0.84693  -0.78573  -0.64806
  Beta  occ. eigenvalues --   -0.63069  -0.56740  -0.55014  -0.51070  -0.48152
  Beta  occ. eigenvalues --   -0.43303  -0.39360  -0.36032  -0.34138  -0.32541
  Beta  occ. eigenvalues --   -0.31500  -0.30841  -0.29779  -0.28059  -0.27503
  Beta  occ. eigenvalues --   -0.26318  -0.26041  -0.25202  -0.24509  -0.23015
  Beta  occ. eigenvalues --   -0.22219  -0.21612  -0.20840  -0.20476  -0.15852
  Beta  occ. eigenvalues --   -0.11496  -0.09820  -0.06796
  Beta virt. eigenvalues --    0.08143   0.09647   0.09823   0.10146   0.11377
  Beta virt. eigenvalues --    0.11642   0.12260   0.12374   0.13076   0.13897
  Beta virt. eigenvalues --    0.14343   0.15267   0.15566   0.16360   0.17082

 Mulliken charges and spin densities:
               1          2
     1  C    0.230454  -0.787484
     2  C   -0.428885   0.537958
     3  C    0.053896  -0.651573
     4  N    0.147202   0.003282
     5  C   -0.296955  -0.040862
     6  C   -0.707798  -0.100611
     7  C    0.938645   0.046239
     8  C   -0.751908   0.411485
     9  C   -0.354926   0.185676
    10  O   -0.380436   0.107233
    11  O   -0.192976   0.010186
    12  H   -0.137166   0.290741
    13  H    0.114256   0.010698
    14  H   -0.234631   0.357729
    15  H   -0.076758   0.213515
    16  H    0.022168   0.177207
    17  H    0.049976   0.057901
    18  H   -0.012031   0.126956
    19  H    0.142244   0.012851
    20  H    0.127928   0.000318
    21  H    0.071436   0.024913
    22  H    0.139754  -0.005881
    23  H    0.094829   0.068188
    24  H    0.127151  -0.014942
    25  H    0.078149  -0.045752
    26  H    0.236383   0.004029
 Sum of Mulliken charges =  -1.00000   1.00000

 Dipole moment (field-independent basis, Debye):
    X=             -0.6360    Y=              2.0207    Z=             -0.0834  Tot=              2.1201
 Quadrupole moment (field-independent basis, Debye-Ang):
   XX=            -99.5755   YY=            -96.3155   ZZ=            -85.1292
   XY=             -3.5945   XZ=              6.5003   YZ=              2.7095

 Summary of Natural Population Analysis:

                                       Natural Population
                Natural  -----------------------------------------------
    Atom  No    Charge         Core      Valence    Rydberg      Total
 -----------------------------------------------------------------------
      C    1   -0.29201      0.99964     2.28625    0.00611     3.29201
      C    2   -0.00007      0.99961     1.98760    0.01286     3.00007
      C    3   -0.30032      0.99964     2.29472    0.00596     3.30032
      N    4   -0.28389      0.99971     2.77161    0.01257     3.78389
      C    5   -0.17125      0.99965     2.16320    0.00841     3.17125
      C    6   -0.08963      0.99958     2.07714    0.01291     3.08963
      C    7   -0.06830      0.99945     2.05714    0.01171     3.06830
      C    8   -0.08889      0.99953     2.08083    0.00852     3.08889
      C    9    0.42396      0.99962     1.54900    0.02742     2.57604
      O   10   -0.30855      0.99987     3.30267    0.00601     4.30855
      O   11   -0.35387      0.99988     3.34743    0.00655     4.35387
      H   12    0.10664      0.00000     0.39221    0.00114     0.39336
      H   13    0.09667      0.00000     0.40235    0.00098     0.40333
      H   14    0.09641      0.00000     0.40277    0.00082     0.40359
      H   15    0.08223      0.00000     0.41568    0.00209     0.41777
      H   16    0.11207      0.00000     0.38641    0.00152     0.38793
      H   17    0.09682      0.00000     0.40220    0.00098     0.40318
      H   18    0.09121      0.00000     0.40782    0.00097     0.40879
      H   19    0.08932      0.00000     0.40908    0.00161     0.41068
      H   20    0.09400      0.00000     0.40517    0.00083     0.40600
      H   21    0.08081      0.00000     0.41820    0.00099     0.41919
      H   22    0.08851      0.00000     0.41034    0.00116     0.41149
      H   23    0.10047      0.00000     0.39855    0.00099     0.39953
      H   24    0.09187      0.00000     0.40713    0.00100     0.40813
      H   25    0.07747      0.00000     0.42135    0.00118     0.42253
      H   26    0.22832      0.00000     0.26811    0.00357     0.27168
 =======================================================================
   * Total *   -0.00000     10.99618    31.86498    0.13883    43.00000

 Normal termination of Gaussian 16 at Tue Dec  8 19:38:37 2020.
