 Gaussian 16, Revision A.03,

 -----------------------------------------------------------
 # opt freq B3LYP/6-31G(d) empiricaldispersion=gd3bj scf=xqc
 -----------------------------------------------------------

 -------------------------------
 CID_112524140_JID_9095_neutraal
 -------------------------------
 Symbolic Z-matrix:
 Charge =  0 Multiplicity = 1

 SCF Done:  E(RB3LYP) =  -835.010563029     A.U. after   15 cycles
 SCF Done:  E(RB3LYP) =  -835.015892167     A.U. after   13 cycles
 SCF Done:  E(RB3LYP) =  -835.015233070     A.U. after   13 cycles
 SCF Done:  E(RB3LYP) =  -835.017682010     A.U. after   13 cycles
 SCF Done:  E(RB3LYP) =  -835.018385618     A.U. after   13 cycles
 SCF Done:  E(RB3LYP) =  -835.018907288     A.U. after   13 cycles
 SCF Done:  E(RB3LYP) =  -835.019342538     A.U. after   13 cycles
 SCF Done:  E(RB3LYP) =  -835.019715051     A.U. after   13 cycles
 SCF Done:  E(RB3LYP) =  -835.019916300     A.U. after   12 cycles
 SCF Done:  E(RB3LYP) =  -835.020038481     A.U. after   12 cycles
 SCF Done:  E(RB3LYP) =  -835.020050167     A.U. after    8 cycles
 SCF Done:  E(RB3LYP) =  -835.020050385     A.U. after    8 cycles
 SCF Done:  E(RB3LYP) =  -835.020050474     A.U. after    7 cycles
 SCF Done:  E(RB3LYP) =  -835.020050606     A.U. after    7 cycles
 SCF Done:  E(RB3LYP) =  -835.020050646     A.U. after    7 cycles
 Optimization completed.
    -- Stationary point found.
 Normal termination of Gaussian 16 at Sun Dec 13 12:35:29 2020.

 --------------------------------------------------------------------
 #N Geom=AllCheck Guess=TCheck SCRF=Check GenChk RB3LYP/6-31G(d) Freq
 --------------------------------------------------------------------

 Structure from the checkpoint file:  "JID_9095.chk"
 -------------------------------
 CID_112524140_JID_9095_neutraal
 -------------------------------
 Charge =  0 Multiplicity = 1

 SCF Done:  E(RB3LYP) =  -835.020050646     A.U. after    1 cycles

  Exact polarizability: 235.590  -3.297 179.224  26.730 -12.227  93.839
 Approx polarizability: 339.270 -10.351 328.423  53.768 -32.828 156.445

                      1                      2                      3
                      A                      A                      A
 Frequencies --     20.7802                31.2195                55.2237
 Red. masses --      5.9450                 6.0711                 5.0427
 Frc consts  --      0.0015                 0.0035                 0.0091
 IR Inten    --      0.4782                 0.4720                 0.6708

                      4                      5                      6
                      A                      A                      A
 Frequencies --     72.4923                94.6282               120.7135
 Red. masses --      6.2104                 6.8009                 6.3686
 Frc consts  --      0.0192                 0.0359                 0.0547
 IR Inten    --      2.9051                 2.4189                 6.2465

                      7                      8                      9
                      A                      A                      A
 Frequencies --    158.2088               243.6417               247.1047
 Red. masses --      5.2161                 4.7368                 4.3911
 Frc consts  --      0.0769                 0.1657                 0.1580
 IR Inten    --      3.3264                 1.4993                 0.8846

                     10                     11                     12
                      A                      A                      A
 Frequencies --    278.6290               305.6266               357.1322
 Red. masses --      4.0118                 4.8367                 2.8371
 Frc consts  --      0.1835                 0.2662                 0.2132
 IR Inten    --      5.8451                 8.0417                11.5045

                     13                     14                     15
                      A                      A                      A
 Frequencies --    394.8948               405.4438               427.7129
 Red. masses --      2.3497                 2.1839                 4.2483
 Frc consts  --      0.2159                 0.2115                 0.4579
 IR Inten    --     23.7569                50.0984                 1.6279

                     16                     17                     18
                      A                      A                      A
 Frequencies --    430.4836               446.6504               463.7194
 Red. masses --      3.5380                 3.5270                 3.9527
 Frc consts  --      0.3863                 0.4146                 0.5008
 IR Inten    --      2.4308                 3.0724                 7.4464

                     19                     20                     21
                      A                      A                      A
 Frequencies --    477.3408               540.0895               582.3942
 Red. masses --      3.6767                 2.9094                 1.9117
 Frc consts  --      0.4936                 0.5000                 0.3820
 IR Inten    --      4.9097                21.4789                44.1683

                     22                     23                     24
                      A                      A                      A
 Frequencies --    607.7740               618.2925               635.6269
 Red. masses --      4.2002                 2.7911                 3.2907
 Frc consts  --      0.9141                 0.6286                 0.7833
 IR Inten    --      7.7806                 5.6582                35.7799

                     25                     26                     27
                      A                      A                      A
 Frequencies --    639.9550               689.1193               721.2849
 Red. masses --      7.5044                 6.0489                 6.1436
 Frc consts  --      1.8108                 1.6925                 1.8832
 IR Inten    --     20.6969                11.4407                11.3374

                     28                     29                     30
                      A                      A                      A
 Frequencies --    729.4074               748.9941               777.7594
 Red. masses --      1.3791                 2.3748                 2.7751
 Frc consts  --      0.4323                 0.7849                 0.9891
 IR Inten    --     38.7870                29.0230                 1.5486

                     31                     32                     33
                      A                      A                      A
 Frequencies --    789.5640               820.3031               828.6946
 Red. masses --      4.8407                 1.8338                 3.2553
 Frc consts  --      1.7780                 0.7270                 1.3171
 IR Inten    --      0.7877                32.7604                 8.3212

                     34                     35                     36
                      A                      A                      A
 Frequencies --    854.4678               864.4379               900.1256
 Red. masses --      1.3755                 3.4529                 1.5662
 Frc consts  --      0.5917                 1.5202                 0.7477
 IR Inten    --      8.7662                11.3281                 5.8650

                     37                     38                     39
                      A                      A                      A
 Frequencies --    916.9421               922.5728               938.1364
 Red. masses --      3.8394                 1.8086                 3.1503
 Frc consts  --      1.9020                 0.9070                 1.6336
 IR Inten    --      5.7513                 4.5142                 8.0686

                     40                     41                     42
                      A                      A                      A
 Frequencies --    947.3922               964.6609               983.5510
 Red. masses --      1.4543                 2.5256                 1.4153
 Frc consts  --      0.7690                 1.3847                 0.8067
 IR Inten    --      4.7882                24.4548                 0.5463

                     43                     44                     45
                      A                      A                      A
 Frequencies --    986.5464              1004.4564              1063.4963
 Red. masses --      2.4212                 1.4502                 3.6389
 Frc consts  --      1.3884                 0.8621                 2.4249
 IR Inten    --      0.5047                 6.5508                 1.9794

                     46                     47                     48
                      A                      A                      A
 Frequencies --   1100.7177              1118.0305              1156.2359
 Red. masses --      1.5494                 1.4661                 3.3761
 Frc consts  --      1.1060                 1.0797                 2.6593
 IR Inten    --      8.5296                18.3679                13.9940

                     49                     50                     51
                      A                      A                      A
 Frequencies --   1163.0714              1170.6385              1187.3444
 Red. masses --      1.7560                 1.7249                 1.3936
 Frc consts  --      1.3996                 1.3927                 1.1576
 IR Inten    --      3.4265                 1.5282                64.0413

                     52                     53                     54
                      A                      A                      A
 Frequencies --   1228.5569              1243.5597              1247.5113
 Red. masses --      1.8417                 1.9368                 5.4949
 Frc consts  --      1.6378                 1.7647                 5.0385
 IR Inten    --      8.6968                 4.1933                 6.7204

                     55                     56                     57
                      A                      A                      A
 Frequencies --   1285.6705              1298.3342              1314.3011
 Red. masses --      1.4420                 2.0862                 1.7777
 Frc consts  --      1.4044                 2.0719                 1.8092
 IR Inten    --     14.3955                23.4462                15.1227

                     58                     59                     60
                      A                      A                      A
 Frequencies --   1330.6404              1361.2907              1389.2340
 Red. masses --      3.2432                 3.0859                 1.3315
 Frc consts  --      3.3833                 3.3692                 1.5141
 IR Inten    --     75.3963               142.1104                16.2678

                     61                     62                     63
                      A                      A                      A
 Frequencies --   1392.5628              1399.6758              1441.1389
 Red. masses --      2.5233                 2.1971                 1.6803
 Frc consts  --      2.8830                 2.5361                 2.0561
 IR Inten    --     27.6071               127.7199                12.1550

                     64                     65                     66
                      A                      A                      A
 Frequencies --   1452.6482              1477.8072              1498.4867
 Red. masses --      2.8608                 2.9735                 3.1507
 Frc consts  --      3.5568                 3.8260                 4.1683
 IR Inten    --      7.3100               142.4402                37.0048

                     67                     68                     69
                      A                      A                      A
 Frequencies --   1511.5160              1517.8330              1550.5137
 Red. masses --      1.1262                 2.1768                 3.7091
 Frc consts  --      1.5160                 2.9547                 5.2538
 IR Inten    --     10.0072               103.1043                 0.0695

                     70                     71                     72
                      A                      A                      A
 Frequencies --   1568.6304              1609.0570              1627.5806
 Red. masses --      3.4250                 5.2820                 5.9243
 Frc consts  --      4.9654                 8.0574                 9.2463
 IR Inten    --      9.1978                39.3775                 2.3983

                     73                     74                     75
                      A                      A                      A
 Frequencies --   1637.9683              1684.2757              1783.2930
 Red. masses --      5.2561                 6.2790                 8.0828
 Frc consts  --      8.3086                10.4946                15.1446
 IR Inten    --      5.1271                11.4959               359.8267

                     76                     77                     78
                      A                      A                      A
 Frequencies --   3067.4905              3121.0759              3162.1792
 Red. masses --      1.0629                 1.1003                 1.0911
 Frc consts  --      5.8928                 6.3147                 6.4285
 IR Inten    --     13.3307                12.0330                20.3919

                     79                     80                     81
                      A                      A                      A
 Frequencies --   3180.9869              3201.4877              3202.5072
 Red. masses --      1.0872                 1.0938                 1.0906
 Frc consts  --      6.4816                 6.6052                 6.5900
 IR Inten    --     11.0104                25.3263                14.4644

                     82                     83                     84
                      A                      A                      A
 Frequencies --   3207.9576              3210.2034              3261.1476
 Red. masses --      1.0937                 1.0913                 1.0899
 Frc consts  --      6.6313                 6.6262                 6.8293
 IR Inten    --      3.8485                 0.2992                 2.0875

                     85                     86                     87
                      A                      A                      A
 Frequencies --   3280.7501              3571.6299              3671.9497
 Red. masses --      1.1036                 1.0754                 1.0802
 Frc consts  --      6.9987                 8.0824                 8.5810
 IR Inten    --      6.2175                31.1472                61.2705

 - Thermochemistry -
 -------------------
 Temperature   298.150 Kelvin.  Pressure   1.00000 Atm.
 Atom     1 has atomic number  6 and mass  12.00000

 Molecular mass:   252.10111 amu.
 Principal axes and moments of inertia in atomic units:
                           1         2         3
     Eigenvalues --  2329.210418714.13401**********
           X            0.99998   0.00400   0.00396
           Y           -0.00396   0.99994  -0.01018
           Z           -0.00400   0.01016   0.99994
 This molecule is an asymmetric top.
 Rotational symmetry number  1.
 Warning -- assumption of classical behavior for rotation
           may cause significant error
 Rotational temperatures (Kelvin)      0.03719     0.00994     0.00850
 Rotational constants (GHZ):           0.77483     0.20711     0.17709
 Zero-point vibrational energy     639973.3 (Joules/Mol)
                                  152.95729 (Kcal/Mol)
 Warning -- explicit consideration of  23 degrees of freedom as
           vibrations may cause significant error
 Vibrational temperatures:     29.90    44.92    79.45   104.30   136.15
          (Kelvin)            173.68   227.63   350.55   355.53   400.89
                              439.73   513.83   568.17   583.34   615.38
                              619.37   642.63   667.19   686.79   777.07
                              837.94   874.45   889.59   914.53   920.75
                              991.49  1037.77  1049.45  1077.64  1119.02
                             1136.01  1180.23  1192.31  1229.39  1243.73
                             1295.08  1319.28  1327.38  1349.77  1363.09
                             1387.93  1415.11  1419.42  1445.19  1530.13
                             1583.69  1608.60  1663.57  1673.40  1684.29
                             1708.32  1767.62  1789.21  1794.89  1849.79
                             1868.01  1890.99  1914.49  1958.59  1998.80
                             2003.59  2013.82  2073.48  2090.04  2126.24
                             2155.99  2174.73  2183.82  2230.84  2256.91
                             2315.07  2341.73  2356.67  2423.30  2565.76
                             4413.43  4490.53  4549.67  4576.73  4606.23
                             4607.69  4615.54  4618.77  4692.06  4720.27
                             5138.78  5283.12

 Zero-point correction=                           0.243753 (Hartree/Particle)
 Thermal correction to Energy=                    0.258715
 Thermal correction to Enthalpy=                  0.259659
 Thermal correction to Gibbs Free Energy=         0.199461
 Sum of electronic and zero-point Energies=           -834.776298
 Sum of electronic and thermal Energies=              -834.761336
 Sum of electronic and thermal Enthalpies=            -834.760392
 Sum of electronic and thermal Free Energies=         -834.820589

                     E (Thermal)             CV                S
                      KCal/Mol        Cal/Mol-Kelvin    Cal/Mol-Kelvin
 Total                  162.346             58.922            126.696
 Electronic               0.000              0.000              0.000
 Translational            0.889              2.981             42.474
 Rotational               0.889              2.981             33.691
 Vibrational            160.568             52.961             50.530
 Vibration     1          0.593              1.986              6.558
 Vibration     2          0.594              1.983              5.750
 Vibration     3          0.596              1.975              4.621
 Vibration     4          0.599              1.967              4.085
 Vibration     5          0.603              1.953              3.562
 Vibration     6          0.609              1.932              3.089
 Vibration     7          0.621              1.893              2.571
 Vibration     8          0.659              1.773              1.776
 Vibration     9          0.661              1.768              1.751
 Vibration    10          0.679              1.713              1.542
 Vibration    11          0.696              1.663              1.386
 Vibration    12          0.732              1.561              1.135
 Vibration    13          0.762              1.481              0.982
 Vibration    14          0.770              1.458              0.943
 Vibration    15          0.789              1.410              0.866
 Vibration    16          0.792              1.404              0.857
 Vibration    17          0.806              1.368              0.806
 Vibration    18          0.821              1.331              0.755
 Vibration    19          0.834              1.300              0.717
 Vibration    20          0.895              1.161              0.565
 Vibration    21          0.939              1.069              0.481
 Vibration    22          0.967              1.015              0.436
 Vibration    23          0.978              0.993              0.419

 Optimization completed.
    -- Stationary point found.
 Normal termination of Gaussian 16 at Sun Dec 13 12:49:46 2020.

 ----------------------------------------------------------------------
 # B3LYP/6-311++G(d,p) empiricaldispersion=gd3bj scf=xqc pop=npa geom=c
 heck
 ----------------------------------------------------------------------

 ---------------------------------------
 CID_112524140_JID_9095_Energie_neutraal
 ---------------------------------------
 Structure from the checkpoint file:  "JID_9095.chk"
 Charge =  0 Multiplicity = 1

 SCF Done:  E(RB3LYP) =  -835.243350726     A.U. after   16 cycles
 Normal termination of Gaussian 16 at Sun Dec 13 12:56:10 2020.

 ----------------------------------------------------------------------
 # B3LYP/6-311++G(d,p) empiricaldispersion=gd3bj scf=xqc pop=npa geom=c
 heck
 ----------------------------------------------------------------------

 -------------------------------------
 CID_112524140_JID_9095_Energie_kation
 -------------------------------------
 Structure from the checkpoint file:  "JID_9095.chk"
 Charge =  1 Multiplicity = 2

 SCF Done:  E(UB3LYP) =  -834.962331339     A.U. after   25 cycles
 Normal termination of Gaussian 16 at Sun Dec 13 13:09:21 2020.
 Gaussian 16:  ES64L-G16RevA.03 25-Dec-2016

 ----------------------------------------------------------------------
 # B3LYP/6-311++G(d,p) empiricaldispersion=gd3bj scf=xqc pop=npa geom=c
 heck
 ----------------------------------------------------------------------

 ------------------------------------
 CID_112524140_JID_9095_Energie_anion
 ------------------------------------
 Structure from the checkpoint file:  "JID_9095.chk"
 Charge = -1 Multiplicity = 2

                         Standard orientation:
 ---------------------------------------------------------------------
 Center     Atomic      Atomic             Coordinates (Angstroms)
 Number     Number       Type             X           Y           Z
 ---------------------------------------------------------------------
      1          6           0       -2.123931   -1.709608    0.899066
      2          6           0       -0.996828   -0.986610    1.266233
      3          6           0       -0.839405    0.374600    0.917537
      4          6           0       -1.829189    1.030237    0.187878
      5          6           0       -2.959250    0.298757   -0.179577
      6          6           0       -3.134064   -1.073622    0.160970
      7          6           0       -4.399013   -1.482492   -0.383942
      8          6           0       -4.936899   -0.391479   -1.014877
      9          7           0       -4.073959    0.683847   -0.895361
     10          6           0        0.407602    1.123936    1.364943
     11          6           0        0.989592    2.001189    0.267747
     12          8           0        0.530743    3.105029    0.009510
     13          7           0        2.083664    1.541034   -0.447545
     14          6           0        2.774809    0.320090   -0.381312
     15          6           0        2.140090   -0.926965   -0.316061
     16          7           0        2.829936   -2.069530   -0.252392
     17          6           0        4.161466   -1.966922   -0.296074
     18          7           0        4.873952   -0.839615   -0.403792
     19          6           0        4.173875    0.294704   -0.436928
     20          1           0       -2.218790   -2.755245    1.177929
     21          1           0       -0.212452   -1.475914    1.837889
     22          1           0       -1.709629    2.074945   -0.081476
     23          1           0       -4.848984   -2.462792   -0.314510
     24          1           0       -5.872158   -0.284361   -1.545905
     25          1           0       -4.233698    1.605496   -1.270250
     26          1           0        0.156981    1.815382    2.177415
     27          1           0        1.149202    0.419324    1.750443
     28          1           0        2.456797    2.251942   -1.067490
     29          1           0        1.056356   -1.002620   -0.317017
     30          1           0        4.724476   -2.895698   -0.247920
     31          1           0        4.737679    1.224279   -0.515169
 ---------------------------------------------------------------------

 SCF Done:  E(UB3LYP) =  -835.249616717     A.U. after   33 cycles
 SCF Done:  E(UB3LYP) =  -835.249616717     a.u. after    1 cycles

 The electronic state is 2-A.
 Alpha  occ. eigenvalues --  -18.99639 -14.26544 -14.24913 -14.17909 -14.17316
 Alpha  occ. eigenvalues --  -10.18285 -10.11467 -10.11303 -10.10586 -10.10443
 Alpha  occ. eigenvalues --  -10.08987 -10.08871 -10.07961 -10.07892 -10.07886
 Alpha  occ. eigenvalues --  -10.07543 -10.07406 -10.07326 -10.07287  -0.94974
 Alpha  occ. eigenvalues --   -0.89014  -0.85847  -0.82831  -0.75728  -0.75570
 Alpha  occ. eigenvalues --   -0.70172  -0.66973  -0.65554  -0.64509  -0.60475
 Alpha  occ. eigenvalues --   -0.54437  -0.53638  -0.53519  -0.50353  -0.49313
 Alpha  occ. eigenvalues --   -0.47184  -0.45023  -0.42852  -0.40355  -0.40041
 Alpha  occ. eigenvalues --   -0.39056  -0.37885  -0.37169  -0.35069  -0.34090
 Alpha  occ. eigenvalues --   -0.33834  -0.32983  -0.32816  -0.31830  -0.30664
 Alpha  occ. eigenvalues --   -0.29642  -0.29134  -0.28610  -0.28118  -0.26419
 Alpha  occ. eigenvalues --   -0.24994  -0.23998  -0.21074  -0.19498  -0.19131
 Alpha  occ. eigenvalues --   -0.18278  -0.16675  -0.13797  -0.13536  -0.12038
 Alpha  occ. eigenvalues --   -0.11683   0.03711
 Alpha virt. eigenvalues --    0.04848   0.06586   0.07426   0.07462   0.08268
 Alpha virt. eigenvalues --    0.08658   0.09206   0.09615   0.10419   0.10686
 Alpha virt. eigenvalues --    0.11279   0.11694   0.12280   0.12392   0.12814

  Beta  occ. eigenvalues --  -18.99638 -14.26518 -14.24912 -14.17688 -14.16951
  Beta  occ. eigenvalues --  -10.18273 -10.11434 -10.11303 -10.10635 -10.10530
  Beta  occ. eigenvalues --  -10.08977 -10.08868 -10.07953 -10.07861 -10.07677
  Beta  occ. eigenvalues --  -10.07523 -10.07330 -10.07285 -10.07018  -0.94968
  Beta  occ. eigenvalues --   -0.88974  -0.85469  -0.82716  -0.75639  -0.74944
  Beta  occ. eigenvalues --   -0.70133  -0.66924  -0.65265  -0.64465  -0.60423
  Beta  occ. eigenvalues --   -0.54317  -0.53570  -0.52881  -0.50283  -0.49270
  Beta  occ. eigenvalues --   -0.47098  -0.44975  -0.42740  -0.40215  -0.39826
  Beta  occ. eigenvalues --   -0.39020  -0.37707  -0.37127  -0.35034  -0.34062
  Beta  occ. eigenvalues --   -0.33796  -0.32958  -0.32757  -0.31754  -0.30330
  Beta  occ. eigenvalues --   -0.29204  -0.28764  -0.28456  -0.27867  -0.26387
  Beta  occ. eigenvalues --   -0.24978  -0.23916  -0.20823  -0.19065  -0.17947
  Beta  occ. eigenvalues --   -0.17372  -0.16567  -0.13524  -0.13036  -0.11837
  Beta  occ. eigenvalues --   -0.11388
  Beta virt. eigenvalues --    0.06144   0.06727   0.07519   0.07783   0.08488
  Beta virt. eigenvalues --    0.08718   0.09135   0.09406   0.09634   0.10460
  Beta virt. eigenvalues --    0.10750   0.11302   0.11876   0.12242   0.12414

 Mulliken charges and spin densities:
               1          2
     1  C   -0.759017  -0.015126
     2  C   -0.230659   0.025644
     3  C    0.811260  -0.196313
     4  C   -0.771124   0.035638
     5  C   -0.580115  -0.448600
     6  C    1.637353   0.019165
     7  C    0.048172  -0.411266
     8  C    0.145080  -0.126593
     9  N   -0.154678   0.081680
    10  C   -0.118508  -0.163063
    11  C   -0.151850   0.027329
    12  O   -0.320634   0.000492
    13  N   -0.220193   0.013709
    14  C   -0.234188  -0.046042
    15  C   -0.243803   0.143476
    16  N   -0.113521   0.166636
    17  C   -0.080468  -0.030081
    18  N   -0.176323   0.093132
    19  C   -0.261091   0.298389
    20  H    0.126758   0.011810
    21  H    0.164394  -0.002397
    22  H    0.157697   0.053101
    23  H    0.113924   0.018496
    24  H   -0.843749   1.019689
    25  H   -0.106364   0.406166
    26  H    0.163340   0.042239
    27  H    0.180192   0.007553
    28  H    0.274204   0.018741
    29  H    0.256019  -0.015773
    30  H    0.157343   0.000750
    31  H    0.130551  -0.028580
 Sum of Mulliken charges =  -1.00000   1.00000

 Dipole moment (field-independent basis, Debye):
    X=             -0.6025    Y=             -0.0310    Z=              2.4630  Tot=              2.5358
 Quadrupole moment (field-independent basis, Debye-Ang):
   XX=           -211.4956   YY=           -140.7172   ZZ=           -125.2549
   XY=             15.6910   XZ=             -5.6822   YZ=             -1.7800

 Summary of Natural Population Analysis:

                                       Natural Population
                Natural  -----------------------------------------------
    Atom  No    Charge         Core      Valence    Rydberg      Total
 -----------------------------------------------------------------------
      C    1   -0.08651      0.99953     2.07927    0.00771     3.08651
      C    2   -0.11485      0.99953     2.10737    0.00795     3.11485
      C    3   -0.01908      0.99951     2.00855    0.01102     3.01908
      C    4   -0.11638      0.99947     2.10800    0.00891     3.11638
      C    5    0.08133      0.99948     1.90771    0.01148     2.91867
      C    6   -0.05065      0.99950     2.04176    0.00939     3.05065
      C    7   -0.14752      0.99953     2.13893    0.00906     3.14752
      C    8    0.00300      0.99958     1.98461    0.01281     2.99700
      N    9   -0.27296      0.99966     2.76347    0.00983     3.77296
      C   10   -0.24089      0.99956     2.23293    0.00840     3.24089
      C   11    0.35391      0.99968     1.62493    0.02149     2.64609
      O   12   -0.32907      0.99987     3.32307    0.00613     4.32907
      N   13   -0.30869      0.99964     2.79829    0.01076     3.80869
      C   14    0.01528      0.99946     1.97641    0.00886     2.98472
      C   15    0.05804      0.99955     1.92848    0.01393     2.94196
      N   16   -0.20415      0.99971     2.69268    0.01176     3.70415
      C   17    0.11603      0.99968     1.86350    0.02079     2.88397
      N   18   -0.22437      0.99972     2.71232    0.01233     3.72437
      C   19    0.09414      0.99957     1.89138    0.01491     2.90586
      H   20    0.09801      0.00000     0.40084    0.00115     0.40199
      H   21    0.10225      0.00000     0.39664    0.00111     0.39775
      H   22    0.11345      0.00000     0.38455    0.00200     0.38655
      H   23    0.10441      0.00000     0.39491    0.00068     0.39559
      H   24    0.10152      0.00000     0.39664    0.00185     0.39848
      H   25    0.20329      0.00000     0.29312    0.00359     0.29671
      H   26    0.11503      0.00000     0.38393    0.00104     0.38497
      H   27    0.11356      0.00000     0.38549    0.00095     0.38644
      H   28    0.19562      0.00000     0.30251    0.00187     0.30438
      H   29    0.09341      0.00000     0.40484    0.00175     0.40659
      H   30    0.07470      0.00000     0.42399    0.00132     0.42530
      H   31    0.07816      0.00000     0.42031    0.00153     0.42184
 =======================================================================
   * Total *   -0.00000     18.99221    46.77145    0.23634    66.00000

 Normal termination of Gaussian 16 at Sun Dec 13 13:27:46 2020.
