 Gaussian 16, Revision A.03,

 -----------------------------------------------------------
 # opt freq B3LYP/6-31G(d) empiricaldispersion=gd3bj scf=xqc
 -----------------------------------------------------------

 ------------------------------
 CID_83820601_JID_5389_neutraal
 ------------------------------
 Symbolic Z-matrix:
 Charge =  0 Multiplicity = 1

 SCF Done:  E(RB3LYP) =  -708.649164269     A.U. after   15 cycles
 SCF Done:  E(RB3LYP) =  -708.652463270     A.U. after   12 cycles
 SCF Done:  E(RB3LYP) =  -708.652947545     A.U. after   12 cycles
 SCF Done:  E(RB3LYP) =  -708.652797860     A.U. after   12 cycles
 SCF Done:  E(RB3LYP) =  -708.653296888     A.U. after   12 cycles
 SCF Done:  E(RB3LYP) =  -708.653634616     A.U. after   12 cycles
 SCF Done:  E(RB3LYP) =  -708.653863445     A.U. after   12 cycles
 SCF Done:  E(RB3LYP) =  -708.654000436     A.U. after   12 cycles
 SCF Done:  E(RB3LYP) =  -708.654051248     A.U. after   11 cycles
 SCF Done:  E(RB3LYP) =  -708.654182502     A.U. after   11 cycles
 SCF Done:  E(RB3LYP) =  -708.654306339     A.U. after    8 cycles
 SCF Done:  E(RB3LYP) =  -708.654306882     A.U. after   10 cycles
 SCF Done:  E(RB3LYP) =  -708.654307446     A.U. after    9 cycles
 SCF Done:  E(RB3LYP) =  -708.654307483     A.U. after    7 cycles
 SCF Done:  E(RB3LYP) =  -708.654307509     A.U. after    7 cycles
 Optimization completed.
    -- Stationary point found.
 Normal termination of Gaussian 16 at Thu Dec 10 15:59:07 2020.

 --------------------------------------------------------------------
 #N Geom=AllCheck Guess=TCheck SCRF=Check GenChk RB3LYP/6-31G(d) Freq
 --------------------------------------------------------------------

 Structure from the checkpoint file:  "JID_5389.chk"
 ------------------------------
 CID_83820601_JID_5389_neutraal
 ------------------------------
 Charge =  0 Multiplicity = 1

 SCF Done:  E(RB3LYP) =  -708.654307509     A.U. after    1 cycles

  Exact polarizability: 136.409  10.409 130.505 -10.443   5.585 101.242
 Approx polarizability: 174.667  15.430 183.440 -22.911  10.045 176.942

                      1                      2                      3
                      A                      A                      A
 Frequencies --     34.9417                39.1368                52.3589
 Red. masses --      4.1261                 4.1887                 6.6758
 Frc consts  --      0.0030                 0.0038                 0.0108
 IR Inten    --      0.1613                 0.1428                 0.9942

                      4                      5                      6
                      A                      A                      A
 Frequencies --     53.6615                85.7812               130.3526
 Red. masses --      4.0311                 3.7690                 3.9653
 Frc consts  --      0.0068                 0.0163                 0.0397
 IR Inten    --      0.0217                 0.5369                 0.4211

                      7                      8                      9
                      A                      A                      A
 Frequencies --    154.0151               185.7214               250.7079
 Red. masses --      3.2846                 3.6148                 1.4782
 Frc consts  --      0.0459                 0.0735                 0.0547
 IR Inten    --      0.5733                 0.3046                 0.6556

                     10                     11                     12
                      A                      A                      A
 Frequencies --    279.5113               291.8601               314.7220
 Red. masses --      1.7734                 3.7622                 5.5610
 Frc consts  --      0.0816                 0.1888                 0.3245
 IR Inten    --      1.2120                 0.6399                 1.6946

                     13                     14                     15
                      A                      A                      A
 Frequencies --    335.2335               368.3518               409.6090
 Red. masses --      4.3866                 2.3737                 2.3836
 Frc consts  --      0.2904                 0.1898                 0.2356
 IR Inten    --      1.4647                 6.6637                 2.8156

                     16                     17                     18
                      A                      A                      A
 Frequencies --    465.5263               588.0190               596.8878
 Red. masses --      3.4731                 2.7955                 1.9211
 Frc consts  --      0.4435                 0.5695                 0.4033
 IR Inten    --      3.6318                23.4687                27.3200

                     19                     20                     21
                      A                      A                      A
 Frequencies --    613.8908               628.3840               689.3704
 Red. masses --      3.4415                 3.7257                 3.2686
 Frc consts  --      0.7642                 0.8668                 0.9152
 IR Inten    --      7.3657                49.2964                13.2584

                     22                     23                     24
                      A                      A                      A
 Frequencies --    696.8084               735.5220               746.1651
 Red. masses --      3.0188                 1.4446                 2.9294
 Frc consts  --      0.8636                 0.4605                 0.9609
 IR Inten    --     46.5322                50.1717                13.7022

                     25                     26                     27
                      A                      A                      A
 Frequencies --    806.1023               821.3118               853.0767
 Red. masses --      2.4473                 1.2574                 3.5472
 Frc consts  --      0.9370                 0.4997                 1.5209
 IR Inten    --      1.9712                17.5129                 9.9268

                     28                     29                     30
                      A                      A                      A
 Frequencies --    870.8211               886.4211               906.6175
 Red. masses --      1.2953                 2.5998                 4.0922
 Frc consts  --      0.5787                 1.2036                 1.9818
 IR Inten    --      1.8157                 2.8098                13.5059

                     31                     32                     33
                      A                      A                      A
 Frequencies --    917.9801               924.4978               949.7810
 Red. masses --      3.6236                 3.2586                 2.5960
 Frc consts  --      1.7991                 1.6409                 1.3798
 IR Inten    --      9.6033                 1.2238                10.5585

                     34                     35                     36
                      A                      A                      A
 Frequencies --    982.9758               999.5219              1012.4105
 Red. masses --      2.6426                 2.0012                 2.1171
 Frc consts  --      1.5044                 1.1779                 1.2785
 IR Inten    --     10.5865                 4.6555                 0.9405

                     37                     38                     39
                      A                      A                      A
 Frequencies --   1041.3654              1070.9339              1109.2902
 Red. masses --      1.3715                 1.8989                 2.2134
 Frc consts  --      0.8763                 1.2832                 1.6047
 IR Inten    --     20.8876                17.0151                 4.5542

                     40                     41                     42
                      A                      A                      A
 Frequencies --   1117.7547              1130.3080              1159.8805
 Red. masses --      3.0233                 1.7956                 1.3728
 Frc consts  --      2.2255                 1.3516                 1.0881
 IR Inten    --      3.2841                 1.3767                43.1845

                     43                     44                     45
                      A                      A                      A
 Frequencies --   1164.5545              1191.5465              1197.2065
 Red. masses --      1.8150                 1.9509                 1.8961
 Frc consts  --      1.4503                 1.6319                 1.6012
 IR Inten    --      3.7326               143.9747                23.9499

                     46                     47                     48
                      A                      A                      A
 Frequencies --   1203.5922              1227.9030              1241.4710
 Red. masses --      2.0700                 1.5665                 1.7857
 Frc consts  --      1.7668                 1.3916                 1.6216
 IR Inten    --      4.4329                16.7529                50.5540

                     49                     50                     51
                      A                      A                      A
 Frequencies --   1267.7779              1271.0803              1292.7336
 Red. masses --      1.6402                 1.6463                 1.5610
 Frc consts  --      1.5533                 1.5671                 1.5370
 IR Inten    --     10.4187                11.0838                14.9827

                     52                     53                     54
                      A                      A                      A
 Frequencies --   1300.1671              1324.6337              1344.9628
 Red. masses --      1.6727                 1.3542                 1.2822
 Frc consts  --      1.6660                 1.4000                 1.3666
 IR Inten    --     10.5999                 6.4106                 0.9747

                     55                     56                     57
                      A                      A                      A
 Frequencies --   1357.3796              1368.7395              1380.0812
 Red. masses --      1.7103                 2.0584                 1.5224
 Frc consts  --      1.8566                 2.2720                 1.7084
 IR Inten    --      8.0392                28.2084                 4.9709

                     58                     59                     60
                      A                      A                      A
 Frequencies --   1396.4495              1412.1304              1447.2493
 Red. masses --      1.4303                 1.5596                 2.4494
 Frc consts  --      1.6433                 1.8324                 3.0227
 IR Inten    --     12.4275                16.7145                 2.2349

                     61                     62                     63
                      A                      A                      A
 Frequencies --   1481.8050              1517.7372              1526.0654
 Red. masses --      1.1923                 1.0489                 1.0808
 Frc consts  --      1.5425                 1.4235                 1.4830
 IR Inten    --      1.3423                14.6133                 6.0800

                     64                     65                     66
                      A                      A                      A
 Frequencies --   1530.9152              1537.4531              1543.8356
 Red. masses --      1.0685                 1.1703                 3.5318
 Frc consts  --      1.4754                 1.6299                 4.9596
 IR Inten    --      3.8572                 7.0925                15.0041

                     67                     68                     69
                      A                      A                      A
 Frequencies --   1556.6856              1641.1536              1852.0006
 Red. masses --      1.1169                 5.9042                 9.6397
 Frc consts  --      1.5947                 9.3693                19.4802
 IR Inten    --      6.1899                 6.9215               281.5238

                     70                     71                     72
                      A                      A                      A
 Frequencies --   2908.7880              2916.5710              2934.5470
 Red. masses --      1.0744                 1.0721                 1.0638
 Frc consts  --      5.3558                 5.3733                 5.3973
 IR Inten    --     34.4766                59.3223               175.3647

                     73                     74                     75
                      A                      A                      A
 Frequencies --   3076.8302              3078.3052              3088.0205
 Red. masses --      1.0694                 1.0684                 1.0806
 Frc consts  --      5.9647                 5.9650                 6.0714
 IR Inten    --      3.3950                51.1107                53.1436

                     76                     77                     78
                      A                      A                      A
 Frequencies --   3105.7464              3108.2108              3118.8907
 Red. masses --      1.0870                 1.0877                 1.0924
 Frc consts  --      6.1775                 6.1915                 6.2610
 IR Inten    --      5.7474                12.3893                 3.6839

                     79                     80                     81
                      A                      A                      A
 Frequencies --   3121.7947              3128.2320              3267.7749
 Red. masses --      1.1042                 1.0970                 1.0911
 Frc consts  --      6.3402                 6.3246                 6.8644
 IR Inten    --     29.1547                28.8927                 4.9483

                     82                     83                     84
                      A                      A                      A
 Frequencies --   3288.9135              3304.6191              3684.1336
 Red. masses --      1.0970                 1.1048                 1.0640
 Frc consts  --      6.9915                 7.1086                 8.5088
 IR Inten    --      0.4854                 1.2731                55.7807

 - Thermochemistry -
 -------------------
 Temperature   298.150 Kelvin.  Pressure   1.00000 Atm.
 Atom     1 has atomic number  6 and mass  12.00000

 Molecular mass:   209.10519 amu.
 Principal axes and moments of inertia in atomic units:
                           1         2         3
     Eigenvalues --  2301.492893746.606985276.52392
           X            0.99991  -0.01297  -0.00462
           Y            0.01303   0.99983   0.01285
           Z            0.00446  -0.01291   0.99991
 This molecule is an asymmetric top.
 Rotational symmetry number  1.
 Warning -- assumption of classical behavior for rotation
           may cause significant error
 Rotational temperatures (Kelvin)      0.03763     0.02312     0.01641
 Rotational constants (GHZ):           0.78416     0.48170     0.34203
 Zero-point vibrational energy     664024.8 (Joules/Mol)
                                  158.70573 (Kcal/Mol)
 Warning -- explicit consideration of  19 degrees of freedom as
           vibrations may cause significant error
 Vibrational temperatures:     50.27    56.31    75.33    77.21   123.42
          (Kelvin)            187.55   221.59   267.21   360.71   402.15
                              419.92   452.81   482.33   529.98   589.34
                              669.79   846.03   858.79   883.25   904.10
                              991.85  1002.55  1058.25  1073.57  1159.80
                             1181.68  1227.39  1252.92  1275.36  1304.42
                             1320.77  1330.15  1366.52  1414.28  1438.09
                             1456.63  1498.29  1540.83  1596.02  1608.20
                             1626.26  1668.81  1675.53  1714.37  1722.51
                             1731.70  1766.68  1786.20  1824.05  1828.80
                             1859.96  1870.65  1905.85  1935.10  1952.97
                             1969.31  1985.63  2009.18  2031.74  2082.27
                             2131.99  2183.69  2195.67  2202.65  2212.05
                             2221.24  2239.72  2361.25  2664.62  4185.10
                             4196.30  4222.16  4426.87  4428.99  4442.97
                             4468.48  4472.02  4487.39  4491.57  4500.83
                             4701.60  4732.01  4754.61  5300.65

 Zero-point correction=                           0.252914 (Hartree/Particle)
 Thermal correction to Energy=                    0.266909
 Thermal correction to Enthalpy=                  0.267853
 Thermal correction to Gibbs Free Energy=         0.210114
 Sum of electronic and zero-point Energies=           -708.401394
 Sum of electronic and thermal Energies=              -708.387398
 Sum of electronic and thermal Enthalpies=            -708.386454
 Sum of electronic and thermal Free Energies=         -708.444194

                     E (Thermal)             CV                S
                      KCal/Mol        Cal/Mol-Kelvin    Cal/Mol-Kelvin
 Total                  167.488             52.366            121.524
 Electronic               0.000              0.000              0.000
 Translational            0.889              2.981             41.917
 Rotational               0.889              2.981             32.187
 Vibrational            165.711             46.404             47.420
 Vibration     1          0.594              1.983              5.527
 Vibration     2          0.594              1.981              5.302
 Vibration     3          0.596              1.977              4.726
 Vibration     4          0.596              1.976              4.678
 Vibration     5          0.601              1.959              3.754
 Vibration     6          0.612              1.923              2.941
 Vibration     7          0.620              1.898              2.622
 Vibration     8          0.632              1.859              2.270
 Vibration     9          0.663              1.762              1.726
 Vibration    10          0.680              1.711              1.537
 Vibration    11          0.687              1.689              1.463
 Vibration    12          0.702              1.646              1.337
 Vibration    13          0.716              1.605              1.235
 Vibration    14          0.741              1.537              1.087
 Vibration    15          0.774              1.449              0.928
 Vibration    16          0.823              1.327              0.750
 Vibration    17          0.945              1.057              0.471
 Vibration    18          0.955              1.038              0.455
 Vibration    19          0.973              1.002              0.426

 Optimization completed.
    -- Stationary point found.
 Normal termination of Gaussian 16 at Thu Dec 10 16:08:39 2020.

 ----------------------------------------------------------------------
 # B3LYP/6-311++G(d,p) empiricaldispersion=gd3bj scf=xqc pop=npa geom=c
 heck
 ----------------------------------------------------------------------

 --------------------------------------
 CID_83820601_JID_5389_Energie_neutraal
 --------------------------------------
 Structure from the checkpoint file:  "JID_5389.chk"
 Charge =  0 Multiplicity = 1

 SCF Done:  E(RB3LYP) =  -708.861255286     A.U. after   15 cycles
 Normal termination of Gaussian 16 at Thu Dec 10 16:12:26 2020.

 ----------------------------------------------------------------------
 # B3LYP/6-311++G(d,p) empiricaldispersion=gd3bj scf=xqc pop=npa geom=c
 heck
 ----------------------------------------------------------------------

 ------------------------------------
 CID_83820601_JID_5389_Energie_kation
 ------------------------------------
 Structure from the checkpoint file:  "JID_5389.chk"
 Charge =  1 Multiplicity = 2

 SCF Done:  E(UB3LYP) =  -708.571869061     A.U. after   22 cycles
 Normal termination of Gaussian 16 at Thu Dec 10 16:22:30 2020.
 Gaussian 16:  ES64L-G16RevA.03 25-Dec-2016

 ----------------------------------------------------------------------
 # B3LYP/6-311++G(d,p) empiricaldispersion=gd3bj scf=xqc pop=npa geom=c
 heck
 ----------------------------------------------------------------------

 -----------------------------------
 CID_83820601_JID_5389_Energie_anion
 -----------------------------------
 Structure from the checkpoint file:  "JID_5389.chk"
 Charge = -1 Multiplicity = 2

                         Standard orientation:
 ---------------------------------------------------------------------
 Center     Atomic      Atomic             Coordinates (Angstroms)
 Number     Number       Type             X           Y           Z
 ---------------------------------------------------------------------
      1          6           0        3.389687   -1.970567   -0.386460
      2          7           0        2.496567   -0.835816   -0.281190
      3          6           0        3.148311    0.407164    0.120888
      4          6           0        1.971649    1.345896    0.451181
      5          6           0        0.773871    0.389991    0.738895
      6          6           0        1.416978   -1.006314    0.684145
      7          6           0       -0.339882    0.526742   -0.335269
      8          6           0       -1.503794   -0.381937   -0.080596
      9          6           0       -2.542428   -0.379078    0.805202
     10          6           0       -3.291026   -1.579471    0.565103
     11          6           0       -2.654173   -2.227672   -0.447316
     12          8           0       -1.563118   -1.513308   -0.854401
     13          6           0       -0.811646    1.966183   -0.454031
     14          8           0       -0.802725    2.633704   -1.462276
     15          8           0       -1.243785    2.458230    0.737796
     16          1           0        4.157978   -1.768932   -1.140731
     17          1           0        3.899644   -2.206264    0.569280
     18          1           0        2.827911   -2.856429   -0.701198
     19          1           0        3.783227    0.257107    1.017824
     20          1           0        3.792817    0.782674   -0.681215
     21          1           0        1.751136    2.001062   -0.397312
     22          1           0        2.193968    1.987355    1.308034
     23          1           0        0.327747    0.582509    1.717169
     24          1           0        0.728078   -1.792935    0.362141
     25          1           0        1.801659   -1.282453    1.687287
     26          1           0        0.088506    0.265670   -1.306225
     27          1           0       -2.748434    0.391533    1.532839
     28          1           0       -4.184470   -1.906516    1.078126
     29          1           0       -2.831305   -3.151224   -0.976134
     30          1           0       -1.532703    3.372921    0.559027
 ---------------------------------------------------------------------

 SCF Done:  E(UB3LYP) =  -708.847579797     A.U. after   33 cycles
 SCF Done:  E(UB3LYP) =  -708.847579797     a.u. after    1 cycles

 The electronic state is 2-A.
 Alpha  occ. eigenvalues --  -19.09968 -19.07567 -19.02560 -14.21275 -10.21605
 Alpha  occ. eigenvalues --  -10.13905 -10.13085 -10.10758 -10.09907 -10.09713
 Alpha  occ. eigenvalues --  -10.09595 -10.09146 -10.08309 -10.07822 -10.07584
 Alpha  occ. eigenvalues --   -1.02293  -1.01748  -0.92955  -0.84697  -0.73818
 Alpha  occ. eigenvalues --   -0.71012  -0.67928  -0.63694  -0.62149  -0.57833
 Alpha  occ. eigenvalues --   -0.53174  -0.50904  -0.48964  -0.48373  -0.46559
 Alpha  occ. eigenvalues --   -0.44333  -0.41115  -0.40838  -0.39418  -0.37587
 Alpha  occ. eigenvalues --   -0.37051  -0.36079  -0.35288  -0.34776  -0.32908
 Alpha  occ. eigenvalues --   -0.31883  -0.31588  -0.30747  -0.30264  -0.28973
 Alpha  occ. eigenvalues --   -0.28093  -0.27025  -0.26837  -0.25234  -0.24720
 Alpha  occ. eigenvalues --   -0.23854  -0.23388  -0.19589  -0.19130  -0.13681
 Alpha  occ. eigenvalues --   -0.13084   0.04214
 Alpha virt. eigenvalues --    0.05990   0.06112   0.07261   0.07708   0.08078
 Alpha virt. eigenvalues --    0.08191   0.09644   0.09840   0.10262   0.10517
 Alpha virt. eigenvalues --    0.10925   0.11589   0.11933   0.13149   0.13625

  Beta  occ. eigenvalues --  -19.09966 -19.07515 -19.02546 -14.21264 -10.21596
  Beta  occ. eigenvalues --  -10.13905 -10.13072 -10.10753 -10.09890 -10.09698
  Beta  occ. eigenvalues --  -10.09570 -10.09138 -10.08298 -10.07810 -10.07571
  Beta  occ. eigenvalues --   -1.02283  -1.01685  -0.92897  -0.84678  -0.73797
  Beta  occ. eigenvalues --   -0.70993  -0.67905  -0.63667  -0.62111  -0.57783
  Beta  occ. eigenvalues --   -0.53101  -0.50864  -0.48904  -0.48341  -0.46526
  Beta  occ. eigenvalues --   -0.44289  -0.41090  -0.40788  -0.39381  -0.37551
  Beta  occ. eigenvalues --   -0.37022  -0.36061  -0.35257  -0.34746  -0.32878
  Beta  occ. eigenvalues --   -0.31851  -0.31558  -0.30718  -0.30233  -0.28953
  Beta  occ. eigenvalues --   -0.28070  -0.26999  -0.26804  -0.25211  -0.24693
  Beta  occ. eigenvalues --   -0.23830  -0.23343  -0.19562  -0.19103  -0.13669
  Beta  occ. eigenvalues --   -0.13021
  Beta virt. eigenvalues --    0.06243   0.06876   0.07361   0.07405   0.08358
  Beta virt. eigenvalues --    0.08566   0.08665   0.09955   0.10035   0.10699
  Beta virt. eigenvalues --    0.10831   0.11289   0.11645   0.12247   0.13205

 Mulliken charges and spin densities:
               1          2
     1  C    0.477059  -0.746804
     2  N    0.027780   0.126641
     3  C   -0.013905  -0.323844
     4  C    0.147250  -0.586653
     5  C   -0.286098   0.560404
     6  C   -0.342306  -0.539467
     7  C    0.636591  -0.653709
     8  C    1.512860  -1.922406
     9  C   -1.927171   2.327585
    10  C    2.088120  -2.642084
    11  C   -0.854561   0.919106
    12  O   -0.001338   0.031822
    13  C   -0.210263  -0.296985
    14  O   -0.233341   0.017150
    15  O   -0.174772   0.058416
    16  H   -0.146980   0.280742
    17  H   -0.105960   0.213459
    18  H   -0.179503   0.317454
    19  H    0.083752   0.032268
    20  H   -0.167663   0.331290
    21  H    0.318231  -0.135506
    22  H   -0.369226   0.526761
    23  H    0.008094   0.268855
    24  H    0.446302  -0.236984
    25  H   -0.231408   0.350755
    26  H    0.204971   0.126638
    27  H   -0.397862   0.629508
    28  H   -0.348346   0.514350
    29  H   -0.643826   0.830473
    30  H   -0.316480   0.620765
 Sum of Mulliken charges =  -1.00000   1.00000

 Dipole moment (field-independent basis, Debye):
    X=              1.4486    Y=             -1.2567    Z=             -1.0482  Tot=              2.1855
 Quadrupole moment (field-independent basis, Debye-Ang):
   XX=           -153.8962   YY=           -149.1327   ZZ=           -127.0644
   XY=              3.0826   XZ=              1.2189   YZ=             -3.5692

 Summary of Natural Population Analysis:

                                       Natural Population
                Natural  -----------------------------------------------
    Atom  No    Charge         Core      Valence    Rydberg      Total
 -----------------------------------------------------------------------
      C    1   -0.17314      0.99965     2.16647    0.00702     3.17314
      N    2   -0.27962      0.99971     2.76819    0.01172     3.77962
      C    3   -0.08251      0.99963     2.07184    0.01105     3.08251
      C    4   -0.19589      0.99962     2.18771    0.00856     3.19589
      C    5   -0.10383      0.99958     2.09209    0.01216     3.10383
      C    6   -0.08484      0.99960     2.07357    0.01167     3.08484
      C    7   -0.17682      0.99948     2.16288    0.01446     3.17682
      C    8    0.15397      0.99944     1.82986    0.01673     2.84603
      C    9   -0.14475      0.99948     2.13647    0.00881     3.14475
      C   10   -0.14738      0.99957     2.13898    0.00884     3.14738
      C   11    0.05640      0.99951     1.92956    0.01453     2.94360
      O   12   -0.23537      0.99986     3.22766    0.00786     4.23537
      C   13    0.41961      0.99969     1.55418    0.02652     2.58039
      O   14   -0.30106      0.99987     3.29512    0.00607     4.30106
      O   15   -0.34726      0.99988     3.33956    0.00782     4.34726
      H   16    0.09476      0.00000     0.40397    0.00127     0.40524
      H   17    0.07920      0.00000     0.41880    0.00200     0.42080
      H   18    0.09634      0.00000     0.40242    0.00124     0.40366
      H   19    0.07878      0.00000     0.41950    0.00172     0.42122
      H   20    0.09608      0.00000     0.40283    0.00108     0.40392
      H   21    0.10193      0.00000     0.39678    0.00128     0.39807
      H   22    0.10507      0.00000     0.39391    0.00102     0.39493
      H   23    0.10881      0.00000     0.38937    0.00181     0.39119
      H   24    0.10311      0.00000     0.39513    0.00176     0.39689
      H   25    0.08312      0.00000     0.41539    0.00149     0.41688
      H   26    0.12579      0.00000     0.37166    0.00254     0.37421
      H   27    0.11790      0.00000     0.38065    0.00145     0.38210
      H   28    0.10953      0.00000     0.38935    0.00111     0.39047
      H   29    0.09679      0.00000     0.40183    0.00137     0.40321
      H   30    0.24526      0.00000     0.24019    0.01454     0.25474
 =======================================================================
   * Total *   -0.00000     14.99456    40.79592    0.20952    56.00000

 Normal termination of Gaussian 16 at Thu Dec 10 16:40:12 2020.
