 Gaussian 16, Revision A.03,

 -----------------------------------------------------------
 # opt freq B3LYP/6-31G(d) empiricaldispersion=gd3bj scf=xqc
 -----------------------------------------------------------

 ------------------------------
 CID_82239026_JID_6398_neutraal
 ------------------------------
 Symbolic Z-matrix:
 Charge =  0 Multiplicity = 1

 SCF Done:  E(RB3LYP) =  -726.914447795     A.U. after   15 cycles
 SCF Done:  E(RB3LYP) =  -726.917885475     A.U. after   12 cycles
 SCF Done:  E(RB3LYP) =  -726.918272171     A.U. after   12 cycles
 SCF Done:  E(RB3LYP) =  -726.918300520     A.U. after   12 cycles
 SCF Done:  E(RB3LYP) =  -726.918472481     A.U. after   11 cycles
 SCF Done:  E(RB3LYP) =  -726.918522975     A.U. after   10 cycles
 SCF Done:  E(RB3LYP) =  -726.918545938     A.U. after   10 cycles
 SCF Done:  E(RB3LYP) =  -726.918555541     A.U. after    9 cycles
 SCF Done:  E(RB3LYP) =  -726.918566862     A.U. after   10 cycles
 SCF Done:  E(RB3LYP) =  -726.918567916     A.U. after    9 cycles
 SCF Done:  E(RB3LYP) =  -726.918568561     A.U. after    8 cycles
 SCF Done:  E(RB3LYP) =  -726.918568723     A.U. after    7 cycles
 SCF Done:  E(RB3LYP) =  -726.918568795     A.U. after    7 cycles
 Optimization completed.
    -- Stationary point found.
 Normal termination of Gaussian 16 at Thu Dec 10 22:34:12 2020.

 --------------------------------------------------------------------
 #N Geom=AllCheck Guess=TCheck SCRF=Check GenChk RB3LYP/6-31G(d) Freq
 --------------------------------------------------------------------

 Structure from the checkpoint file:  "JID_6398.chk"
 ------------------------------
 CID_82239026_JID_6398_neutraal
 ------------------------------
 Charge =  0 Multiplicity = 1

 SCF Done:  E(RB3LYP) =  -726.918568795     A.U. after    1 cycles

  Exact polarizability: 177.728  10.598 147.124  12.347  -6.908  97.102
 Approx polarizability: 239.841  25.977 243.689  34.184 -15.382 150.510

                      1                      2                      3
                      A                      A                      A
 Frequencies --     26.8285                42.4530                59.1172
 Red. masses --      3.5901                 3.7533                 2.8046
 Frc consts  --      0.0015                 0.0040                 0.0058
 IR Inten    --      0.9780                 0.4990                 0.3634

                      4                      5                      6
                      A                      A                      A
 Frequencies --     87.1964               102.7997               121.6545
 Red. masses --      2.1269                 3.2138                 4.9199
 Frc consts  --      0.0095                 0.0200                 0.0429
 IR Inten    --      1.0871                 0.4431                 1.6414

                      7                      8                      9
                      A                      A                      A
 Frequencies --    148.1198               175.4798               199.0624
 Red. masses --      1.8919                 3.7261                 1.8133
 Frc consts  --      0.0245                 0.0676                 0.0423
 IR Inten    --      3.2791                 2.4695                 1.5947

                     10                     11                     12
                      A                      A                      A
 Frequencies --    225.6408               243.8778               268.7315
 Red. masses --      2.4766                 3.0531                 1.4286
 Frc consts  --      0.0743                 0.1070                 0.0608
 IR Inten    --      8.3973                 1.7811                 9.1202

                     13                     14                     15
                      A                      A                      A
 Frequencies --    282.4686               301.1553               318.0810
 Red. masses --      3.6024                 3.3438                 4.9654
 Frc consts  --      0.1693                 0.1787                 0.2960
 IR Inten    --      0.4430                 2.8867                 1.6267

                     16                     17                     18
                      A                      A                      A
 Frequencies --    387.9866               432.7800               440.8251
 Red. masses --      3.2864                 1.9838                 3.0483
 Frc consts  --      0.2915                 0.2189                 0.3490
 IR Inten    --      5.0075                34.4791                 7.7053

                     19                     20                     21
                      A                      A                      A
 Frequencies --    485.1622               505.8667               551.7211
 Red. masses --      3.8373                 4.0422                 2.1664
 Frc consts  --      0.5322                 0.6094                 0.3885
 IR Inten    --     26.3005                 5.0757                51.9122

                     22                     23                     24
                      A                      A                      A
 Frequencies --    571.9168               586.4762               635.0065
 Red. masses --      4.2183                 5.4340                 4.3679
 Frc consts  --      0.8129                 1.1012                 1.0377
 IR Inten    --     10.6577                 7.3959                 7.4072

                     25                     26                     27
                      A                      A                      A
 Frequencies --    680.1276               725.2305               758.2662
 Red. masses --      5.3673                 5.3969                 4.1071
 Frc consts  --      1.4628                 1.6724                 1.3913
 IR Inten    --      9.2694                13.5242                15.6424

                     28                     29                     30
                      A                      A                      A
 Frequencies --    773.9859               791.6331               826.1992
 Red. masses --      1.7644                 1.3965                 1.3836
 Frc consts  --      0.6228                 0.5156                 0.5565
 IR Inten    --     71.5828                21.3776                 7.1327

                     31                     32                     33
                      A                      A                      A
 Frequencies --    846.8354               886.8161               906.4010
 Red. masses --      2.4457                 4.0507                 2.3711
 Frc consts  --      1.0334                 1.8769                 1.1477
 IR Inten    --     11.0219                10.3636                 4.7805

                     34                     35                     36
                      A                      A                      A
 Frequencies --    911.6979               934.7830               952.0621
 Red. masses --      3.5577                 1.4468                 2.8527
 Frc consts  --      1.7423                 0.7449                 1.5235
 IR Inten    --      6.6915                 1.2154                27.9013

                     37                     38                     39
                      A                      A                      A
 Frequencies --    973.3508               977.6872              1035.6290
 Red. masses --      1.2763                 2.3196                 2.0706
 Frc consts  --      0.7125                 1.3063                 1.3084
 IR Inten    --      2.6931                 4.7676                 3.1051

                     40                     41                     42
                      A                      A                      A
 Frequencies --   1061.0086              1094.4247              1135.9786
 Red. masses --      2.5716                 1.8390                 1.9389
 Frc consts  --      1.7057                 1.2978                 1.4742
 IR Inten    --      4.2289                 9.8603                 1.3690

                     43                     44                     45
                      A                      A                      A
 Frequencies --   1150.9890              1173.9663              1179.0284
 Red. masses --      3.7868                 3.1334                 1.6164
 Frc consts  --      2.9557                 2.5444                 1.3239
 IR Inten    --    153.9860                54.5158                42.5260

                     46                     47                     48
                      A                      A                      A
 Frequencies --   1192.0005              1197.4018              1204.1302
 Red. masses --      1.2696                 1.5147                 1.7032
 Frc consts  --      1.0629                 1.2796                 1.4550
 IR Inten    --      4.3914                56.8260                40.2371

                     49                     50                     51
                      A                      A                      A
 Frequencies --   1225.3001              1230.4943              1268.3529
 Red. masses --      1.7379                 1.6533                 2.3736
 Frc consts  --      1.5373                 1.4749                 2.2498
 IR Inten    --     28.5153                32.3327                 3.2847

                     52                     53                     54
                      A                      A                      A
 Frequencies --   1284.2064              1309.6641              1313.6430
 Red. masses --      2.7290                 1.8291                 1.5802
 Frc consts  --      2.6517                 1.8485                 1.6066
 IR Inten    --     19.2628                22.7322                 3.4845

                     55                     56                     57
                      A                      A                      A
 Frequencies --   1331.0735              1349.4405              1372.1195
 Red. masses --      1.3104                 2.1279                 1.5732
 Frc consts  --      1.3679                 2.2830                 1.7450
 IR Inten    --      4.7291                40.9370                 6.3164

                     58                     59                     60
                      A                      A                      A
 Frequencies --   1409.9532              1421.7620              1426.2037
 Red. masses --      1.2902                 1.4019                 2.4687
 Frc consts  --      1.5111                 1.6696                 2.9586
 IR Inten    --      8.0672                33.6748                10.1494

                     61                     62                     63
                      A                      A                      A
 Frequencies --   1443.8381              1492.1959              1501.3480
 Red. masses --      1.3180                 2.0324                 1.4661
 Frc consts  --      1.6189                 2.6663                 1.9470
 IR Inten    --      7.3671                60.2203                31.3680

                     64                     65                     66
                      A                      A                      A
 Frequencies --   1509.2473              1515.0559              1519.0539
 Red. masses --      1.1907                 1.0585                 1.1455
 Frc consts  --      1.5979                 1.4316                 1.5574
 IR Inten    --      7.8941                 5.1337                 0.5162

                     67                     68                     69
                      A                      A                      A
 Frequencies --   1526.6643              1530.6644              1537.2275
 Red. masses --      1.2339                 1.1336                 1.7292
 Frc consts  --      1.6944                 1.5649                 2.4076
 IR Inten    --      5.5514                 1.8377                17.2425

                     70                     71                     72
                      A                      A                      A
 Frequencies --   1540.0731              1552.9203              1668.1439
 Red. masses --      1.0663                 1.0898                 6.5241
 Frc consts  --      1.4901                 1.5485                10.6964
 IR Inten    --      5.0864                 1.1131                 5.8958

                     73                     74                     75
                      A                      A                      A
 Frequencies --   1677.5729              1841.6693              2970.0475
 Red. masses --      7.1984                11.1367                 1.0707
 Frc consts  --     11.9358                22.2551                 5.5645
 IR Inten    --     57.2684               468.6657                51.0458

                     76                     77                     78
                      A                      A                      A
 Frequencies --   2979.2194              3004.4427              3033.2491
 Red. masses --      1.0725                 1.0425                 1.0825
 Frc consts  --      5.6087                 5.5443                 5.8680
 IR Inten    --     43.9336                59.5133                15.4463

                     79                     80                     81
                      A                      A                      A
 Frequencies --   3048.6108              3066.0510              3072.2683
 Red. masses --      1.0379                 1.0977                 1.0904
 Frc consts  --      5.6832                 6.0798                 6.0642
 IR Inten    --     27.2648                44.4555                24.2082

                     82                     83                     84
                      A                      A                      A
 Frequencies --   3082.7123              3115.1594              3132.7031
 Red. masses --      1.0884                 1.0996                 1.1033
 Frc consts  --      6.0943                 6.2872                 6.3795
 IR Inten    --     11.6951                39.6831                27.4327

                     85                     86                     87
                      A                      A                      A
 Frequencies --   3146.2675              3194.4427              3208.2856
 Red. masses --      1.0990                 1.0863                 1.0907
 Frc consts  --      6.4095                 6.5309                 6.6144
 IR Inten    --     34.6707                 3.1285                 6.0896

                     88                     89                     90
                      A                      A                      A
 Frequencies --   3216.8219              3481.6628              3634.0143
 Red. masses --      1.0960                 1.0735                 1.0783
 Frc consts  --      6.6823                 7.6671                 8.3901
 IR Inten    --     17.1797                 0.4031                25.8892

 - Thermochemistry -
 -------------------
 Temperature   298.150 Kelvin.  Pressure   1.00000 Atm.
 Atom     1 has atomic number  6 and mass  12.00000

 Molecular mass:   220.12118 amu.
 Principal axes and moments of inertia in atomic units:
                           1         2         3
     Eigenvalues --  1831.271115749.438276741.96667
           X            0.99972  -0.01900  -0.01404
           Y            0.01896   0.99982  -0.00275
           Z            0.01409   0.00248   0.99990
 This molecule is an asymmetric top.
 Rotational symmetry number  1.
 Warning -- assumption of classical behavior for rotation
           may cause significant error
 Rotational temperatures (Kelvin)      0.04730     0.01506     0.01285
 Rotational constants (GHZ):           0.98551     0.31390     0.26769
 Zero-point vibrational energy     710306.0 (Joules/Mol)
                                  169.76720 (Kcal/Mol)
 Warning -- explicit consideration of  23 degrees of freedom as
           vibrations may cause significant error
 Vibrational temperatures:     38.60    61.08    85.06   125.46   147.91
          (Kelvin)            175.03   213.11   252.48   286.41   324.65
                              350.89   386.64   406.41   433.30   457.65
                              558.23   622.67   634.25   698.04   727.83
                              793.80   822.86   843.81   913.63   978.55
                             1043.44  1090.98  1113.59  1138.98  1188.72
                             1218.41  1275.93  1304.11  1311.73  1344.94
                             1369.81  1400.43  1406.67  1490.04  1526.55
                             1574.63  1634.42  1656.02  1689.08  1696.36
                             1715.02  1722.79  1732.47  1762.93  1770.41
                             1824.88  1847.69  1884.31  1890.04  1915.12
                             1941.54  1974.17  2028.61  2045.60  2051.99
                             2077.36  2146.94  2160.10  2171.47  2179.83
                             2185.58  2196.53  2202.28  2211.73  2215.82
                             2234.31  2400.09  2413.65  2649.75  4273.24
                             4286.43  4322.72  4364.17  4386.27  4411.36
                             4420.31  4435.34  4482.02  4507.26  4526.78
                             4596.09  4616.01  4628.29  5009.34  5228.54

 Zero-point correction=                           0.270541 (Hartree/Particle)
 Thermal correction to Energy=                    0.286004
 Thermal correction to Enthalpy=                  0.286948
 Thermal correction to Gibbs Free Energy=         0.226726
 Sum of electronic and zero-point Energies=           -726.648028
 Sum of electronic and thermal Energies=              -726.632565
 Sum of electronic and thermal Enthalpies=            -726.631620
 Sum of electronic and thermal Free Energies=         -726.691843

                     E (Thermal)             CV                S
                      KCal/Mol        Cal/Mol-Kelvin    Cal/Mol-Kelvin
 Total                  179.470             57.858            126.749
 Electronic               0.000              0.000              0.000
 Translational            0.889              2.981             42.070
 Rotational               0.889              2.981             32.629
 Vibrational            177.693             51.896             52.050
 Vibration     1          0.593              1.984              6.051
 Vibration     2          0.595              1.980              5.141
 Vibration     3          0.596              1.974              4.486
 Vibration     4          0.601              1.958              3.722
 Vibration     5          0.605              1.947              3.401
 Vibration     6          0.609              1.931              3.074
 Vibration     7          0.617              1.905              2.696
 Vibration     8          0.627              1.873              2.376
 Vibration     9          0.637              1.841              2.142
 Vibration    10          0.650              1.802              1.913
 Vibration    11          0.659              1.773              1.774
 Vibration    12          0.673              1.731              1.604
 Vibration    13          0.682              1.706              1.519
 Vibration    14          0.693              1.672              1.410
 Vibration    15          0.704              1.639              1.320
 Vibration    16          0.756              1.496              1.008
 Vibration    17          0.794              1.399              0.850
 Vibration    18          0.801              1.381              0.824
 Vibration    19          0.841              1.283              0.696
 Vibration    20          0.861              1.237              0.644
 Vibration    21          0.907              1.136              0.541
 Vibration    22          0.928              1.092              0.501
 Vibration    23          0.944              1.061              0.474

 Optimization completed.
    -- Stationary point found.
 Normal termination of Gaussian 16 at Thu Dec 10 22:45:46 2020.

 ----------------------------------------------------------------------
 # B3LYP/6-311++G(d,p) empiricaldispersion=gd3bj scf=xqc pop=npa geom=c
 heck
 ----------------------------------------------------------------------

 --------------------------------------
 CID_82239026_JID_6398_Energie_neutraal
 --------------------------------------
 Structure from the checkpoint file:  "JID_6398.chk"
 Charge =  0 Multiplicity = 1

 SCF Done:  E(RB3LYP) =  -727.125454939     A.U. after   15 cycles
 Normal termination of Gaussian 16 at Thu Dec 10 22:51:13 2020.

 ----------------------------------------------------------------------
 # B3LYP/6-311++G(d,p) empiricaldispersion=gd3bj scf=xqc pop=npa geom=c
 heck
 ----------------------------------------------------------------------

 ------------------------------------
 CID_82239026_JID_6398_Energie_kation
 ------------------------------------
 Structure from the checkpoint file:  "JID_6398.chk"
 Charge =  1 Multiplicity = 2

 SCF Done:  E(UB3LYP) =  -726.828696586     A.U. after   28 cycles
 Normal termination of Gaussian 16 at Thu Dec 10 23:05:33 2020.
 Gaussian 16:  ES64L-G16RevA.03 25-Dec-2016

 ----------------------------------------------------------------------
 # B3LYP/6-311++G(d,p) empiricaldispersion=gd3bj scf=xqc pop=npa geom=c
 heck
 ----------------------------------------------------------------------

 -----------------------------------
 CID_82239026_JID_6398_Energie_anion
 -----------------------------------
 Structure from the checkpoint file:  "JID_6398.chk"
 Charge = -1 Multiplicity = 2

                         Standard orientation:
 ---------------------------------------------------------------------
 Center     Atomic      Atomic             Coordinates (Angstroms)
 Number     Number       Type             X           Y           Z
 ---------------------------------------------------------------------
      1          6           0       -4.490311    0.940079    1.168819
      2          6           0       -3.115465    0.369659    0.839718
      3          7           0       -2.957741    0.236678   -0.613912
      4          6           0       -1.668461   -0.294815   -1.028550
      5          6           0       -0.473179    0.551249   -0.659807
      6          6           0       -0.230256    1.900308   -0.848932
      7          6           0        0.995816    2.429765   -0.420813
      8          6           0        1.946839    1.607218    0.180068
      9          6           0        1.720010    0.235788    0.381923
     10          6           0        0.491448   -0.262667   -0.043362
     11          7           0       -0.005831   -1.576911    0.053553
     12          6           0       -1.301503   -1.680137   -0.421982
     13          8           0       -2.015750   -2.661715   -0.358686
     14          6           0        2.763478   -0.630132    1.059288
     15          8           0        4.092409   -0.235073    0.779629
     16          6           0        4.480622   -0.506458   -0.556021
     17          1           0       -4.633725    1.905572    0.673306
     18          1           0       -4.604488    1.078546    2.249234
     19          1           0       -5.287579    0.264661    0.834265
     20          1           0       -2.334021    1.050895    1.194241
     21          1           0       -2.972585   -0.588890    1.367807
     22          1           0       -3.677411   -0.396759   -0.961634
     23          1           0       -1.709647   -0.434857   -2.118228
     24          1           0       -0.985451    2.528664   -1.311420
     25          1           0        1.207425    3.485870   -0.557799
     26          1           0        2.901255    2.015180    0.498492
     27          1           0        0.430547   -2.329873    0.566708
     28          1           0        2.667183   -0.564069    2.149641
     29          1           0        2.618410   -1.688832    0.781135
     30          1           0        4.408982   -1.582730   -0.779126
     31          1           0        3.866750    0.043728   -1.281863
     32          1           0        5.521869   -0.190313   -0.651881
 ---------------------------------------------------------------------

 SCF Done:  E(UB3LYP) =  -727.116534988     A.U. after   33 cycles
 SCF Done:  E(UB3LYP) =  -727.116534988     a.u. after    1 cycles

 The electronic state is 2-A.
 Alpha  occ. eigenvalues --  -19.02793 -18.98723 -14.24224 -14.19651 -10.15690
 Alpha  occ. eigenvalues --  -10.12009 -10.11059 -10.10287 -10.09766 -10.08986
 Alpha  occ. eigenvalues --  -10.06988 -10.06713 -10.05745 -10.05691 -10.05298
 Alpha  occ. eigenvalues --  -10.05242  -0.93998  -0.93629  -0.84870  -0.80442
 Alpha  occ. eigenvalues --   -0.73525  -0.67814  -0.65333  -0.62961  -0.61007
 Alpha  occ. eigenvalues --   -0.58353  -0.54557  -0.51945  -0.49887  -0.47673
 Alpha  occ. eigenvalues --   -0.46245  -0.42421  -0.39518  -0.38393  -0.38211
 Alpha  occ. eigenvalues --   -0.37305  -0.36631  -0.35908  -0.34739  -0.34469
 Alpha  occ. eigenvalues --   -0.32994  -0.31157  -0.30841  -0.30154  -0.28986
 Alpha  occ. eigenvalues --   -0.28823  -0.27117  -0.26419  -0.25703  -0.25096
 Alpha  occ. eigenvalues --   -0.24618  -0.24106  -0.21565  -0.20250  -0.16765
 Alpha  occ. eigenvalues --   -0.16668  -0.13847  -0.12204  -0.10946   0.04714
 Alpha virt. eigenvalues --    0.06793   0.07146   0.07935   0.08246   0.08752
 Alpha virt. eigenvalues --    0.09549   0.09963   0.10088   0.10464   0.11289
 Alpha virt. eigenvalues --    0.11345   0.11849   0.12186   0.13010   0.13211

  Beta  occ. eigenvalues --  -19.02787 -18.98656 -14.24228 -14.19599 -10.15584
  Beta  occ. eigenvalues --  -10.11986 -10.11034 -10.10287 -10.09783 -10.08977
  Beta  occ. eigenvalues --  -10.06983 -10.06703 -10.05738 -10.05659 -10.05132
  Beta  occ. eigenvalues --  -10.05088  -0.93988  -0.93487  -0.84783  -0.80359
  Beta  occ. eigenvalues --   -0.73374  -0.67650  -0.65267  -0.62802  -0.60932
  Beta  occ. eigenvalues --   -0.58145  -0.54459  -0.51871  -0.49825  -0.47576
  Beta  occ. eigenvalues --   -0.46023  -0.42342  -0.39406  -0.38283  -0.38154
  Beta  occ. eigenvalues --   -0.37170  -0.36487  -0.35824  -0.34690  -0.34373
  Beta  occ. eigenvalues --   -0.32928  -0.30993  -0.30761  -0.30055  -0.28887
  Beta  occ. eigenvalues --   -0.28736  -0.27056  -0.26204  -0.25613  -0.24983
  Beta  occ. eigenvalues --   -0.24444  -0.24002  -0.21497  -0.19915  -0.16717
  Beta  occ. eigenvalues --   -0.16632  -0.13189  -0.12098  -0.10563
  Beta virt. eigenvalues --    0.06875   0.07205   0.08078   0.08246   0.08588
  Beta virt. eigenvalues --    0.09097   0.09846   0.10096   0.10330   0.10671
  Beta virt. eigenvalues --    0.11467   0.11596   0.12006   0.12362   0.13068

 Mulliken charges and spin densities:
               1          2
     1  C   -0.145156  -0.406121
     2  C   -0.382519   0.042545
     3  N    0.021805  -0.033253
     4  C    1.331537  -1.389420
     5  C   -0.124014   0.456368
     6  C   -0.304517   0.033751
     7  C   -0.567950   0.051566
     8  C    0.113096  -0.159025
     9  C   -0.718119   1.021038
    10  C   -0.603569   0.495179
    11  N   -0.139476  -0.024016
    12  C   -0.184755   0.200037
    13  O   -0.360895   0.035224
    14  C    1.189857  -1.674038
    15  O   -0.149838   0.038966
    16  C    0.355449  -0.717713
    17  H    0.120615   0.026775
    18  H    0.070921   0.049306
    19  H    0.055537   0.067715
    20  H    0.172716  -0.014750
    21  H    0.123639   0.029880
    22  H    0.153977   0.073371
    23  H   -0.672440   0.959833
    24  H   -0.005114   0.153809
    25  H    0.026604   0.117078
    26  H    0.079547   0.070217
    27  H    0.069082   0.238337
    28  H   -0.263960   0.466513
    29  H    0.074969   0.039448
    30  H   -0.314563   0.440438
    31  H    0.023566   0.121969
    32  H   -0.046032   0.188974
 Sum of Mulliken charges =  -1.00000   1.00000

 Dipole moment (field-independent basis, Debye):
    X=             -1.3943    Y=              2.5712    Z=              2.5183  Tot=              3.8597
 Quadrupole moment (field-independent basis, Debye-Ang):
   XX=           -158.1378   YY=           -130.7699   ZZ=           -126.3606
   XY=             -2.2402   XZ=            -11.2168   YZ=             -2.5005

 Summary of Natural Population Analysis:

                                       Natural Population
                Natural  -----------------------------------------------
    Atom  No    Charge         Core      Valence    Rydberg      Total
 -----------------------------------------------------------------------
      C    1   -0.28618      0.99967     2.28204    0.00447     3.28618
      C    2   -0.09314      0.99964     2.08447    0.00903     3.09314
      N    3   -0.32971      0.99974     2.81700    0.01298     3.82971
      C    4   -0.05270      0.99952     2.03830    0.01488     3.05270
      C    5   -0.00710      0.99947     1.99702    0.01060     3.00710
      C    6   -0.08453      0.99951     2.07535    0.00967     3.08453
      C    7   -0.11737      0.99957     2.10826    0.00954     3.11737
      C    8   -0.06948      0.99953     2.06155    0.00840     3.06948
      C    9   -0.05758      0.99946     2.04799    0.01013     3.05758
      C   10    0.08762      0.99939     1.90123    0.01176     2.91238
      N   11   -0.31093      0.99963     2.80229    0.00901     3.81093
      C   12    0.35801      0.99968     1.61709    0.02523     2.64199
      O   13   -0.31326      0.99987     3.30714    0.00625     4.31326
      C   14   -0.01077      0.99955     1.99715    0.01407     3.01077
      O   15   -0.29714      0.99989     3.28728    0.00998     4.29714
      C   16   -0.09882      0.99961     2.09100    0.00821     3.09882
      H   17    0.09897      0.00000     0.39991    0.00112     0.40103
      H   18    0.09564      0.00000     0.40350    0.00086     0.40436
      H   19    0.09316      0.00000     0.40572    0.00112     0.40684
      H   20    0.09596      0.00000     0.40243    0.00161     0.40404
      H   21    0.08203      0.00000     0.41635    0.00162     0.41797
      H   22    0.17496      0.00000     0.32199    0.00305     0.32504
      H   23    0.12156      0.00000     0.37265    0.00579     0.37844
      H   24    0.10201      0.00000     0.39687    0.00111     0.39799
      H   25    0.09518      0.00000     0.40405    0.00076     0.40482
      H   26    0.10051      0.00000     0.39783    0.00166     0.39949
      H   27    0.19854      0.00000     0.29885    0.00260     0.30146
      H   28    0.09598      0.00000     0.40214    0.00188     0.40402
      H   29    0.07813      0.00000     0.41987    0.00199     0.42187
      H   30    0.07838      0.00000     0.41954    0.00208     0.42162
      H   31    0.08542      0.00000     0.41293    0.00165     0.41458
      H   32    0.08663      0.00000     0.41211    0.00125     0.41337
 =======================================================================
   * Total *    0.00000     15.99372    42.80188    0.20440    59.00000

 Normal termination of Gaussian 16 at Thu Dec 10 23:22:39 2020.
