 Gaussian 16, Revision A.03,

 -----------------------------------------------------------
 # opt freq B3LYP/6-31G(d) empiricaldispersion=gd3bj scf=xqc
 -----------------------------------------------------------

 -------------------------------
 CID_106743108_JID_5174_neutraal
 -------------------------------
 Symbolic Z-matrix:
 Charge =  0 Multiplicity = 1

 SCF Done:  E(RB3LYP) =  -1022.71949240     A.U. after   15 cycles
 SCF Done:  E(RB3LYP) =  -1022.72431219     A.U. after   13 cycles
 SCF Done:  E(RB3LYP) =  -1022.72500517     A.U. after   12 cycles
 SCF Done:  E(RB3LYP) =  -1022.72500316     A.U. after   12 cycles
 SCF Done:  E(RB3LYP) =  -1022.72517068     A.U. after   11 cycles
 SCF Done:  E(RB3LYP) =  -1022.72518461     A.U. after   11 cycles
 SCF Done:  E(RB3LYP) =  -1022.72518716     A.U. after    9 cycles
 SCF Done:  E(RB3LYP) =  -1022.72518745     A.U. after    8 cycles
 Optimization completed.
    -- Stationary point found.
 Normal termination of Gaussian 16 at Thu Dec 10 14:45:42 2020.

 --------------------------------------------------------------------
 #N Geom=AllCheck Guess=TCheck SCRF=Check GenChk RB3LYP/6-31G(d) Freq
 --------------------------------------------------------------------

 Structure from the checkpoint file:  "JID_5174.chk"
 -------------------------------
 CID_106743108_JID_5174_neutraal
 -------------------------------
 Charge =  0 Multiplicity = 1

 SCF Done:  E(RB3LYP) =  -1022.72518745     A.U. after    1 cycles

  Exact polarizability: 168.416  -5.713 132.031 -15.696   3.682  99.014
 Approx polarizability: 247.857  -8.644 237.141 -33.810  12.014 152.264

                      1                      2                      3
                      A                      A                      A
 Frequencies --     42.1172                61.6629               102.4812
 Red. masses --      5.8908                 6.1190                 3.6437
 Frc consts  --      0.0062                 0.0137                 0.0225
 IR Inten    --      0.1844                 1.3153                 0.3277

                      4                      5                      6
                      A                      A                      A
 Frequencies --    138.3135               184.2115               223.4169
 Red. masses --      6.0738                 3.8660                 2.0838
 Frc consts  --      0.0685                 0.0773                 0.0613
 IR Inten    --      2.2142                 0.6081                 2.2829

                      7                      8                      9
                      A                      A                      A
 Frequencies --    237.4195               253.6557               296.5871
 Red. masses --      7.2742                 1.3174                 3.4312
 Frc consts  --      0.2416                 0.0499                 0.1778
 IR Inten    --      1.6155                 0.1783                 4.3411

                     10                     11                     12
                      A                      A                      A
 Frequencies --    319.0210               368.1252               384.6203
 Red. masses --      3.1423                 3.4118                 2.0485
 Frc consts  --      0.1884                 0.2724                 0.1785
 IR Inten    --      1.1618                 4.0611                 0.7217

                     13                     14                     15
                      A                      A                      A
 Frequencies --    430.2878               446.7106               493.0674
 Red. masses --      3.2907                 4.5830                 4.5813
 Frc consts  --      0.3590                 0.5388                 0.6562
 IR Inten    --      1.6538                 9.4194                 7.3981

                     16                     17                     18
                      A                      A                      A
 Frequencies --    512.6743               544.6755               572.6520
 Red. masses --      2.4028                 5.1867                10.1210
 Frc consts  --      0.3721                 0.9066                 1.9555
 IR Inten    --      3.1155                 5.4594                 5.1093

                     19                     20                     21
                      A                      A                      A
 Frequencies --    610.7105               651.2888               682.4825
 Red. masses --      3.7299                 6.3049                10.5798
 Frc consts  --      0.8196                 1.5757                 2.9034
 IR Inten    --      1.6058                 5.1013                 2.2820

                     22                     23                     24
                      A                      A                      A
 Frequencies --    687.9455               752.5105               765.3168
 Red. masses --      5.7629                 2.1316                 4.3777
 Frc consts  --      1.6069                 0.7112                 1.5107
 IR Inten    --      8.8600                14.6142                10.4160

                     25                     26                     27
                      A                      A                      A
 Frequencies --    780.6849               807.5801               814.9398
 Red. masses --      1.2967                 1.9041                 4.3652
 Frc consts  --      0.4656                 0.7317                 1.7081
 IR Inten    --     14.8539               101.5713                11.6492

                     28                     29                     30
                      A                      A                      A
 Frequencies --    854.6228               880.4810               902.6667
 Red. masses --      2.9471                 1.7022                 2.1474
 Frc consts  --      1.2682                 0.7775                 1.0309
 IR Inten    --      8.2766                 3.2894                22.9157

                     31                     32                     33
                      A                      A                      A
 Frequencies --    955.2655               963.5337               987.4893
 Red. masses --      3.0913                 3.0156                 2.1020
 Frc consts  --      1.6620                 1.6495                 1.2077
 IR Inten    --     20.0969                11.0539                 4.0298

                     34                     35                     36
                      A                      A                      A
 Frequencies --   1000.1294              1033.3386              1064.5478
 Red. masses --      7.6373                 1.7256                 2.4778
 Frc consts  --      4.5009                 1.0856                 1.6544
 IR Inten    --      8.1829                 5.1998                12.1411

                     37                     38                     39
                      A                      A                      A
 Frequencies --   1086.4431              1104.2659              1123.3061
 Red. masses --      1.8467                 2.1372                 2.0628
 Frc consts  --      1.2843                 1.5355                 1.5336
 IR Inten    --     19.2936                28.5183                 1.2705

                     40                     41                     42
                      A                      A                      A
 Frequencies --   1152.9397              1166.3649              1176.5572
 Red. masses --      1.7138                 1.8371                 2.9081
 Frc consts  --      1.3422                 1.4725                 2.3718
 IR Inten    --      8.5238                 9.4169                27.7486

                     43                     44                     45
                      A                      A                      A
 Frequencies --   1213.2317              1237.8235              1248.9881
 Red. masses --      2.2245                 1.8193                 1.4094
 Frc consts  --      1.9291                 1.6423                 1.2954
 IR Inten    --     14.4326                 6.7831                16.0812

                     46                     47                     48
                      A                      A                      A
 Frequencies --   1284.7725              1327.0492              1330.9073
 Red. masses --      1.1659                 1.3398                 8.4440
 Frc consts  --      1.1339                 1.3901                 8.8124
 IR Inten    --      1.8054                 4.9277                 0.3421

                     49                     50                     51
                      A                      A                      A
 Frequencies --   1362.3381              1374.0661              1380.6459
 Red. masses --      1.7547                 1.3647                 1.3716
 Frc consts  --      1.9187                 1.5181                 1.5404
 IR Inten    --      5.4420                 1.0252                 3.6620

                     52                     53                     54
                      A                      A                      A
 Frequencies --   1396.6580              1406.0500              1422.3466
 Red. masses --      1.3245                 1.5907                 1.5032
 Frc consts  --      1.5222                 1.8529                 1.7918
 IR Inten    --      8.8117                 8.0696                 6.2199

                     55                     56                     57
                      A                      A                      A
 Frequencies --   1435.7386              1439.8384              1478.8536
 Red. masses --      2.6130                 1.4406                 5.2698
 Frc consts  --      3.1735                 1.7597                 6.7904
 IR Inten    --      2.7893                 9.2195                 2.9145

                     58                     59                     60
                      A                      A                      A
 Frequencies --   1500.3858              1511.2083              1517.4517
 Red. masses --      1.1180                 1.1181                 2.6163
 Frc consts  --      1.4828                 1.5044                 3.5494
 IR Inten    --      9.1241                 7.0927                75.0302

                     61                     62                     63
                      A                      A                      A
 Frequencies --   1519.7297              1520.5843              1531.6684
 Red. masses --      1.4881                 1.1854                 1.0678
 Frc consts  --      2.0250                 1.6148                 1.4759
 IR Inten    --     77.4248                 1.3923                10.3177

                     64                     65                     66
                      A                      A                      A
 Frequencies --   1541.4608              1608.5999              3019.8210
 Red. masses --      1.0594                10.0473                 1.0807
 Frc consts  --      1.4830                15.3177                 5.8066
 IR Inten    --      1.2964                21.0388                 7.0828

                     67                     68                     69
                      A                      A                      A
 Frequencies --   3038.1033              3045.5263              3052.9440
 Red. masses --      1.0684                 1.0723                 1.0751
 Frc consts  --      5.8104                 5.8601                 5.9039
 IR Inten    --     10.4413                34.3406                59.4170

                     70                     71                     72
                      A                      A                      A
 Frequencies --   3067.2892              3073.7182              3079.9860
 Red. masses --      1.0398                 1.0625                 1.1020
 Frc consts  --      5.7638                 5.9142                 6.1594
 IR Inten    --     14.8720                28.2676                41.9302

                     73                     74                     75
                      A                      A                      A
 Frequencies --   3107.0268              3119.3880              3136.1881
 Red. masses --      1.0961                 1.1031                 1.1013
 Frc consts  --      6.2342                 6.3241                 6.3820
 IR Inten    --     22.1155                30.4819                19.1767

                     76                     77                     78
                      A                      A                      A
 Frequencies --   3146.7332              3309.6087              3472.4788
 Red. masses --      1.1014                 1.0989                 1.0739
 Frc consts  --      6.4258                 7.0919                 7.6291
 IR Inten    --     35.7458                 0.7066                 2.6916

 - Thermochemistry -
 -------------------
 Temperature   298.150 Kelvin.  Pressure   1.00000 Atm.
 Atom     1 has atomic number  6 and mass  12.00000

 Molecular mass:   223.08917 amu.
 Principal axes and moments of inertia in atomic units:
                           1         2         3
     Eigenvalues --  1537.528405009.414195345.58285
           X            0.99999  -0.00500   0.00053
           Y            0.00502   0.99843  -0.05581
           Z           -0.00025   0.05582   0.99844
 This molecule is an asymmetric top.
 Rotational symmetry number  1.
 Warning -- assumption of classical behavior for rotation
           may cause significant error
 Rotational temperatures (Kelvin)      0.05633     0.01729     0.01620
 Rotational constants (GHZ):           1.17379     0.36027     0.33761
 Zero-point vibrational energy     603374.4 (Joules/Mol)
                                  144.20994 (Kcal/Mol)
 Warning -- explicit consideration of  19 degrees of freedom as
           vibrations may cause significant error
 Vibrational temperatures:     60.60    88.72   147.45   199.00   265.04
          (Kelvin)            321.45   341.59   364.95   426.72   459.00
                              529.65   553.38   619.09   642.72   709.41
                              737.62   783.67   823.92   878.68   937.06
                              981.94   989.80  1082.69  1101.12  1123.23
                             1161.93  1172.52  1229.61  1266.82  1298.74
                             1374.41  1386.31  1420.78  1438.96  1486.74
                             1531.65  1563.15  1588.79  1616.19  1658.82
                             1678.14  1692.80  1745.57  1780.95  1797.02
                             1848.50  1909.33  1914.88  1960.10  1976.97
                             1986.44  2009.48  2022.99  2046.44  2065.71
                             2071.61  2127.74  2158.72  2174.29  2183.27
                             2186.55  2187.78  2203.73  2217.82  2314.42
                             4344.85  4371.15  4381.83  4392.51  4413.15
                             4422.39  4431.41  4470.32  4488.10  4512.28
                             4527.45  4761.79  4996.12

 Zero-point correction=                           0.229813 (Hartree/Particle)
 Thermal correction to Energy=                    0.242294
 Thermal correction to Enthalpy=                  0.243238
 Thermal correction to Gibbs Free Energy=         0.190524
 Sum of electronic and zero-point Energies=          -1022.495374
 Sum of electronic and thermal Energies=             -1022.482894
 Sum of electronic and thermal Enthalpies=           -1022.481949
 Sum of electronic and thermal Free Energies=        -1022.534664

                     E (Thermal)             CV                S
                      KCal/Mol        Cal/Mol-Kelvin    Cal/Mol-Kelvin
 Total                  152.042             49.699            110.946
 Electronic               0.000              0.000              0.000
 Translational            0.889              2.981             42.110
 Rotational               0.889              2.981             32.088
 Vibrational            150.264             43.737             36.749
 Vibration     1          0.595              1.980              5.157
 Vibration     2          0.597              1.973              4.403
 Vibration     3          0.605              1.947              3.407
 Vibration     4          0.614              1.915              2.827
 Vibration     5          0.631              1.861              2.285
 Vibration     6          0.649              1.805              1.931
 Vibration     7          0.656              1.783              1.822
 Vibration     8          0.665              1.757              1.705
 Vibration     9          0.690              1.680              1.436
 Vibration    10          0.705              1.637              1.315
 Vibration    11          0.741              1.538              1.088
 Vibration    12          0.754              1.503              1.021
 Vibration    13          0.791              1.404              0.858
 Vibration    14          0.806              1.368              0.806
 Vibration    15          0.849              1.265              0.676
 Vibration    16          0.868              1.222              0.627
 Vibration    17          0.900              1.151              0.555
 Vibration    18          0.929              1.090              0.499
 Vibration    19          0.970              1.009              0.432

                           ! Non-Optimized Parameters !
 Normal termination of Gaussian 16 at Thu Dec 10 14:54:45 2020.

 ----------------------------------------------------------------------
 # B3LYP/6-311++G(d,p) empiricaldispersion=gd3bj scf=xqc pop=npa geom=c
 heck
 ----------------------------------------------------------------------

 ---------------------------------------
 CID_106743108_JID_5174_Energie_neutraal
 ---------------------------------------
 Structure from the checkpoint file:  "JID_5174.chk"
 Charge =  0 Multiplicity = 1

 SCF Done:  E(RB3LYP) =  -1022.91704589     A.U. after   16 cycles
 Normal termination of Gaussian 16 at Thu Dec 10 14:59:11 2020.

 ----------------------------------------------------------------------
 # B3LYP/6-311++G(d,p) empiricaldispersion=gd3bj scf=xqc pop=npa geom=c
 heck
 ----------------------------------------------------------------------

 -------------------------------------
 CID_106743108_JID_5174_Energie_kation
 -------------------------------------
 Structure from the checkpoint file:  "JID_5174.chk"
 Charge =  1 Multiplicity = 2

 SCF Done:  E(UB3LYP) =  -1022.60902089     A.U. after   28 cycles
 Normal termination of Gaussian 16 at Thu Dec 10 15:10:42 2020.
 Gaussian 16:  ES64L-G16RevA.03 25-Dec-2016

 ----------------------------------------------------------------------
 # B3LYP/6-311++G(d,p) empiricaldispersion=gd3bj scf=xqc pop=npa geom=c
 heck
 ----------------------------------------------------------------------

 ------------------------------------
 CID_106743108_JID_5174_Energie_anion
 ------------------------------------
 Structure from the checkpoint file:  "JID_5174.chk"
 Charge = -1 Multiplicity = 2

                         Standard orientation:
 ---------------------------------------------------------------------
 Center     Atomic      Atomic             Coordinates (Angstroms)
 Number     Number       Type             X           Y           Z
 ---------------------------------------------------------------------
      1          6           0        1.587707   -0.752420    1.954626
      2          6           0        2.681978   -0.731248    0.880910
      3          6           0        2.200799   -1.211571   -0.507888
      4          6           0        1.341700   -0.167854   -1.263985
      5          6           0        2.053774    1.199728   -1.263390
      6          6           0        2.508445    1.607557    0.146656
      7          7           0        3.320675    0.595165    0.829351
      8          6           0       -0.067559   -0.076494   -0.744645
      9          7           0       -0.650291    1.034723   -0.424062
     10          7           0       -1.931221    0.767499   -0.028592
     11          6           0       -3.000305    1.498724    0.416816
     12          7           0       -4.006507    0.686770    0.655269
     13          7           0       -3.615492   -0.621282    0.366085
     14          6           0       -2.374195   -0.534807   -0.038260
     15         16           0       -1.069348   -1.559367   -0.590782
     16          1           0        2.022085   -0.479198    2.920321
     17          1           0        1.143513   -1.750045    2.035579
     18          1           0        0.779521   -0.047101    1.743649
     19          1           0        3.462472   -1.430303    1.206257
     20          1           0        3.083194   -1.404578   -1.131436
     21          1           0        1.668201   -2.166914   -0.421226
     22          1           0        1.248453   -0.514050   -2.303323
     23          1           0        1.405425    1.967493   -1.697056
     24          1           0        2.934883    1.109216   -1.912595
     25          1           0        1.632901    1.826761    0.764965
     26          1           0        3.093876    2.531883    0.095638
     27          1           0        4.208998    0.506932    0.336977
     28          1           0       -2.988169    2.569952    0.543379
 ---------------------------------------------------------------------

 SCF Done:  E(UB3LYP) =  -1022.92208662     A.U. after   30 cycles

 The electronic state is 2-A.
 Alpha  occ. eigenvalues --  -88.77406 -14.30134 -14.23027 -14.21919 -14.21671
 Alpha  occ. eigenvalues --  -14.19067 -10.14577 -10.12546 -10.11565 -10.09504
 Alpha  occ. eigenvalues --  -10.08280 -10.08059 -10.06121 -10.05883 -10.05295
 Alpha  occ. eigenvalues --   -7.86006  -5.82344  -5.81987  -5.81490  -0.98208
 Alpha  occ. eigenvalues --   -0.88926  -0.80803  -0.75482  -0.72255  -0.68924
 Alpha  occ. eigenvalues --   -0.66448  -0.65897  -0.59483  -0.55553  -0.52274
 Alpha  occ. eigenvalues --   -0.51597  -0.50396  -0.46998  -0.43781  -0.40452
 Alpha  occ. eigenvalues --   -0.38706  -0.38161  -0.37060  -0.35899  -0.34471
 Alpha  occ. eigenvalues --   -0.33537  -0.30994  -0.30590  -0.29219  -0.28155
 Alpha  occ. eigenvalues --   -0.27642  -0.26605  -0.26179  -0.24398  -0.23491
 Alpha  occ. eigenvalues --   -0.22901  -0.22186  -0.21410  -0.21091  -0.18814
 Alpha  occ. eigenvalues --   -0.15720  -0.15648  -0.13392  -0.11955   0.03863
 Alpha virt. eigenvalues --    0.06668   0.08246   0.08460   0.08844   0.09715
 Alpha virt. eigenvalues --    0.10430   0.10689   0.10819   0.11312   0.11888
 Alpha virt. eigenvalues --    0.12324   0.12963   0.13503   0.13615   0.14291

  Beta  occ. eigenvalues --  -88.77391 -14.30179 -14.22773 -14.21877 -14.21693
  Beta  occ. eigenvalues --  -14.19055 -10.14511 -10.12491 -10.11127 -10.09496
  Beta  occ. eigenvalues --  -10.08281 -10.08094 -10.06062 -10.05860 -10.05292
  Beta  occ. eigenvalues --   -7.85992  -5.82341  -5.81990  -5.81427  -0.98094
  Beta  occ. eigenvalues --   -0.88685  -0.80766  -0.75247  -0.72079  -0.68756
  Beta  occ. eigenvalues --   -0.66419  -0.65786  -0.59436  -0.55256  -0.52207
  Beta  occ. eigenvalues --   -0.51493  -0.50290  -0.46861  -0.43709  -0.40273
  Beta  occ. eigenvalues --   -0.38449  -0.37896  -0.36919  -0.35754  -0.34435
  Beta  occ. eigenvalues --   -0.33471  -0.30919  -0.30516  -0.28913  -0.27811
  Beta  occ. eigenvalues --   -0.27477  -0.26386  -0.25990  -0.24218  -0.23364
  Beta  occ. eigenvalues --   -0.22748  -0.22013  -0.21294  -0.20934  -0.18593
  Beta  occ. eigenvalues --   -0.15657  -0.14746  -0.12910  -0.11907
  Beta virt. eigenvalues --    0.06899   0.08377   0.08508   0.08955   0.09773
  Beta virt. eigenvalues --    0.09942   0.10589   0.10815   0.11108   0.11505
  Beta virt. eigenvalues --    0.12276   0.12720   0.13368   0.13633   0.13826

 Mulliken charges and spin densities:
               1          2
     1  C   -0.637645   0.001280
     2  C    0.465100  -0.466099
     3  C   -0.311338  -0.387867
     4  C   -0.685853   1.527982
     5  C   -0.149250  -0.462468
     6  C   -0.158046  -0.262093
     7  N   -0.100046   0.012219
     8  C    1.330184  -1.691107
     9  N   -0.152724   0.178505
    10  N    0.211224  -0.092735
    11  C    0.022644   0.032434
    12  N   -0.097639   0.017985
    13  N   -0.113669  -0.006027
    14  C   -0.390321  -0.034198
    15  S    0.070752   0.048454
    16  H    0.126521   0.026382
    17  H    0.113831  -0.001485
    18  H    0.198323  -0.025729
    19  H   -0.004420   0.202207
    20  H   -0.549166   0.734040
    21  H    0.057188   0.062117
    22  H   -0.461799   0.734018
    23  H    0.116735   0.040510
    24  H   -0.391589   0.573320
    25  H    0.170351   0.003784
    26  H    0.081251   0.076985
    27  H    0.079134   0.159642
    28  H    0.160265  -0.002055
 Sum of Mulliken charges =  -1.00000   1.00000

 Dipole moment (field-independent basis, Debye):
    X=              0.1042    Y=              1.8108    Z=              2.4589  Tot=              3.0554
 Quadrupole moment (field-independent basis, Debye-Ang):
   XX=           -177.8138   YY=           -113.4269   ZZ=           -127.6477
   XY=             -1.1746   XZ=             13.1907   YZ=             -4.0722

 Summary of Natural Population Analysis:

                                       Natural Population
                Natural  -----------------------------------------------
    Atom  No    Charge         Core      Valence    Rydberg      Total
 -----------------------------------------------------------------------
      C    1   -0.29076      0.99964     2.28538    0.00575     3.29076
      C    2   -0.01177      0.99960     1.99904    0.01313     3.01177
      C    3   -0.18931      0.99959     2.17888    0.01083     3.18931
      C    4   -0.14524      0.99953     2.13021    0.01550     3.14524
      C    5   -0.19413      0.99961     2.18428    0.01023     3.19413
      C    6   -0.09302      0.99962     2.08196    0.01144     3.09302
      N    7   -0.34259      0.99975     2.83073    0.01211     3.84259
      C    8    0.13130      0.99958     1.85023    0.01889     2.86870
      N    9   -0.13061      0.99960     2.61887    0.01214     3.63061
      N   10   -0.13259      0.99955     2.61923    0.01381     3.63259
      C   11    0.09171      0.99966     1.89312    0.01551     2.90829
      N   12   -0.15667      0.99973     2.64301    0.01392     3.65667
      N   13   -0.18511      0.99965     2.67169    0.01376     3.68511
      C   14    0.10103      0.99955     1.87874    0.02069     2.89897
      S   15    0.16715      4.99944     2.81393    0.01948     7.83285
      H   16    0.09932      0.00000     0.39988    0.00081     0.40068
      H   17    0.09841      0.00000     0.40092    0.00066     0.40159
      H   18    0.10290      0.00000     0.39609    0.00101     0.39710
      H   19    0.09108      0.00000     0.40740    0.00152     0.40892
      H   20    0.10507      0.00000     0.39109    0.00384     0.39493
      H   21    0.09918      0.00000     0.39975    0.00107     0.40082
      H   22    0.12271      0.00000     0.37311    0.00418     0.37729
      H   23    0.10651      0.00000     0.39231    0.00118     0.39349
      H   24    0.09776      0.00000     0.40045    0.00179     0.40224
      H   25    0.09692      0.00000     0.40178    0.00129     0.40308
      H   26    0.09121      0.00000     0.40799    0.00080     0.40879
      H   27    0.17171      0.00000     0.32614    0.00215     0.32829
      H   28    0.09782      0.00000     0.40122    0.00095     0.40218
 =======================================================================
   * Total *   -0.00000     18.99409    39.77744    0.22847    59.00000

 Normal termination of Gaussian 16 at Thu Dec 10 15:22:24 2020.
