 Gaussian 16, Revision A.03,

 -----------------------------------------------------------
 # opt freq B3LYP/6-31G(d) empiricaldispersion=gd3bj scf=xqc
 -----------------------------------------------------------

 ---------------------------
 CID_67069_JID_1359_neutraal
 ---------------------------
 Symbolic Z-matrix:
 Charge =  0 Multiplicity = 1

 SCF Done:  E(RB3LYP) =  -515.499915532     A.U. after   15 cycles
 SCF Done:  E(RB3LYP) =  -515.501509780     A.U. after   13 cycles
 SCF Done:  E(RB3LYP) =  -515.501009980     A.U. after   14 cycles
 SCF Done:  E(RB3LYP) =  -515.503299851     A.U. after   12 cycles
 SCF Done:  E(RB3LYP) =  -515.503751061     A.U. after   12 cycles
 SCF Done:  E(RB3LYP) =  -515.504178396     A.U. after   12 cycles
 SCF Done:  E(RB3LYP) =  -515.506020352     A.U. after   15 cycles
 SCF Done:  E(RB3LYP) =  -515.507033210     A.U. after   13 cycles
 SCF Done:  E(RB3LYP) =  -515.508114172     A.U. after   12 cycles
 SCF Done:  E(RB3LYP) =  -515.508677713     A.U. after   13 cycles
 SCF Done:  E(RB3LYP) =  -515.509556488     A.U. after   10 cycles
 SCF Done:  E(RB3LYP) =  -515.509558679     A.U. after    9 cycles
 SCF Done:  E(RB3LYP) =  -515.509559309     A.U. after    8 cycles
 SCF Done:  E(RB3LYP) =  -515.509559366     A.U. after    7 cycles
 SCF Done:  E(RB3LYP) =  -515.509559419     A.U. after    7 cycles
 Optimization completed.
    -- Stationary point found.
 Normal termination of Gaussian 16 at Tue Dec  8 19:53:22 2020.

 --------------------------------------------------------------------
 #N Geom=AllCheck Guess=TCheck SCRF=Check GenChk RB3LYP/6-31G(d) Freq
 --------------------------------------------------------------------

 Structure from the checkpoint file:  "JID_1359.chk"
 ---------------------------
 CID_67069_JID_1359_neutraal
 ---------------------------
 Charge =  0 Multiplicity = 1

 SCF Done:  E(RB3LYP) =  -515.509559419     A.U. after    1 cycles

  Exact polarizability: 127.140   3.871 112.080  -0.605   6.914  44.840
 Approx polarizability: 192.504   4.508 191.191   0.265  22.459  70.472

                      1                      2                      3
                      A                      A                      A
 Frequencies --     62.1676               109.2330               135.5750
 Red. masses --      7.5593                 3.4612                 3.4424
 Frc consts  --      0.0172                 0.0243                 0.0373
 IR Inten    --      1.0984                 1.0845                 6.9595

                      4                      5                      6
                      A                      A                      A
 Frequencies --    161.5371               211.1698               240.7098
 Red. masses --      1.2566                 4.1101                 2.7437
 Frc consts  --      0.0193                 0.1080                 0.0937
 IR Inten    --      0.1039                 3.1905                 0.6833

                      7                      8                      9
                      A                      A                      A
 Frequencies --    287.6693               353.5657               390.8934
 Red. masses --      3.9991                 6.1917                 3.7718
 Frc consts  --      0.1950                 0.4560                 0.3396
 IR Inten    --      2.2510                 4.3935                 1.9088

                     10                     11                     12
                      A                      A                      A
 Frequencies --    444.0609               522.2566               526.3768
 Red. masses --      2.5595                 5.8547                 2.2235
 Frc consts  --      0.2974                 0.9409                 0.3630
 IR Inten    --     24.3512                 2.1175                55.6873

                     13                     14                     15
                      A                      A                      A
 Frequencies --    554.7480               612.5217               631.1597
 Red. masses --      3.2345                 1.5020                 2.5334
 Frc consts  --      0.5865                 0.3320                 0.5946
 IR Inten    --     12.4253                42.5155                39.2582

                     16                     17                     18
                      A                      A                      A
 Frequencies --    643.8935               721.1568               748.7828
 Red. masses --      3.4313                 3.0625                 4.0794
 Frc consts  --      0.8382                 0.9384                 1.3476
 IR Inten    --     40.3695                49.7514                 9.3725

                     19                     20                     21
                      A                      A                      A
 Frequencies --    766.1405               798.1655               853.5529
 Red. masses --      1.5512                 3.3352                 3.2093
 Frc consts  --      0.5364                 1.2519                 1.3776
 IR Inten    --     62.7403                 7.8288                 6.4255

                     22                     23                     24
                      A                      A                      A
 Frequencies --    859.3120               962.3218               981.6096
 Red. masses --      1.7917                 1.3298                 1.2754
 Frc consts  --      0.7795                 0.7256                 0.7240
 IR Inten    --      5.7766                 1.2503                 0.2612

                     25                     26                     27
                      A                      A                      A
 Frequencies --   1063.3640              1088.7442              1118.1332
 Red. masses --      3.4178                 3.4763                 2.3477
 Frc consts  --      2.2770                 2.4278                 1.7293
 IR Inten    --     10.2052                33.0588                 9.4630

                     28                     29                     30
                      A                      A                      A
 Frequencies --   1135.7495              1167.1141              1191.4912
 Red. masses --      2.0782                 1.3362                 1.3132
 Frc consts  --      1.5794                 1.0724                 1.0984
 IR Inten    --    127.9487                 1.4738                 8.6766

                     31                     32                     33
                      A                      A                      A
 Frequencies --   1203.6779              1219.7565              1299.7299
 Red. masses --      1.2251                 1.7764                 1.9118
 Frc consts  --      1.0457                 1.5571                 1.9028
 IR Inten    --     10.1024               119.7035                68.8864

                     34                     35                     36
                      A                      A                      A
 Frequencies --   1307.1936              1391.7991              1396.0163
 Red. masses --      2.2086                 2.6819                 4.0463
 Frc consts  --      2.2235                 3.0609                 4.6461
 IR Inten    --     25.1230                92.8289                10.3719

                     37                     38                     39
                      A                      A                      A
 Frequencies --   1475.9070              1483.5505              1512.1606
 Red. masses --      1.7436                 1.2568                 1.0752
 Frc consts  --      2.2377                 1.6297                 1.4486
 IR Inten    --     34.3017                39.2945                13.2680

                     40                     41                     42
                      A                      A                      A
 Frequencies --   1541.6049              1551.2908              1564.7858
 Red. masses --      1.4483                 1.7742                 1.5551
 Frc consts  --      2.0280                 2.5156                 2.2434
 IR Inten    --     56.2923                42.2710               101.8933

                     43                     44                     45
                      A                      A                      A
 Frequencies --   1635.8437              1670.2784              1804.7972
 Red. masses --      4.0079                 5.4185                 9.2811
 Frc consts  --      6.3191                 8.9066                17.8118
 IR Inten    --     12.8451               114.9384               359.7669

                     46                     47                     48
                      A                      A                      A
 Frequencies --   3048.1240              3115.1781              3132.5193
 Red. masses --      1.0357                 1.1031                 1.1027
 Frc consts  --      5.6696                 6.3069                 6.3752
 IR Inten    --     59.0280                33.3861                26.8648

                     49                     50                     51
                      A                      A                      A
 Frequencies --   3167.6282              3194.0473              3211.6700
 Red. masses --      1.0877                 1.0902                 1.0916
 Frc consts  --      6.4300                 6.5532                 6.6342
 IR Inten    --     14.5459                16.5845                12.8390

                     52                     53                     54
                      A                      A                      A
 Frequencies --   3228.2118              3602.5355              3686.8773
 Red. masses --      1.0945                 1.0757                 1.0638
 Frc consts  --      6.7206                 8.2255                 8.5201
 IR Inten    --      8.4922                15.4116                62.2759

 - Thermochemistry -
 -------------------
 Temperature   298.150 Kelvin.  Pressure   1.00000 Atm.
 Atom     1 has atomic number  6 and mass  12.00000

 Molecular mass:   151.06333 amu.
 Principal axes and moments of inertia in atomic units:
                           1         2         3
     Eigenvalues --  1141.338981680.414402631.88063
           X            0.99767   0.06797  -0.00625
           Y           -0.06805   0.99761  -0.01201
           Z            0.00542   0.01240   0.99991
 This molecule is an asymmetric top.
 Rotational symmetry number  1.
 Warning -- assumption of classical behavior for rotation
           may cause significant error
 Rotational temperatures (Kelvin)      0.07589     0.05154     0.03291
 Rotational constants (GHZ):           1.58125     1.07399     0.68572
 Zero-point vibrational energy     423408.4 (Joules/Mol)
                                  101.19704 (Kcal/Mol)
 Warning -- explicit consideration of  14 degrees of freedom as
           vibrations may cause significant error
 Vibrational temperatures:     89.45   157.16   195.06   232.42   303.83
          (Kelvin)            346.33   413.89   508.70   562.41   638.90
                              751.41   757.34   798.16   881.28   908.10
                              926.42  1037.58  1077.33  1102.31  1148.38
                             1228.07  1236.36  1384.57  1412.32  1529.94
                             1566.46  1608.74  1634.09  1679.22  1714.29
                             1731.82  1754.96  1870.02  1880.76  2002.49
                             2008.56  2123.50  2134.50  2175.66  2218.03
                             2231.96  2251.38  2353.61  2403.16  2596.70
                             4385.57  4482.05  4507.00  4557.51  4595.52
                             4620.88  4644.68  5183.25  5304.59

 Zero-point correction=                           0.161268 (Hartree/Particle)
 Thermal correction to Energy=                    0.171192
 Thermal correction to Enthalpy=                  0.172136
 Thermal correction to Gibbs Free Energy=         0.125882
 Sum of electronic and zero-point Energies=           -515.348292
 Sum of electronic and thermal Energies=              -515.338367
 Sum of electronic and thermal Enthalpies=            -515.337423
 Sum of electronic and thermal Free Energies=         -515.383677

                     E (Thermal)             CV                S
                      KCal/Mol        Cal/Mol-Kelvin    Cal/Mol-Kelvin
 Total                  107.425             37.671             97.351
 Electronic               0.000              0.000              0.000
 Translational            0.889              2.981             40.948
 Rotational               0.889              2.981             30.002
 Vibrational            105.647             31.710             26.401
 Vibration     1          0.597              1.972              4.387
 Vibration     2          0.606              1.942              3.282
 Vibration     3          0.613              1.918              2.865
 Vibration     4          0.622              1.890              2.532
 Vibration     5          0.643              1.824              2.034
 Vibration     6          0.658              1.778              1.798
 Vibration     7          0.685              1.697              1.488
 Vibration     8          0.730              1.568              1.150
 Vibration     9          0.759              1.490              0.997
 Vibration    10          0.804              1.374              0.814
 Vibration    11          0.877              1.201              0.605
 Vibration    12          0.881              1.192              0.595
 Vibration    13          0.910              1.129              0.534
 Vibration    14          0.972              1.005              0.429

 Optimization completed.
    -- Stationary point found.
 Normal termination of Gaussian 16 at Tue Dec  8 19:57:27 2020.

 ----------------------------------------------------------------------
 # B3LYP/6-311++G(d,p) empiricaldispersion=gd3bj scf=xqc pop=npa geom=c
 heck
 ----------------------------------------------------------------------

 -----------------------------------
 CID_67069_JID_1359_Energie_neutraal
 -----------------------------------
 Structure from the checkpoint file:  "JID_1359.chk"
 Charge =  0 Multiplicity = 1

 SCF Done:  E(RB3LYP) =  -515.665037462     A.U. after   15 cycles
 Normal termination of Gaussian 16 at Tue Dec  8 19:59:17 2020.

 ----------------------------------------------------------------------
 # B3LYP/6-311++G(d,p) empiricaldispersion=gd3bj scf=xqc pop=npa geom=c
 heck
 ----------------------------------------------------------------------

 ---------------------------------
 CID_67069_JID_1359_Energie_kation
 ---------------------------------
 Structure from the checkpoint file:  "JID_1359.chk"
 Charge =  1 Multiplicity = 2

 SCF Done:  E(UB3LYP) =  -515.379013866     A.U. after   22 cycles
 Normal termination of Gaussian 16 at Tue Dec  8 20:03:40 2020.
 Gaussian 16:  ES64L-G16RevA.03 25-Dec-2016

 ----------------------------------------------------------------------
 # B3LYP/6-311++G(d,p) empiricaldispersion=gd3bj scf=xqc pop=npa geom=c
 heck
 ----------------------------------------------------------------------

 --------------------------------
 CID_67069_JID_1359_Energie_anion
 --------------------------------
 Structure from the checkpoint file:  "JID_1359.chk"
 Charge = -1 Multiplicity = 2

                         Standard orientation:
 ---------------------------------------------------------------------
 Center     Atomic      Atomic             Coordinates (Angstroms)
 Number     Number       Type             X           Y           Z
 ---------------------------------------------------------------------
      1          6           0        1.761918    1.913010   -0.669165
      2          7           0        0.557085    1.889920    0.152221
      3          6           0       -0.383072    0.875975    0.116785
      4          6           0       -1.746403    1.236015    0.214194
      5          6           0       -2.758242    0.297158    0.106793
      6          6           0       -2.454503   -1.050054   -0.126559
      7          6           0       -1.124223   -1.427833   -0.195324
      8          6           0       -0.075827   -0.501841   -0.032422
      9          6           0        1.269178   -1.114097    0.072658
     10          8           0        1.586483   -2.183987   -0.413790
     11          8           0        2.133161   -0.423648    0.865770
     12          1           0        1.689642    1.176920   -1.478459
     13          1           0        2.660241    1.692214   -0.087833
     14          1           0        1.865906    2.904516   -1.121890
     15          1           0        0.131000    2.799390    0.261850
     16          1           0       -1.996068    2.287227    0.342645
     17          1           0       -3.793232    0.620339    0.179231
     18          1           0       -3.243739   -1.786593   -0.235802
     19          1           0       -0.847202   -2.466114   -0.342132
     20          1           0        2.943750   -0.966259    0.879239
 ---------------------------------------------------------------------

 SCF Done:  E(UB3LYP) =  -515.658261754     A.U. after   33 cycles
 SCF Done:  E(UB3LYP) =  -515.658261754     a.u. after    1 cycles

 The electronic state is 2-A.
 Alpha  occ. eigenvalues --  -19.03262 -18.96543 -14.19687 -10.15402 -10.08903
 Alpha  occ. eigenvalues --  -10.07110 -10.04261 -10.04051 -10.04039 -10.03909
 Alpha  occ. eigenvalues --  -10.03795  -0.97104  -0.87627  -0.80951  -0.71657
 Alpha  occ. eigenvalues --   -0.63217  -0.61924  -0.55940  -0.51743  -0.48181
 Alpha  occ. eigenvalues --   -0.45239  -0.40571  -0.38288  -0.35327  -0.34459
 Alpha  occ. eigenvalues --   -0.33404  -0.31842  -0.31260  -0.29929  -0.29718
 Alpha  occ. eigenvalues --   -0.27128  -0.26327  -0.24086  -0.23457  -0.22194
 Alpha  occ. eigenvalues --   -0.19223  -0.17206  -0.14909  -0.12775  -0.08054
 Alpha  occ. eigenvalues --    0.05057
 Alpha virt. eigenvalues --    0.07466   0.08402   0.08877   0.09892   0.10748
 Alpha virt. eigenvalues --    0.11929   0.12107   0.12807   0.13943   0.14246
 Alpha virt. eigenvalues --    0.15892   0.16044   0.16470   0.18241   0.18516

  Beta  occ. eigenvalues --  -19.03215 -18.96390 -14.19644 -10.15209 -10.08826
  Beta  occ. eigenvalues --  -10.07066 -10.04173 -10.03934 -10.03929 -10.03855
  Beta  occ. eigenvalues --  -10.03787  -0.96904  -0.87392  -0.80815  -0.71442
  Beta  occ. eigenvalues --   -0.62852  -0.61760  -0.55776  -0.51401  -0.48069
  Beta  occ. eigenvalues --   -0.45007  -0.40474  -0.38111  -0.35169  -0.34274
  Beta  occ. eigenvalues --   -0.33287  -0.31314  -0.31028  -0.29732  -0.29608
  Beta  occ. eigenvalues --   -0.26975  -0.26214  -0.23623  -0.23333  -0.22073
  Beta  occ. eigenvalues --   -0.18617  -0.16773  -0.14688  -0.11886  -0.07678
  Beta virt. eigenvalues --    0.08046   0.08696   0.09335   0.09544   0.10338
  Beta virt. eigenvalues --    0.11096   0.12232   0.12258   0.13251   0.14025
  Beta virt. eigenvalues --    0.14564   0.15865   0.16235   0.17405   0.18281

 Mulliken charges and spin densities:
               1          2
     1  C    0.884989  -1.262240
     2  N   -0.237840   0.235626
     3  C   -1.681081   0.583897
     4  C   -0.969936   0.505375
     5  C    0.220099  -0.161395
     6  C   -0.661427   0.073954
     7  C    0.075958   0.016144
     8  C    2.454185  -0.986662
     9  C    0.296670  -0.397616
    10  O   -0.356399   0.060220
    11  O   -0.198863   0.018158
    12  H    0.035069   0.124375
    13  H   -0.047276   0.203934
    14  H   -0.849847   0.983370
    15  H   -0.012554   0.293011
    16  H   -0.465479   0.571696
    17  H    0.074081   0.035368
    18  H    0.084136   0.025511
    19  H    0.162733   0.001693
    20  H    0.192783   0.075579
 Sum of Mulliken charges =  -1.00000   1.00000

 Dipole moment (field-independent basis, Debye):
    X=             -1.2990    Y=             -3.4176    Z=              1.7082  Tot=              4.0355
 Quadrupole moment (field-independent basis, Debye-Ang):
   XX=            -91.9272   YY=           -110.3202   ZZ=            -83.9707
   XY=             -1.7586   XZ=              5.1309   YZ=              2.3625

 Summary of Natural Population Analysis:

                                       Natural Population
                Natural  -----------------------------------------------
    Atom  No    Charge         Core      Valence    Rydberg      Total
 -----------------------------------------------------------------------
      C    1   -0.17544      0.99964     2.16716    0.00864     3.17544
      N    2   -0.30278      0.99967     2.79083    0.01228     3.80278
      C    3    0.12451      0.99947     1.86432    0.01170     2.87549
      C    4   -0.13363      0.99953     2.12404    0.01006     3.13363
      C    5   -0.05237      0.99957     2.04170    0.01110     3.05237
      C    6   -0.14718      0.99956     2.13779    0.00983     3.14718
      C    7   -0.04776      0.99955     2.03990    0.00831     3.04776
      C    8   -0.10015      0.99942     2.08990    0.01084     3.10015
      C    9    0.41840      0.99965     1.55631    0.02564     2.58160
      O   10   -0.31685      0.99987     3.31137    0.00561     4.31685
      O   11   -0.34861      0.99988     3.34174    0.00698     4.34861
      H   12    0.09285      0.00000     0.40552    0.00163     0.40715
      H   13    0.09421      0.00000     0.40413    0.00167     0.40579
      H   14    0.09418      0.00000     0.40265    0.00316     0.40582
      H   15    0.18270      0.00000     0.31356    0.00374     0.31730
      H   16    0.09539      0.00000     0.40322    0.00139     0.40461
      H   17    0.09102      0.00000     0.40821    0.00078     0.40898
      H   18    0.09402      0.00000     0.40519    0.00079     0.40598
      H   19    0.10429      0.00000     0.39470    0.00101     0.39571
      H   20    0.23320      0.00000     0.26336    0.00343     0.26680
 =======================================================================
   * Total *    0.00000     10.99582    28.86559    0.13859    40.00000

 Normal termination of Gaussian 16 at Tue Dec  8 20:08:48 2020.
