 Gaussian 16, Revision A.03,

 -----------------------------------------------------------
 # opt freq B3LYP/6-31G(d) empiricaldispersion=gd3bj scf=xqc
 -----------------------------------------------------------

 ------------------------------
 CID_54886510_JID_9901_neutraal
 ------------------------------
 Symbolic Z-matrix:
 Charge =  0 Multiplicity = 1

 SCF Done:  E(RB3LYP) =  -822.508973162     A.U. after   15 cycles
 SCF Done:  E(RB3LYP) =  -822.534527821     A.U. after   13 cycles
 SCF Done:  E(RB3LYP) =  -822.535500076     A.U. after   12 cycles
 SCF Done:  E(RB3LYP) =  -822.536368213     A.U. after   12 cycles
 SCF Done:  E(RB3LYP) =  -822.536548808     A.U. after   12 cycles
 SCF Done:  E(RB3LYP) =  -822.536637758     A.U. after   12 cycles
 SCF Done:  E(RB3LYP) =  -822.536675683     A.U. after   10 cycles
 SCF Done:  E(RB3LYP) =  -822.536698214     A.U. after   10 cycles
 SCF Done:  E(RB3LYP) =  -822.536707612     A.U. after   10 cycles
 SCF Done:  E(RB3LYP) =  -822.536714504     A.U. after   10 cycles
 SCF Done:  E(RB3LYP) =  -822.536715309     A.U. after   12 cycles
 SCF Done:  E(RB3LYP) =  -822.536712994     A.U. after   11 cycles
 SCF Done:  E(RB3LYP) =  -822.536713017     A.U. after    8 cycles
 SCF Done:  E(RB3LYP) =  -822.536713042     A.U. after    8 cycles
 SCF Done:  E(RB3LYP) =  -822.536713040     A.U. after    7 cycles
 Optimization completed.
    -- Stationary point found.
 Normal termination of Gaussian 16 at Mon Dec 14 18:00:42 2020.

 --------------------------------------------------------------------
 #N Geom=AllCheck Guess=TCheck SCRF=Check GenChk RB3LYP/6-31G(d) Freq
 --------------------------------------------------------------------

 Structure from the checkpoint file:  "JID_9901.chk"
 ------------------------------
 CID_54886510_JID_9901_neutraal
 ------------------------------
 Charge =  0 Multiplicity = 1

 SCF Done:  E(RB3LYP) =  -822.536713041     A.U. after    1 cycles

  Exact polarizability: 225.911  23.410 135.242  -0.802   2.495 146.066
 Approx polarizability: 304.640  49.128 206.661  -8.988   7.229 249.552

                      1                      2                      3
                      A                      A                      A
 Frequencies --      1.8841                34.0967                54.5885
 Red. masses --      4.1221                 3.2647                 3.7368
 Frc consts  --      0.0000                 0.0022                 0.0066
 IR Inten    --      0.4936                 0.2098                 0.8711

                      4                      5                      6
                      A                      A                      A
 Frequencies --     73.5760               108.0601               139.6170
 Red. masses --      3.7207                 4.0540                 5.2977
 Frc consts  --      0.0119                 0.0279                 0.0608
 IR Inten    --      5.4420                 2.6286                 1.5158

                      7                      8                      9
                      A                      A                      A
 Frequencies --    140.6525               181.3142               217.3957
 Red. masses --      6.6763                 3.5912                 3.7564
 Frc consts  --      0.0778                 0.0696                 0.1046
 IR Inten    --      5.0380                 0.4563                 4.8602

                     10                     11                     12
                      A                      A                      A
 Frequencies --    234.0390               258.7116               280.2894
 Red. masses --      2.4209                 1.2703                 2.8080
 Frc consts  --      0.0781                 0.0501                 0.1300
 IR Inten    --      0.5709                 0.0907                 1.7233

                     13                     14                     15
                      A                      A                      A
 Frequencies --    320.6436               343.8274               370.9545
 Red. masses --      2.7064                 2.7947                 4.5829
 Frc consts  --      0.1639                 0.1947                 0.3716
 IR Inten    --      2.1884                 0.1751                 1.4060

                     16                     17                     18
                      A                      A                      A
 Frequencies --    387.2594               407.4918               417.6228
 Red. masses --      2.7979                 2.9056                 2.5892
 Frc consts  --      0.2472                 0.2843                 0.2661
 IR Inten    --      4.6326                 0.2529                14.0701

                     19                     20                     21
                      A                      A                      A
 Frequencies --    439.5866               462.2938               493.5718
 Red. masses --      3.2583                 3.5143                 3.9046
 Frc consts  --      0.3710                 0.4425                 0.5604
 IR Inten    --      0.7477                 2.4284                 4.7727

                     22                     23                     24
                      A                      A                      A
 Frequencies --    513.5283               544.8924               573.5501
 Red. masses --      4.1887                 3.5378                 3.4339
 Frc consts  --      0.6508                 0.6189                 0.6655
 IR Inten    --      8.5079                 1.8152                 0.4720

                     25                     26                     27
                      A                      A                      A
 Frequencies --    584.6444               605.6956               614.6101
 Red. masses --      5.6479                 4.6304                 5.3844
 Frc consts  --      1.1374                 1.0009                 1.1984
 IR Inten    --      4.5020                 8.1117                 5.5603

                     28                     29                     30
                      A                      A                      A
 Frequencies --    656.7427               674.8780               722.2223
 Red. masses --      5.8996                 4.2178                 2.8619
 Frc consts  --      1.4992                 1.1318                 0.8795
 IR Inten    --      4.1485                10.7194                22.7551

                     31                     32                     33
                      A                      A                      A
 Frequencies --    751.3999               788.4447               804.1588
 Red. masses --      2.8708                 3.2444                 2.4780
 Frc consts  --      0.9550                 1.1883                 0.9442
 IR Inten    --     41.9599                30.9109                13.9265

                     34                     35                     36
                      A                      A                      A
 Frequencies --    820.4589               826.1922               833.8231
 Red. masses --      1.5808                 1.2994                 1.6436
 Frc consts  --      0.6269                 0.5226                 0.6733
 IR Inten    --      6.6210                 2.3898                22.0064

                     37                     38                     39
                      A                      A                      A
 Frequencies --    846.5107               869.3625               876.1070
 Red. masses --      1.8062                 2.9924                 2.6078
 Frc consts  --      0.7626                 1.3325                 1.1793
 IR Inten    --     35.2054                 6.1721                 8.1049

                     40                     41                     42
                      A                      A                      A
 Frequencies --    893.0267               929.9297               948.8457
 Red. masses --      2.9116                 2.3891                 1.2963
 Frc consts  --      1.3681                 1.2172                 0.6876
 IR Inten    --      0.4598                 0.6304                 0.3734

                     43                     44                     45
                      A                      A                      A
 Frequencies --    952.2687               976.3661              1000.4114
 Red. masses --      1.3026                 3.9331                 2.2437
 Frc consts  --      0.6960                 2.2090                 1.3230
 IR Inten    --      0.7046                11.3195                 5.5481

                     46                     47                     48
                      A                      A                      A
 Frequencies --   1004.4871              1032.2331              1044.1240
 Red. masses --      2.0359                 2.6513                 3.7528
 Frc consts  --      1.2103                 1.6644                 2.4105
 IR Inten    --      2.9813                 0.6825                16.7306

                     49                     50                     51
                      A                      A                      A
 Frequencies --   1053.2732              1082.6074              1087.0557
 Red. masses --      2.1904                 5.7410                 2.8890
 Frc consts  --      1.4317                 3.9645                 2.0114
 IR Inten    --     28.9299                57.7626                14.6983

                     52                     53                     54
                      A                      A                      A
 Frequencies --   1094.8289              1105.3210              1143.9225
 Red. masses --      2.9237                 3.3970                 1.3118
 Frc consts  --      2.0648                 2.4453                 1.0113
 IR Inten    --     27.3538                14.5866                12.4824

                     55                     56                     57
                      A                      A                      A
 Frequencies --   1170.6981              1186.8116              1187.9581
 Red. masses --      1.5450                 1.2722                 2.1607
 Frc consts  --      1.2476                 1.0558                 1.7966
 IR Inten    --      2.9638                 0.6203                19.7981

                     58                     59                     60
                      A                      A                      A
 Frequencies --   1206.2463              1220.1719              1230.3138
 Red. masses --      1.1542                 1.3803                 1.4313
 Frc consts  --      0.9895                 1.2108                 1.2765
 IR Inten    --     10.9734                 9.0011                 1.7547

                     61                     62                     63
                      A                      A                      A
 Frequencies --   1257.9850              1261.9186              1275.1228
 Red. masses --      1.4175                 1.2901                 3.0061
 Frc consts  --      1.3217                 1.2104                 2.8798
 IR Inten    --      0.5047                13.4455               134.7452

                     64                     65                     66
                      A                      A                      A
 Frequencies --   1297.1529              1301.0268              1331.7168
 Red. masses --      1.3877                 4.3141                 1.3771
 Frc consts  --      1.3757                 4.3024                 1.4389
 IR Inten    --      0.4975               210.7521                 2.3189

                     67                     68                     69
                      A                      A                      A
 Frequencies --   1340.3666              1354.4366              1357.8611
 Red. masses --      1.3804                 4.6417                 1.3653
 Frc consts  --      1.4612                 5.0170                 1.4831
 IR Inten    --      3.7280                38.2153                 1.4056

                     70                     71                     72
                      A                      A                      A
 Frequencies --   1370.1235              1371.6773              1378.0952
 Red. masses --      1.4058                 1.4249                 1.4313
 Frc consts  --      1.5548                 1.5795                 1.6015
 IR Inten    --      3.6589                 4.3146                19.1925

                     73                     74                     75
                      A                      A                      A
 Frequencies --   1386.2812              1392.2151              1405.4433
 Red. masses --      1.3409                 1.3845                 1.3157
 Frc consts  --      1.5182                 1.5811                 1.5312
 IR Inten    --      5.9559                10.0469                 4.6803

                     76                     77                     78
                      A                      A                      A
 Frequencies --   1456.4450              1500.4323              1506.0881
 Red. masses --      2.5952                 1.1965                 1.0795
 Frc consts  --      3.2435                 1.5870                 1.4427
 IR Inten    --      6.3562                27.7078                 3.4308

                     79                     80                     81
                      A                      A                      A
 Frequencies --   1513.6852              1521.1289              1524.8175
 Red. masses --      1.0772                 1.0477                 1.0871
 Frc consts  --      1.4542                 1.4283                 1.4893
 IR Inten    --      1.6332                 5.6662                 5.6077

                     82                     83                     84
                      A                      A                      A
 Frequencies --   1529.7908              1531.8948              1536.8875
 Red. masses --      1.1030                 1.2975                 1.1610
 Frc consts  --      1.5209                 1.7940                 1.6158
 IR Inten    --      4.1851                 0.7378                79.9490

                     85                     86                     87
                      A                      A                      A
 Frequencies --   1544.9821              1564.7987              1638.9745
 Red. masses --      1.0950                 2.4284                 5.0114
 Frc consts  --      1.5400                 3.5034                 7.9315
 IR Inten    --      7.8666               189.0250                 9.0147

                     88                     89                     90
                      A                      A                      A
 Frequencies --   1677.9897              2356.5368              3025.3633
 Red. masses --      5.8602                12.7002                 1.0349
 Frc consts  --      9.7218                41.5538                 5.5811
 IR Inten    --     21.1946                10.0179                56.8845

                     91                     92                     93
                      A                      A                      A
 Frequencies --   3057.4120              3058.4557              3064.1268
 Red. masses --      1.0670                 1.0700                 1.0675
 Frc consts  --      5.8767                 5.8972                 5.9050
 IR Inten    --      4.8907                14.1750                57.9661

                     94                     95                     96
                      A                      A                      A
 Frequencies --   3065.8048              3074.4344              3083.7647
 Red. masses --      1.0646                 1.0773                 1.1066
 Frc consts  --      5.8957                 5.9994                 6.2003
 IR Inten    --     61.3957                45.5267                43.1512

                     97                     98                     99
                      A                      A                      A
 Frequencies --   3094.4243              3103.3055              3105.4201
 Red. masses --      1.0680                 1.1048                 1.1044
 Frc consts  --      6.0253                 6.2687                 6.2751
 IR Inten    --     17.1414                 0.6952                36.3762

                    100                    101                    102
                      A                      A                      A
 Frequencies --   3123.3768              3155.0456              3161.3159
 Red. masses --      1.1034                 1.0931                 1.0996
 Frc consts  --      6.3421                 6.4107                 6.4747
 IR Inten    --     37.6800                13.2671                27.9909

                    103                    104                    105
                      A                      A                      A
 Frequencies --   3171.8177              3179.4813              3213.5242
 Red. masses --      1.0979                 1.0892                 1.0884
 Frc consts  --      6.5078                 6.4872                 6.6222
 IR Inten    --      8.8187                14.4280                13.8105

                    106                    107                    108
                      A                      A                      A
 Frequencies --   3217.6464              3232.7798              3514.2621
 Red. masses --      1.0928                 1.0926                 1.0741
 Frc consts  --      6.6660                 6.7276                 7.8157
 IR Inten    --      4.0479                 7.6870                 3.4234

 - Thermochemistry -
 -------------------
 Temperature   298.150 Kelvin.  Pressure   1.00000 Atm.
 Atom     1 has atomic number  6 and mass  12.00000

 Molecular mass:   257.15281 amu.
 Principal axes and moments of inertia in atomic units:
                           1         2         3
     Eigenvalues --  2172.357898285.235958942.22988
           X            0.99991  -0.00680   0.01124
           Y            0.00663   0.99987   0.01493
           Z           -0.01134  -0.01486   0.99983
 This molecule is an asymmetric top.
 Rotational symmetry number  1.
 Warning -- assumption of classical behavior for rotation
           may cause significant error
 Rotational temperatures (Kelvin)      0.03987     0.01045     0.00969
 Rotational constants (GHZ):           0.83078     0.21783     0.20182
 Zero-point vibrational energy     855409.1 (Joules/Mol)
                                  204.44768 (Kcal/Mol)
 Warning -- explicit consideration of  27 degrees of freedom as
           vibrations may cause significant error
 Vibrational temperatures:      2.71    49.06    78.54   105.86   155.47
          (Kelvin)            200.88   202.37   260.87   312.78   336.73
                              372.23   403.27   461.33   494.69   533.72
                              557.18   586.29   600.87   632.47   665.14
                              710.14   738.85   783.98   825.21   841.17
                              871.46   884.29   944.91   971.00  1039.12
                             1081.10  1134.40  1157.01  1180.46  1188.71
                             1199.69  1217.94  1250.82  1260.52  1284.87
                             1337.96  1365.18  1370.10  1404.77  1439.37
                             1445.23  1485.15  1502.26  1515.43  1557.63
                             1564.03  1575.21  1590.31  1645.85  1684.37
                             1707.56  1709.21  1735.52  1755.56  1770.15
                             1809.96  1815.62  1834.62  1866.31  1871.89
                             1916.04  1928.49  1948.73  1953.66  1971.30
                             1973.54  1982.77  1994.55  2003.09  2022.12
                             2095.50  2158.79  2166.92  2177.86  2188.57
                             2193.87  2201.03  2204.05  2211.24  2222.88
                             2251.40  2358.12  2414.25  3390.53  4352.82
                             4398.93  4400.44  4408.60  4411.01  4423.43
                             4436.85  4452.19  4464.96  4468.01  4493.84
                             4539.41  4548.43  4563.54  4574.56  4623.54
                             4629.48  4651.25  5056.24

 Zero-point correction=                           0.325808 (Hartree/Particle)
 Thermal correction to Energy=                    0.342324
 Thermal correction to Enthalpy=                  0.343268
 Thermal correction to Gibbs Free Energy=         0.278510
 Sum of electronic and zero-point Energies=           -822.210905
 Sum of electronic and thermal Energies=              -822.194389
 Sum of electronic and thermal Enthalpies=            -822.193445
 Sum of electronic and thermal Free Energies=         -822.258203

                     E (Thermal)             CV                S
                      KCal/Mol        Cal/Mol-Kelvin    Cal/Mol-Kelvin
 Total                  214.812             65.781            136.295
 Electronic               0.000              0.000              0.000
 Translational            0.889              2.981             42.533
 Rotational               0.889              2.981             33.442
 Vibrational            213.034             59.819             60.320
 Vibration     1          0.592              1.987             11.328
 Vibration     2          0.594              1.983              5.576
 Vibration     3          0.596              1.976              4.644
 Vibration     4          0.599              1.966              4.055
 Vibration     5          0.606              1.943              3.303
 Vibration     6          0.615              1.914              2.809
 Vibration     7          0.615              1.913              2.795
 Vibration     8          0.630              1.865              2.315
 Vibration     9          0.646              1.815              1.981
 Vibration    10          0.654              1.789              1.848
 Vibration    11          0.668              1.748              1.670
 Vibration    12          0.680              1.710              1.532
 Vibration    13          0.706              1.634              1.307
 Vibration    14          0.723              1.588              1.194
 Vibration    15          0.743              1.532              1.076
 Vibration    16          0.756              1.497              1.011
 Vibration    17          0.772              1.454              0.936
 Vibration    18          0.781              1.432              0.900
 Vibration    19          0.800              1.384              0.828
 Vibration    20          0.820              1.334              0.759
 Vibration    21          0.849              1.264              0.674
 Vibration    22          0.869              1.220              0.625
 Vibration    23          0.900              1.151              0.555
 Vibration    24          0.930              1.088              0.497
 Vibration    25          0.942              1.065              0.477
 Vibration    26          0.964              1.020              0.440
 Vibration    27          0.974              1.001              0.425

                           ! Non-Optimized Parameters !
 Normal termination of Gaussian 16 at Mon Dec 14 18:20:28 2020.

 ----------------------------------------------------------------------
 # B3LYP/6-311++G(d,p) empiricaldispersion=gd3bj scf=xqc pop=npa geom=c
 heck
 ----------------------------------------------------------------------

 --------------------------------------
 CID_54886510_JID_9901_Energie_neutraal
 --------------------------------------
 Structure from the checkpoint file:  "JID_9901.chk"
 Charge =  0 Multiplicity = 1

 SCF Done:  E(RB3LYP) =  -822.756884666     A.U. after   16 cycles
 Normal termination of Gaussian 16 at Mon Dec 14 18:30:05 2020.

 ----------------------------------------------------------------------
 # B3LYP/6-311++G(d,p) empiricaldispersion=gd3bj scf=xqc pop=npa geom=c
 heck
 ----------------------------------------------------------------------

 ------------------------------------
 CID_54886510_JID_9901_Energie_kation
 ------------------------------------
 Structure from the checkpoint file:  "JID_9901.chk"
 Charge =  1 Multiplicity = 2

 SCF Done:  E(UB3LYP) =  -822.479135647     A.U. after   28 cycles
 Normal termination of Gaussian 16 at Mon Dec 14 18:54:02 2020.
 Gaussian 16:  ES64L-G16RevA.03 25-Dec-2016

 ----------------------------------------------------------------------
 # B3LYP/6-311++G(d,p) empiricaldispersion=gd3bj scf=xqc pop=npa geom=c
 heck
 ----------------------------------------------------------------------

 -----------------------------------
 CID_54886510_JID_9901_Energie_anion
 -----------------------------------
 Structure from the checkpoint file:  "JID_9901.chk"
 Charge = -1 Multiplicity = 2

                         Standard orientation:
 ---------------------------------------------------------------------
 Center     Atomic      Atomic             Coordinates (Angstroms)
 Number     Number       Type             X           Y           Z
 ---------------------------------------------------------------------
      1          6           0       -5.459094   -0.817580   -0.690589
      2          8           0       -4.740449   -0.328538    0.429373
      3          6           0       -3.469285    0.122366    0.222543
      4          6           0       -2.820951    0.142592   -1.015973
      5          6           0       -1.518676    0.639020   -1.112071
      6          6           0       -0.820789    1.074674    0.017955
      7          6           0       -1.495505    1.065544    1.251491
      8          6           0       -2.800481    0.606746    1.355519
      9          7           0        0.495442    1.610383   -0.093913
     10          6           0        1.702940    0.750723   -0.160451
     11          6           0        1.671931   -0.277877   -1.356714
     12          7           0        2.166378   -1.592281   -0.966116
     13          6           0        3.503156   -1.470650   -0.364024
     14          6           0        3.455790   -0.674015    0.975913
     15          6           0        2.036316   -0.087723    1.121763
     16          6           0        1.064037   -1.275817    1.257122
     17          6           0        1.237612   -2.187456    0.006922
     18          6           0        2.802233    1.712601   -0.385042
     19          7           0        3.674529    2.459657   -0.554063
     20          1           0       -6.431178   -1.133745   -0.308993
     21          1           0       -4.951759   -1.675978   -1.150602
     22          1           0       -5.602761   -0.036715   -1.449055
     23          1           0       -3.324181   -0.191813   -1.915226
     24          1           0       -1.053465    0.723279   -2.087930
     25          1           0       -0.978469    1.416240    2.141665
     26          1           0       -3.321132    0.602177    2.307558
     27          1           0        0.645635    2.305519    0.632495
     28          1           0        0.643497   -0.394498   -1.695517
     29          1           0        2.263172    0.102457   -2.194126
     30          1           0        3.901590   -2.478953   -0.211028
     31          1           0        4.150295   -0.969394   -1.091194
     32          1           0        4.214548    0.113096    0.993285
     33          1           0        3.649903   -1.331598    1.830894
     34          1           0        1.974926    0.568971    1.996920
     35          1           0        0.032701   -0.937266    1.356085
     36          1           0        1.313196   -1.818864    2.176112
     37          1           0        0.277708   -2.345476   -0.495587
     38          1           0        1.629516   -3.172346    0.281727
 ---------------------------------------------------------------------

 SCF Done:  E(UB3LYP) =  -822.748588974     A.U. after   33 cycles
 SCF Done:  E(UB3LYP) =  -822.748588974     a.u. after    1 cycles

 The electronic state is 2-A.
 Alpha  occ. eigenvalues --  -19.06783 -14.23813 -14.23039 -14.22530 -10.16904
 Alpha  occ. eigenvalues --  -10.14879 -10.13345 -10.12626 -10.12231 -10.12066
 Alpha  occ. eigenvalues --  -10.11136 -10.10641 -10.10275 -10.09194 -10.09182
 Alpha  occ. eigenvalues --  -10.08996 -10.08885 -10.08453 -10.07872  -0.98404
 Alpha  occ. eigenvalues --   -0.87359  -0.84569  -0.82239  -0.76645  -0.71935
 Alpha  occ. eigenvalues --   -0.68943  -0.67220  -0.66908  -0.65271  -0.61040
 Alpha  occ. eigenvalues --   -0.57070  -0.54569  -0.54433  -0.53144  -0.50507
 Alpha  occ. eigenvalues --   -0.46622  -0.45288  -0.44131  -0.43165  -0.42160
 Alpha  occ. eigenvalues --   -0.41184  -0.39444  -0.38322  -0.37822  -0.36682
 Alpha  occ. eigenvalues --   -0.34553  -0.34229  -0.33242  -0.32872  -0.32559
 Alpha  occ. eigenvalues --   -0.32339  -0.31222  -0.30385  -0.29709  -0.29395
 Alpha  occ. eigenvalues --   -0.28881  -0.28239  -0.27617  -0.26357  -0.25824
 Alpha  occ. eigenvalues --   -0.25262  -0.24730  -0.24244  -0.23853  -0.22993
 Alpha  occ. eigenvalues --   -0.18100  -0.17442  -0.13743  -0.12500   0.03643
 Alpha virt. eigenvalues --    0.05137   0.06327   0.06539   0.06984   0.07627
 Alpha virt. eigenvalues --    0.07932   0.08107   0.08641   0.09002   0.09232
 Alpha virt. eigenvalues --    0.09479   0.10098   0.10592   0.10837   0.10955

  Beta  occ. eigenvalues --  -19.06772 -14.23806 -14.23034 -14.22531 -10.16899
  Beta  occ. eigenvalues --  -10.14873 -10.13295 -10.12625 -10.12227 -10.12054
  Beta  occ. eigenvalues --  -10.11127 -10.10627 -10.10264 -10.09183 -10.09160
  Beta  occ. eigenvalues --  -10.08980 -10.08883 -10.08438 -10.07857  -0.98376
  Beta  occ. eigenvalues --   -0.87345  -0.84554  -0.82226  -0.76623  -0.71910
  Beta  occ. eigenvalues --   -0.68919  -0.67189  -0.66881  -0.65233  -0.60988
  Beta  occ. eigenvalues --   -0.57040  -0.54534  -0.54402  -0.53105  -0.50469
  Beta  occ. eigenvalues --   -0.46590  -0.45247  -0.44092  -0.43135  -0.42134
  Beta  occ. eigenvalues --   -0.41155  -0.39406  -0.38283  -0.37800  -0.36643
  Beta  occ. eigenvalues --   -0.34526  -0.34200  -0.33217  -0.32845  -0.32532
  Beta  occ. eigenvalues --   -0.32310  -0.31195  -0.30363  -0.29682  -0.29363
  Beta  occ. eigenvalues --   -0.28869  -0.28201  -0.27583  -0.26338  -0.25805
  Beta  occ. eigenvalues --   -0.25244  -0.24690  -0.24217  -0.23831  -0.22975
  Beta  occ. eigenvalues --   -0.18081  -0.17413  -0.13726  -0.12472
  Beta virt. eigenvalues --    0.05762   0.06290   0.06561   0.07007   0.07385
  Beta virt. eigenvalues --    0.07932   0.08150   0.08444   0.08999   0.09405
  Beta virt. eigenvalues --    0.09603   0.09713   0.10312   0.10788   0.10972

 Mulliken charges and spin densities:
               1          2
     1  C    1.015035  -1.356788
     2  O   -0.196656   0.054579
     3  C   -0.081038  -0.697629
     4  C    0.443291  -0.337467
     5  C   -0.249084   0.466706
     6  C    0.532700  -0.847504
     7  C    0.436340  -0.327745
     8  C   -1.085869   0.790400
     9  N    0.094647   0.006160
    10  C    0.949285  -0.074940
    11  C   -1.093773   0.248979
    12  N    0.085642   0.013917
    13  C   -0.220131  -0.066947
    14  C    0.080837  -0.753983
    15  C   -0.633281   1.038161
    16  C   -0.635123  -0.049790
    17  C    0.384020  -0.693817
    18  C    1.130912  -1.561067
    19  N   -0.307239   0.064839
    20  H   -0.431134   0.605317
    21  H   -0.276949   0.437904
    22  H   -0.195898   0.352259
    23  H   -0.337079   0.558422
    24  H   -0.086227   0.266519
    25  H   -0.505085   0.676557
    26  H   -0.058979   0.261719
    27  H    0.254727   0.007459
    28  H    0.067510   0.004828
    29  H    0.048145   0.165866
    30  H   -0.071873   0.240481
    31  H    0.168490   0.004601
    32  H    0.090984   0.082527
    33  H   -0.057672   0.206761
    34  H   -0.388848   0.671345
    35  H    0.601901  -0.475017
    36  H   -0.474448   0.675422
    37  H   -0.041439   0.216384
    38  H    0.043362   0.124579
 Sum of Mulliken charges =  -1.00000   1.00000

 Dipole moment (field-independent basis, Debye):
    X=              3.2969    Y=              0.1288    Z=             -0.5197  Tot=              3.3401
 Quadrupole moment (field-independent basis, Debye-Ang):
   XX=           -219.2204   YY=           -162.8835   ZZ=           -158.3935
   XY=            -13.4928   XZ=            -11.2236   YZ=             -0.0818

 Summary of Natural Population Analysis:

                                       Natural Population
                Natural  -----------------------------------------------
    Atom  No    Charge         Core      Valence    Rydberg      Total
 -----------------------------------------------------------------------
      C    1   -0.10103      0.99960     2.09236    0.00908     3.10103
      O    2   -0.27246      0.99986     3.26258    0.01002     4.27246
      C    3    0.15866      0.99938     1.82845    0.01351     2.84134
      C    4   -0.13854      0.99952     2.13024    0.00878     3.13854
      C    5   -0.09993      0.99952     2.09073    0.00968     3.09993
      C    6    0.06027      0.99945     1.92839    0.01190     2.93973
      C    7   -0.10605      0.99952     2.09643    0.01011     3.10605
      C    8   -0.11445      0.99952     2.10540    0.00953     3.11445
      N    9   -0.33075      0.99968     2.81797    0.01310     3.83075
      C   10    0.01021      0.99944     1.97604    0.01431     2.98979
      C   11   -0.08399      0.99957     2.07119    0.01323     3.08399
      N   12   -0.26992      0.99975     2.75790    0.01228     3.76992
      C   13   -0.09021      0.99962     2.07927    0.01132     3.09021
      C   14   -0.20891      0.99961     2.20009    0.00921     3.20891
      C   15   -0.10809      0.99957     2.09524    0.01328     3.10809
      C   16   -0.20865      0.99960     2.19972    0.00932     3.20865
      C   17   -0.08873      0.99962     2.07793    0.01118     3.08873
      C   18    0.16714      0.99961     1.81174    0.02151     2.83286
      N   19   -0.18365      0.99979     2.67236    0.01150     3.68365
      H   20    0.09495      0.00000     0.40371    0.00134     0.40505
      H   21    0.08699      0.00000     0.41091    0.00209     0.41301
      H   22    0.08517      0.00000     0.41308    0.00175     0.41483
      H   23    0.10917      0.00000     0.38938    0.00145     0.39083
      H   24    0.10414      0.00000     0.39440    0.00146     0.39586
      H   25    0.10455      0.00000     0.39391    0.00154     0.39545
      H   26    0.10762      0.00000     0.39115    0.00123     0.39238
      H   27    0.18301      0.00000     0.31418    0.00282     0.31699
      H   28    0.10872      0.00000     0.38959    0.00169     0.39128
      H   29    0.10276      0.00000     0.39616    0.00108     0.39724
      H   30    0.09786      0.00000     0.40118    0.00095     0.40214
      H   31    0.09649      0.00000     0.40255    0.00097     0.40351
      H   32    0.10647      0.00000     0.39244    0.00109     0.39353
      H   33    0.10355      0.00000     0.39495    0.00150     0.39645
      H   34    0.10858      0.00000     0.38849    0.00293     0.39142
      H   35    0.10929      0.00000     0.38853    0.00218     0.39071
      H   36    0.10360      0.00000     0.39477    0.00163     0.39640
      H   37    0.09918      0.00000     0.39956    0.00126     0.40082
      H   38    0.09699      0.00000     0.40196    0.00105     0.40301
 =======================================================================
   * Total *   -0.00000     18.99222    49.75493    0.25285    69.00000

 Normal termination of Gaussian 16 at Mon Dec 14 19:21:20 2020.
