 Gaussian 16, Revision A.03,

 -----------------------------------------------------------
 # opt freq B3LYP/6-31G(d) empiricaldispersion=gd3bj scf=xqc
 -----------------------------------------------------------

 ------------------------------
 CID_18973878_JID_9775_neutraal
 ------------------------------
 Symbolic Z-matrix:
 Charge =  0 Multiplicity = 1

 SCF Done:  E(RB3LYP) =  -805.310899568     A.U. after   14 cycles
 SCF Done:  E(RB3LYP) =  -805.311866356     A.U. after   13 cycles
 SCF Done:  E(RB3LYP) =  -805.307248595     A.U. after   13 cycles
 SCF Done:  E(RB3LYP) =  -805.314561282     A.U. after   12 cycles
 SCF Done:  E(RB3LYP) =  -805.316272859     A.U. after   13 cycles
 SCF Done:  E(RB3LYP) =  -805.317651261     A.U. after   12 cycles
 SCF Done:  E(RB3LYP) =  -805.316379377     A.U. after   13 cycles
 SCF Done:  E(RB3LYP) =  -805.320624248     A.U. after   13 cycles
 SCF Done:  E(RB3LYP) =  -805.321260515     A.U. after   13 cycles
 SCF Done:  E(RB3LYP) =  -805.322738071     A.U. after   12 cycles
 SCF Done:  E(RB3LYP) =  -805.331127394     A.U. after    9 cycles
 SCF Done:  E(RB3LYP) =  -805.331127800     A.U. after    8 cycles
 SCF Done:  E(RB3LYP) =  -805.331127986     A.U. after    7 cycles
 SCF Done:  E(RB3LYP) =  -805.331128054     A.U. after    7 cycles
 Optimization completed.
    -- Stationary point found.
 Normal termination of Gaussian 16 at Sun Dec 13 16:42:52 2020.

 --------------------------------------------------------------------
 #N Geom=AllCheck Guess=TCheck SCRF=Check GenChk RB3LYP/6-31G(d) Freq
 --------------------------------------------------------------------

 Structure from the checkpoint file:  "JID_9775.chk"
 ------------------------------
 CID_18973878_JID_9775_neutraal
 ------------------------------
 Charge =  0 Multiplicity = 1

 SCF Done:  E(RB3LYP) =  -805.331128054     A.U. after    1 cycles

  Exact polarizability: 196.291  11.337 174.385 -20.290  10.586 141.390
 Approx polarizability: 287.456  21.238 282.997 -39.391  25.641 237.821

                      1                      2                      3
                      A                      A                      A
 Frequencies --     14.5758                30.5239                42.0064
 Red. masses --      4.3622                 3.7689                 5.3999
 Frc consts  --      0.0005                 0.0021                 0.0056
 IR Inten    --      0.0691                 0.0561                 1.2731

                      4                      5                      6
                      A                      A                      A
 Frequencies --     59.7091                96.9777               105.5808
 Red. masses --      4.3451                 4.5181                 4.1086
 Frc consts  --      0.0091                 0.0250                 0.0270
 IR Inten    --      0.5340                 2.5293                 0.6827

                      7                      8                      9
                      A                      A                      A
 Frequencies --    110.7584               143.8350               175.7645
 Red. masses --      3.9312                 3.8629                 4.7458
 Frc consts  --      0.0284                 0.0471                 0.0864
 IR Inten    --      2.0382                 0.1452                 2.9476

                     10                     11                     12
                      A                      A                      A
 Frequencies --    230.0120               246.2493               259.5418
 Red. masses --      2.9938                 3.8804                 1.2078
 Frc consts  --      0.0933                 0.1386                 0.0479
 IR Inten    --      0.6153                 4.3007                 0.8741

                     13                     14                     15
                      A                      A                      A
 Frequencies --    302.9483               333.2435               354.5916
 Red. masses --      3.1285                 2.7353                 2.9211
 Frc consts  --      0.1692                 0.1790                 0.2164
 IR Inten    --      0.9970                 0.4763                 2.3635

                     16                     17                     18
                      A                      A                      A
 Frequencies --    375.7429               390.5334               415.3095
 Red. masses --      3.3775                 1.4069                 2.9584
 Frc consts  --      0.2809                 0.1264                 0.3006
 IR Inten    --      1.2981                22.8844                 0.3857

                     19                     20                     21
                      A                      A                      A
 Frequencies --    422.9074               470.8770               493.0573
 Red. masses --      3.7052                 2.9341                 4.1889
 Frc consts  --      0.3904                 0.3833                 0.6000
 IR Inten    --     21.6622                 3.8402                 3.5692

                     22                     23                     24
                      A                      A                      A
 Frequencies --    522.3570               531.5251               562.3549
 Red. masses --      3.8014                 4.7706                 3.4819
 Frc consts  --      0.6111                 0.7941                 0.6488
 IR Inten    --     30.9928                 1.4503                 4.0235

                     25                     26                     27
                      A                      A                      A
 Frequencies --    578.8473               601.4673               624.9929
 Red. masses --      3.9378                 3.7415                 3.8369
 Frc consts  --      0.7774                 0.7975                 0.8830
 IR Inten    --      4.3262                 0.9113                21.2538

                     28                     29                     30
                      A                      A                      A
 Frequencies --    637.5648               667.1050               713.7975
 Red. masses --      6.2334                 2.3315                 1.7932
 Frc consts  --      1.4929                 0.6113                 0.5383
 IR Inten    --      0.1470               123.6523                52.2875

                     31                     32                     33
                      A                      A                      A
 Frequencies --    715.2513               757.7690               764.7907
 Red. masses --      2.0280                 2.7157                 2.2294
 Frc consts  --      0.6113                 0.9188                 0.7683
 IR Inten    --    132.0883                83.9436                 4.1545

                     34                     35                     36
                      A                      A                      A
 Frequencies --    774.9165               785.3575               826.2622
 Red. masses --      2.3428                 1.7494                 3.2847
 Frc consts  --      0.8289                 0.6357                 1.3213
 IR Inten    --     26.0271                40.5106                26.2279

                     37                     38                     39
                      A                      A                      A
 Frequencies --    838.0416               847.9325               860.4848
 Red. masses --      3.1582                 1.2780                 1.2647
 Frc consts  --      1.3068                 0.5414                 0.5517
 IR Inten    --      6.0652                16.6893                 0.2474

                     40                     41                     42
                      A                      A                      A
 Frequencies --    863.7981               886.7012               927.9702
 Red. masses --      2.3862                 1.4768                 1.4421
 Frc consts  --      1.0490                 0.6841                 0.7317
 IR Inten    --      5.6998                 0.6018                10.3433

                     43                     44                     45
                      A                      A                      A
 Frequencies --    952.6118               966.7232               982.4742
 Red. masses --      1.3659                 1.3558                 1.2575
 Frc consts  --      0.7303                 0.7466                 0.7152
 IR Inten    --      0.4144                 0.0587                 0.3006

                     46                     47                     48
                      A                      A                      A
 Frequencies --    996.3962              1005.5215              1011.7131
 Red. masses --      1.2826                 1.9785                 4.3964
 Frc consts  --      0.7502                 1.1786                 2.6513
 IR Inten    --      3.6269                10.2363                72.7773

                     49                     50                     51
                      A                      A                      A
 Frequencies --   1017.6749              1024.3165              1060.2624
 Red. masses --      2.1432                 6.1805                 2.2020
 Frc consts  --      1.3078                 3.8207                 1.4584
 IR Inten    --      9.8041                 2.1495                 0.3703

                     52                     53                     54
                      A                      A                      A
 Frequencies --   1069.6246              1092.7945              1106.3444
 Red. masses --      2.2089                 1.9819                 1.8979
 Frc consts  --      1.4890                 1.3945                 1.3687
 IR Inten    --     11.2642                 1.5316                21.8702

                     55                     56                     57
                      A                      A                      A
 Frequencies --   1122.1403              1141.2779              1156.6714
 Red. masses --      1.5102                 1.8171                 1.8244
 Frc consts  --      1.1204                 1.3945                 1.4381
 IR Inten    --      2.5394                24.8023                46.3938

                     58                     59                     60
                      A                      A                      A
 Frequencies --   1192.2083              1194.4115              1194.5702
 Red. masses --      1.2108                 1.1115                 1.2290
 Frc consts  --      1.0140                 0.9342                 1.0333
 IR Inten    --     15.9629                 2.0375                21.5458

                     61                     62                     63
                      A                      A                      A
 Frequencies --   1213.9043              1219.0431              1241.5378
 Red. masses --      1.1548                 2.0974                 2.6410
 Frc consts  --      1.0026                 1.8364                 2.3985
 IR Inten    --      4.7630                25.9184                10.0743

                     64                     65                     66
                      A                      A                      A
 Frequencies --   1250.0368              1281.2241              1291.4096
 Red. masses --      2.4953                 1.5322                 1.4161
 Frc consts  --      2.2973                 1.4819                 1.3915
 IR Inten    --     87.4791                 3.7483                42.6081

                     67                     68                     69
                      A                      A                      A
 Frequencies --   1332.4361              1339.7691              1366.7433
 Red. masses --      3.2771                 1.3519                 4.6811
 Frc consts  --      3.4279                 1.4298                 5.1519
 IR Inten    --      2.0353                14.1233                 0.7233

                     70                     71                     72
                      A                      A                      A
 Frequencies --   1369.4121              1370.3802              1412.1356
 Red. masses --      1.7552                 1.3584                 1.3397
 Frc consts  --      1.9393                 1.5030                 1.5741
 IR Inten    --      2.7064                 2.6482                12.6625

                     73                     74                     75
                      A                      A                      A
 Frequencies --   1433.2103              1446.3709              1494.5868
 Red. masses --      1.2231                 2.3874                 2.1789
 Frc consts  --      1.4802                 2.9427                 2.8677
 IR Inten    --      9.7553                73.2610                13.0542

                     76                     77                     78
                      A                      A                      A
 Frequencies --   1504.4845              1515.9645              1528.3464
 Red. masses --      2.1891                 1.1750                 1.0807
 Frc consts  --      2.9194                 1.5910                 1.4872
 IR Inten    --      6.2326                 3.1275                 6.1662

                     79                     80                     81
                      A                      A                      A
 Frequencies --   1532.0290              1539.3207              1549.4619
 Red. masses --      1.0717                 2.1936                 2.2065
 Frc consts  --      1.4820                 3.0624                 3.1212
 IR Inten    --      4.2848                44.0224                 3.4969

                     82                     83                     84
                      A                      A                      A
 Frequencies --   1633.5688              1649.5275              1659.3576
 Red. masses --      5.9613                 5.5922                 3.8503
 Frc consts  --      9.3727                 8.9650                 6.2463
 IR Inten    --      4.5684                 0.4927                 5.1100

                     85                     86                     87
                      A                      A                      A
 Frequencies --   1663.7388              1669.1972              1735.2948
 Red. masses --      1.4770                 5.5932                 4.6357
 Frc consts  --      2.4088                 9.1818                 8.2245
 IR Inten    --     55.3263                 0.1367               181.6359

                     88                     89                     90
                      A                      A                      A
 Frequencies --   3033.2953              3058.6942              3079.0066
 Red. masses --      1.0826                 1.0362                 1.0614
 Frc consts  --      5.8685                 5.7117                 5.9286
 IR Inten    --     11.7583                12.5257                40.4692

                     91                     92                     93
                      A                      A                      A
 Frequencies --   3128.6736              3134.7288              3141.0148
 Red. masses --      1.1019                 1.1015                 1.1036
 Frc consts  --      6.3550                 6.3770                 6.4149
 IR Inten    --     35.7109                25.6252                 7.5158

                     94                     95                     96
                      A                      A                      A
 Frequencies --   3173.5707              3179.9560              3183.3176
 Red. masses --      1.0876                 1.0853                 1.0875
 Frc consts  --      6.4538                 6.4662                 6.4930
 IR Inten    --     10.2992                 5.0189                 1.7671

                     97                     98                     99
                      A                      A                      A
 Frequencies --   3192.3428              3192.8274              3201.4109
 Red. masses --      1.0906                 1.0884                 1.0942
 Frc consts  --      6.5481                 6.5374                 6.6076
 IR Inten    --     12.2293                 8.6768                36.4415

                    100                    101                    102
                      A                      A                      A
 Frequencies --   3208.6980              3211.7268              3228.9690
 Red. masses --      1.0950                 1.0980                 1.0940
 Frc consts  --      6.6424                 6.6734                 6.7203
 IR Inten    --     27.3175                19.7006                 6.2911

                    103                    104                    105
                      A                      A                      A
 Frequencies --   3496.9940              3542.9386              3646.7677
 Red. masses --      1.0741                 1.0474                 1.0980
 Frc consts  --      7.7393                 7.7460                 8.6030
 IR Inten    --      0.7234                 9.2337                16.0912

 - Thermochemistry -
 -------------------
 Temperature   298.150 Kelvin.  Pressure   1.00000 Atm.
 Atom     1 has atomic number  6 and mass  12.00000

 Molecular mass:   254.14191 amu.
 Principal axes and moments of inertia in atomic units:
                           1         2         3
     Eigenvalues --  3050.769256477.190467830.71439
           X            0.99994   0.00186  -0.01073
           Y           -0.00182   0.99999   0.00416
           Z            0.01074  -0.00414   0.99993
 This molecule is an asymmetric top.
 Rotational symmetry number  1.
 Warning -- assumption of classical behavior for rotation
           may cause significant error
 Rotational temperatures (Kelvin)      0.02839     0.01337     0.01106
 Rotational constants (GHZ):           0.59157     0.27863     0.23047
 Zero-point vibrational energy     819018.5 (Joules/Mol)
                                  195.75011 (Kcal/Mol)
 Warning -- explicit consideration of  26 degrees of freedom as
           vibrations may cause significant error
 Vibrational temperatures:     20.97    43.92    60.44    85.91   139.53
          (Kelvin)            151.91   159.36   206.95   252.89   330.94
                              354.30   373.42   435.88   479.46   510.18
                              540.61   561.89   597.54   608.47   677.49
                              709.40   751.56   764.75   809.10   832.83
                              865.38   899.23   917.31   959.82  1027.00
                             1029.09  1090.26  1100.36  1114.93  1129.95
                             1188.81  1205.75  1219.99  1238.05  1242.81
                             1275.77  1335.14  1370.60  1390.90  1413.56
                             1433.59  1446.72  1455.63  1464.21  1473.76
                             1525.48  1538.95  1572.29  1591.78  1614.51
                             1642.04  1664.19  1715.32  1718.49  1718.72
                             1746.54  1753.93  1786.30  1798.52  1843.40
                             1858.05  1917.08  1927.63  1966.44  1970.28
                             1971.67  2031.75  2062.07  2081.01  2150.38
                             2164.62  2181.13  2198.95  2204.25  2214.74
                             2229.33  2350.34  2373.30  2387.45  2393.75
                             2401.60  2496.70  4364.24  4400.78  4430.00
                             4501.46  4510.18  4519.22  4566.06  4575.25
                             4580.08  4593.07  4593.77  4606.12  4616.60
                             4620.96  4645.77  5031.39  5097.50  5246.89

 Zero-point correction=                           0.311948 (Hartree/Particle)
 Thermal correction to Energy=                    0.329063
 Thermal correction to Enthalpy=                  0.330008
 Thermal correction to Gibbs Free Energy=         0.265199
 Sum of electronic and zero-point Energies=           -805.019180
 Sum of electronic and thermal Energies=              -805.002065
 Sum of electronic and thermal Enthalpies=            -805.001120
 Sum of electronic and thermal Free Energies=         -805.065929

                     E (Thermal)             CV                S
                      KCal/Mol        Cal/Mol-Kelvin    Cal/Mol-Kelvin
 Total                  206.490             67.111            136.401
 Electronic               0.000              0.000              0.000
 Translational            0.889              2.981             42.498
 Rotational               0.889              2.981             33.403
 Vibrational            204.713             61.150             60.500
 Vibration     1          0.593              1.986              7.263
 Vibration     2          0.594              1.984              5.795
 Vibration     3          0.595              1.980              5.162
 Vibration     4          0.597              1.974              4.467
 Vibration     5          0.603              1.951              3.514
 Vibration     6          0.605              1.945              3.349
 Vibration     7          0.607              1.941              3.256
 Vibration     8          0.616              1.909              2.752
 Vibration     9          0.628              1.872              2.373
 Vibration    10          0.652              1.795              1.879
 Vibration    11          0.661              1.769              1.757
 Vibration    12          0.668              1.747              1.665
 Vibration    13          0.694              1.668              1.401
 Vibration    14          0.715              1.609              1.244
 Vibration    15          0.730              1.566              1.146
 Vibration    16          0.747              1.522              1.056
 Vibration    17          0.758              1.490              0.998
 Vibration    18          0.779              1.437              0.908
 Vibration    19          0.785              1.420              0.882
 Vibration    20          0.828              1.315              0.735
 Vibration    21          0.849              1.265              0.676
 Vibration    22          0.877              1.200              0.605
 Vibration    23          0.886              1.180              0.584
 Vibration    24          0.918              1.113              0.519
 Vibration    25          0.935              1.077              0.488
 Vibration    26          0.960              1.029              0.447

                           ! Non-Optimized Parameters !
 Normal termination of Gaussian 16 at Sun Dec 13 17:05:03 2020.

 ----------------------------------------------------------------------
 # B3LYP/6-311++G(d,p) empiricaldispersion=gd3bj scf=xqc pop=npa geom=c
 heck
 ----------------------------------------------------------------------

 --------------------------------------
 CID_18973878_JID_9775_Energie_neutraal
 --------------------------------------
 Structure from the checkpoint file:  "JID_9775.chk"
 Charge =  0 Multiplicity = 1

 SCF Done:  E(RB3LYP) =  -805.555359089     A.U. after   16 cycles
 Normal termination of Gaussian 16 at Sun Dec 13 17:15:15 2020.

 ----------------------------------------------------------------------
 # B3LYP/6-311++G(d,p) empiricaldispersion=gd3bj scf=xqc pop=npa geom=c
 heck
 ----------------------------------------------------------------------

 ------------------------------------
 CID_18973878_JID_9775_Energie_kation
 ------------------------------------
 Structure from the checkpoint file:  "JID_9775.chk"
 Charge =  1 Multiplicity = 2

 SCF Done:  E(UB3LYP) =  -805.248156989     A.U. after   33 cycles
 SCF Done:  E(UB3LYP) =  -805.250483727     a.u. after   12 cycles
 Normal termination of Gaussian 16 at Sun Dec 13 21:57:34 2020.
 Gaussian 16:  ES64L-G16RevA.03 25-Dec-2016

 ----------------------------------------------------------------------
 # B3LYP/6-311++G(d,p) empiricaldispersion=gd3bj scf=xqc pop=npa geom=c
 heck
 ----------------------------------------------------------------------

 -----------------------------------
 CID_18973878_JID_9775_Energie_anion
 -----------------------------------
 Structure from the checkpoint file:  "JID_9775.chk"
 Charge = -1 Multiplicity = 2

                         Standard orientation:
 ---------------------------------------------------------------------
 Center     Atomic      Atomic             Coordinates (Angstroms)
 Number     Number       Type             X           Y           Z
 ---------------------------------------------------------------------
      1          6           0       -2.477648   -0.365615    2.101142
      2          6           0       -2.694215   -0.099503    0.602975
      3          6           0       -1.687145    0.920782    0.078605
      4          6           0       -1.943791    2.281057    0.305855
      5          6           0       -1.054830    3.275848   -0.091641
      6          6           0        0.124642    2.923675   -0.749731
      7          6           0        0.398079    1.582747   -1.001182
      8          6           0       -0.494362    0.587589   -0.588314
      9          8           0       -0.221796   -0.721553   -0.927582
     10          6           0        0.531309   -1.487798    0.034294
     11          6           0        1.951846   -1.004642    0.162405
     12          6           0        2.350895   -0.245989    1.266016
     13          6           0        3.650905    0.254393    1.352570
     14          6           0        4.562836    0.003117    0.327864
     15          6           0        4.171861   -0.751169   -0.781953
     16          6           0        2.874166   -1.251365   -0.862040
     17          6           0       -2.791607   -1.381889   -0.231035
     18          7           0       -2.668601   -2.587308    0.184464
     19          7           0       -3.172258   -1.150919   -1.544304
     20          1           0       -1.511659   -0.842665    2.295521
     21          1           0       -3.268323   -1.008077    2.502801
     22          1           0       -2.493215    0.579052    2.652188
     23          1           0       -3.680335    0.374204    0.503855
     24          1           0       -2.868761    2.557260    0.807272
     25          1           0       -1.286747    4.319212    0.101138
     26          1           0        0.825081    3.688655   -1.072096
     27          1           0        1.300144    1.278593   -1.519949
     28          1           0        0.025939   -1.461491    1.005090
     29          1           0        0.478328   -2.510092   -0.345778
     30          1           0        1.634694   -0.039351    2.057334
     31          1           0        3.948677    0.842761    2.215885
     32          1           0        5.575295    0.391818    0.391936
     33          1           0        4.880471   -0.950749   -1.580979
     34          1           0        2.564321   -1.831536   -1.727645
     35          1           0       -2.477744   -2.606259    1.185978
     36          1           0       -2.776925   -0.316876   -1.962061
     37          1           0       -3.046504   -1.971863   -2.125945
 ---------------------------------------------------------------------

 SCF Done:  E(UB3LYP) =  -805.544522197     A.U. after   33 cycles
 SCF Done:  E(UB3LYP) =  -805.544522196     a.u. after    1 cycles

 The electronic state is 2-A.
 Alpha  occ. eigenvalues --  -19.04850 -14.22757 -14.18405 -10.15288 -10.13789
 Alpha  occ. eigenvalues --  -10.13758 -10.10516 -10.09504 -10.09293 -10.08904
 Alpha  occ. eigenvalues --  -10.08793 -10.08783 -10.08722 -10.08608 -10.08227
 Alpha  occ. eigenvalues --  -10.08200 -10.08142 -10.08041 -10.07866  -0.96555
 Alpha  occ. eigenvalues --   -0.85643  -0.77397  -0.76682  -0.75969  -0.70708
 Alpha  occ. eigenvalues --   -0.68845  -0.66123  -0.65220  -0.64042  -0.59331
 Alpha  occ. eigenvalues --   -0.56985  -0.52475  -0.51724  -0.51589  -0.49528
 Alpha  occ. eigenvalues --   -0.47436  -0.44440  -0.43007  -0.42409  -0.39832
 Alpha  occ. eigenvalues --   -0.39516  -0.38660  -0.37499  -0.36673  -0.36053
 Alpha  occ. eigenvalues --   -0.35643  -0.35208  -0.33890  -0.33679  -0.33188
 Alpha  occ. eigenvalues --   -0.31184  -0.29331  -0.29228  -0.28451  -0.28105
 Alpha  occ. eigenvalues --   -0.27581  -0.27148  -0.26344  -0.25861  -0.24694
 Alpha  occ. eigenvalues --   -0.24083  -0.19130  -0.17582  -0.17153  -0.16660
 Alpha  occ. eigenvalues --   -0.15966  -0.15884  -0.15308   0.03963
 Alpha virt. eigenvalues --    0.05541   0.06138   0.06699   0.06838   0.07079
 Alpha virt. eigenvalues --    0.07373   0.07579   0.07971   0.08222   0.08651
 Alpha virt. eigenvalues --    0.09271   0.09732   0.10141   0.10436   0.11115

  Beta  occ. eigenvalues --  -19.04844 -14.22756 -14.18400 -10.15283 -10.13784
  Beta  occ. eigenvalues --  -10.13765 -10.10508 -10.09478 -10.09289 -10.08894
  Beta  occ. eigenvalues --  -10.08789 -10.08759 -10.08697 -10.08580 -10.08202
  Beta  occ. eigenvalues --  -10.08157 -10.08118 -10.08008 -10.07833  -0.96543
  Beta  occ. eigenvalues --   -0.85634  -0.77356  -0.76623  -0.75960  -0.70654
  Beta  occ. eigenvalues --   -0.68809  -0.66076  -0.65152  -0.63976  -0.59293
  Beta  occ. eigenvalues --   -0.56932  -0.52422  -0.51636  -0.51557  -0.49489
  Beta  occ. eigenvalues --   -0.47414  -0.44409  -0.42974  -0.42361  -0.39782
  Beta  occ. eigenvalues --   -0.39481  -0.38638  -0.37455  -0.36646  -0.36023
  Beta  occ. eigenvalues --   -0.35604  -0.35177  -0.33838  -0.33641  -0.33152
  Beta  occ. eigenvalues --   -0.31132  -0.29283  -0.29183  -0.28419  -0.28048
  Beta  occ. eigenvalues --   -0.27526  -0.27105  -0.26288  -0.25816  -0.24640
  Beta  occ. eigenvalues --   -0.24043  -0.19102  -0.17569  -0.17079  -0.16550
  Beta  occ. eigenvalues --   -0.15873  -0.15762  -0.15222
  Beta virt. eigenvalues --    0.06024   0.06301   0.06516   0.06980   0.07199
  Beta virt. eigenvalues --    0.07369   0.07667   0.08044   0.08236   0.08352
  Beta virt. eigenvalues --    0.09014   0.09612   0.09933   0.10472   0.10657

 Mulliken charges and spin densities:
               1          2
     1  C    0.695130  -1.464729
     2  C    0.853529  -0.271627
     3  C   -0.279951   0.817340
     4  C   -0.031523  -0.353324
     5  C    0.217894  -0.780251
     6  C    0.580656  -0.981707
     7  C   -0.473601   0.342934
     8  C   -0.691537   0.690489
     9  O    0.055197   0.002060
    10  C    1.197311  -1.833437
    11  C   -0.015477   0.376651
    12  C   -0.881984   0.680046
    13  C    0.289307  -0.646383
    14  C    0.774705  -1.017620
    15  C    0.340811  -0.670186
    16  C   -1.078401   1.268251
    17  C   -0.487148  -0.161294
    18  N   -0.229140   0.019952
    19  N   -0.194796   0.007496
    20  H   -0.148627   0.303484
    21  H   -0.108340   0.255966
    22  H   -0.098591   0.259208
    23  H   -0.091219   0.360447
    24  H   -0.451881   0.622835
    25  H   -0.375413   0.541256
    26  H   -0.117848   0.281150
    27  H    0.154668   0.060938
    28  H    0.131605  -0.008313
    29  H    0.205922  -0.016256
    30  H   -0.008285   0.156942
    31  H   -0.466651   0.651400
    32  H   -0.523993   0.700069
    33  H   -0.366818   0.541050
    34  H   -0.002487   0.183838
    35  H    0.162548   0.041259
    36  H    0.222895   0.016320
    37  H    0.241536   0.023748
 Sum of Mulliken charges =  -1.00000   1.00000

 Dipole moment (field-independent basis, Debye):
    X=             -1.7516    Y=             -2.8228    Z=             -2.6602  Tot=              4.2559
 Quadrupole moment (field-independent basis, Debye-Ang):
   XX=           -212.5904   YY=           -166.1119   ZZ=           -145.4143
   XY=             -2.9391   XZ=              3.0123   YZ=             -3.8592

 Summary of Natural Population Analysis:

                                       Natural Population
                Natural  -----------------------------------------------
    Atom  No    Charge         Core      Valence    Rydberg      Total
 -----------------------------------------------------------------------
      C    1   -0.28510      0.99965     2.27844    0.00701     3.28510
      C    2   -0.15009      0.99951     2.13792    0.01266     3.15009
      C    3   -0.03427      0.99944     2.02309    0.01174     3.03427
      C    4   -0.08722      0.99952     2.07782    0.00988     3.08722
      C    5   -0.10452      0.99956     2.09525    0.00971     3.10452
      C    6   -0.09226      0.99956     2.08286    0.00983     3.09226
      C    7   -0.10739      0.99951     2.09836    0.00952     3.10739
      C    8    0.14473      0.99931     1.84101    0.01495     2.85527
      O    9   -0.29296      0.99986     3.28312    0.00998     4.29296
      C   10   -0.01372      0.99950     2.00231    0.01191     3.01372
      C   11   -0.03991      0.99950     2.03038    0.01004     3.03991
      C   12   -0.09325      0.99951     2.08409    0.00965     3.09325
      C   13   -0.09555      0.99956     2.08531    0.01068     3.09555
      C   14   -0.09677      0.99956     2.08699    0.01021     3.09677
      C   15   -0.10195      0.99956     2.09179    0.01060     3.10195
      C   16   -0.09242      0.99951     2.08286    0.01005     3.09242
      C   17    0.23779      0.99965     1.74193    0.02064     2.76221
      N   18   -0.36787      0.99970     2.86008    0.00810     3.86787
      N   19   -0.40131      0.99969     2.89380    0.00781     3.90131
      H   20    0.09651      0.00000     0.40204    0.00145     0.40349
      H   21    0.10197      0.00000     0.39687    0.00116     0.39803
      H   22    0.10818      0.00000     0.39076    0.00105     0.39182
      H   23    0.11481      0.00000     0.38278    0.00241     0.38519
      H   24    0.10096      0.00000     0.39691    0.00213     0.39904
      H   25    0.10228      0.00000     0.39654    0.00118     0.39772
      H   26    0.10159      0.00000     0.39753    0.00088     0.39841
      H   27    0.10922      0.00000     0.38909    0.00168     0.39078
      H   28    0.08534      0.00000     0.41261    0.00205     0.41466
      H   29    0.09819      0.00000     0.40066    0.00115     0.40181
      H   30    0.10294      0.00000     0.39573    0.00133     0.39706
      H   31    0.10321      0.00000     0.39551    0.00128     0.39679
      H   32    0.10320      0.00000     0.39506    0.00174     0.39680
      H   33    0.10161      0.00000     0.39728    0.00111     0.39839
      H   34    0.10108      0.00000     0.39793    0.00100     0.39892
      H   35    0.16540      0.00000     0.33232    0.00229     0.33460
      H   36    0.18936      0.00000     0.30891    0.00173     0.31064
      H   37    0.18818      0.00000     0.31016    0.00166     0.31182
 =======================================================================
   * Total *   -0.00000     18.99167    48.77608    0.23225    68.00000

 Normal termination of Gaussian 16 at Sun Dec 13 22:29:15 2020.
