 Gaussian 16, Revision A.03,

 -----------------------------------------------------------
 # opt freq B3LYP/6-31G(d) empiricaldispersion=gd3bj scf=xqc
 -----------------------------------------------------------

 -------------------------------
 CID_144013671_JID_1420_neutraal
 -------------------------------
 Symbolic Z-matrix:
 Charge =  0 Multiplicity = 1

 SCF Done:  E(RB3LYP) =  -497.985134655     A.U. after   15 cycles
 SCF Done:  E(RB3LYP) =  -497.989755730     A.U. after   14 cycles
 SCF Done:  E(RB3LYP) =  -497.989559549     A.U. after   13 cycles
 SCF Done:  E(RB3LYP) =  -497.989357164     A.U. after   13 cycles
 SCF Done:  E(RB3LYP) =  -497.988555582     A.U. after   12 cycles
 SCF Done:  E(RB3LYP) =  -497.989862244     A.U. after    9 cycles
 SCF Done:  E(RB3LYP) =  -497.990533724     A.U. after   13 cycles
 SCF Done:  E(RB3LYP) =  -497.990806035     A.U. after   13 cycles
 SCF Done:  E(RB3LYP) =  -497.990967562     A.U. after   12 cycles
 SCF Done:  E(RB3LYP) =  -497.991035038     A.U. after   13 cycles
 SCF Done:  E(RB3LYP) =  -497.992562345     A.U. after   12 cycles
 SCF Done:  E(RB3LYP) =  -497.992566548     A.U. after    9 cycles
 SCF Done:  E(RB3LYP) =  -497.992568478     A.U. after   10 cycles
 SCF Done:  E(RB3LYP) =  -497.992568746     A.U. after    9 cycles
 SCF Done:  E(RB3LYP) =  -497.992568725     A.U. after    7 cycles
 SCF Done:  E(RB3LYP) =  -497.992568811     A.U. after    8 cycles
 Optimization completed.
    -- Stationary point found.
 Normal termination of Gaussian 16 at Tue Dec  8 20:13:03 2020.

 --------------------------------------------------------------------
 #N Geom=AllCheck Guess=TCheck SCRF=Check GenChk RB3LYP/6-31G(d) Freq
 --------------------------------------------------------------------

 Structure from the checkpoint file:  "JID_1420.chk"
 -------------------------------
 CID_144013671_JID_1420_neutraal
 -------------------------------
 Charge =  0 Multiplicity = 1

 SCF Done:  E(RB3LYP) =  -497.992568811     A.U. after    1 cycles

  Exact polarizability: 133.485 -17.472 125.518  -1.059   1.379  67.761
 Approx polarizability: 197.819 -54.706 184.948  -4.589   4.663 102.034

                      1                      2                      3
                      A                      A                      A
 Frequencies --     30.8478                67.6429                68.5591
 Red. masses --      2.6198                 1.7049                 1.8024
 Frc consts  --      0.0015                 0.0046                 0.0050
 IR Inten    --      0.6029                 1.7574                 0.6259

                      4                      5                      6
                      A                      A                      A
 Frequencies --     85.0521               127.9985               152.9415
 Red. masses --      4.1714                 2.2404                 1.9758
 Frc consts  --      0.0178                 0.0216                 0.0272
 IR Inten    --      4.6417                 1.6230                 4.4314

                      7                      8                      9
                      A                      A                      A
 Frequencies --    165.0629               202.4188               225.1176
 Red. masses --      3.3308                 1.3093                 2.9884
 Frc consts  --      0.0535                 0.0316                 0.0892
 IR Inten    --      9.5487                 1.3536                 2.9231

                     10                     11                     12
                      A                      A                      A
 Frequencies --    254.1058               289.4999               300.0303
 Red. masses --      1.4682                 3.6917                 2.2321
 Frc consts  --      0.0559                 0.1823                 0.1184
 IR Inten    --      1.4879                 1.9978                 3.0712

                     13                     14                     15
                      A                      A                      A
 Frequencies --    321.4797               326.6856               395.9125
 Red. masses --      2.9347                 2.9255                 3.0993
 Frc consts  --      0.1787                 0.1840                 0.2862
 IR Inten    --      5.6580                 6.8401                 3.8700

                     16                     17                     18
                      A                      A                      A
 Frequencies --    464.7916               484.1035               597.9411
 Red. masses --      2.7077                 4.2843                 3.1201
 Frc consts  --      0.3446                 0.5916                 0.6573
 IR Inten    --      3.3720                 1.7780                10.4923

                     19                     20                     21
                      A                      A                      A
 Frequencies --    631.5790               727.4660               824.7222
 Red. masses --      3.5519                 3.8666                 1.3854
 Frc consts  --      0.8348                 1.2056                 0.5552
 IR Inten    --      1.6306                12.8808                75.8078

                     22                     23                     24
                      A                      A                      A
 Frequencies --    854.2781               869.9767               911.7203
 Red. masses --      3.1635                 2.4729                 1.7576
 Frc consts  --      1.3603                 1.1027                 0.8608
 IR Inten    --     13.4009                 6.2952                19.2757

                     25                     26                     27
                      A                      A                      A
 Frequencies --    978.4325               993.7595              1018.0783
 Red. masses --      2.3074                 1.7447                 1.5487
 Frc consts  --      1.3015                 1.0151                 0.9458
 IR Inten    --     21.8217                10.7689                 1.4412

                     28                     29                     30
                      A                      A                      A
 Frequencies --   1062.5123              1071.6607              1085.5259
 Red. masses --      1.6825                 2.6113                 1.5640
 Frc consts  --      1.1191                 1.7670                 1.0858
 IR Inten    --     76.3301                 2.7139                 2.8489

                     31                     32                     33
                      A                      A                      A
 Frequencies --   1126.0673              1144.9118              1150.7124
 Red. masses --      1.3727                 1.9398                 1.9769
 Frc consts  --      1.0256                 1.4982                 1.5423
 IR Inten    --      2.0248                 9.2688                22.6293

                     34                     35                     36
                      A                      A                      A
 Frequencies --   1179.6192              1197.9091              1227.5409
 Red. masses --      1.6077                 1.7057                 2.2902
 Frc consts  --      1.3181                 1.4421                 2.0333
 IR Inten    --     12.8329                 4.3213                39.7934

                     37                     38                     39
                      A                      A                      A
 Frequencies --   1280.2650              1312.2663              1400.8692
 Red. masses --      1.8149                 1.5753                 1.6400
 Frc consts  --      1.7527                 1.5983                 1.8962
 IR Inten    --      2.2933                29.8053                 1.4071

                     40                     41                     42
                      A                      A                      A
 Frequencies --   1405.9635              1438.4127              1454.0591
 Red. masses --      1.6125                 1.1824                 1.2290
 Frc consts  --      1.8781                 1.4414                 1.5309
 IR Inten    --     13.5243                 1.7601                17.5991

                     43                     44                     45
                      A                      A                      A
 Frequencies --   1465.0078              1481.4576              1502.3611
 Red. masses --      1.2242                 1.1814                 1.2248
 Frc consts  --      1.5480                 1.5277                 1.6288
 IR Inten    --      1.1402                 3.7193                17.6770

                     46                     47                     48
                      A                      A                      A
 Frequencies --   1507.1251              1515.4141              1517.9962
 Red. masses --      1.0570                 1.0671                 1.0497
 Frc consts  --      1.4146                 1.4438                 1.4251
 IR Inten    --     17.7400                 4.4421                 6.7208

                     49                     50                     51
                      A                      A                      A
 Frequencies --   1530.1067              1536.5428              1539.1749
 Red. masses --      1.0572                 1.0651                 1.0580
 Frc consts  --      1.4582                 1.4816                 1.4768
 IR Inten    --     24.6596                 4.1959                 8.0671

                     52                     53                     54
                      A                      A                      A
 Frequencies --   1547.7963              1687.5084              1713.5003
 Red. masses --      1.0597                 7.0466                 7.6164
 Frc consts  --      1.4958                11.8229                13.1756
 IR Inten    --      4.4140                13.5035                34.3427

                     55                     56                     57
                      A                      A                      A
 Frequencies --   1795.4798              2904.9039              2965.9579
 Red. masses --     10.2598                 1.0842                 1.0588
 Frc consts  --     19.4873                 5.3905                 5.4875
 IR Inten    --    285.8950               107.4146                92.5113

                     58                     59                     60
                      A                      A                      A
 Frequencies --   2979.6839              3026.3243              3042.5849
 Red. masses --      1.0719                 1.0343                 1.0432
 Frc consts  --      5.6072                 5.5812                 5.6896
 IR Inten    --     70.0746                46.5560                10.1381

                     61                     62                     63
                      A                      A                      A
 Frequencies --   3077.1289              3090.7088              3096.6973
 Red. masses --      1.0764                 1.1026                 1.0892
 Frc consts  --      6.0049                 6.2058                 6.1540
 IR Inten    --     32.0408                27.1848                23.9188

                     64                     65                     66
                      A                      A                      A
 Frequencies --   3099.3674              3108.7481              3125.9729
 Red. masses --      1.0999                 1.0904                 1.1019
 Frc consts  --      6.2249                 6.2087                 6.3439
 IR Inten    --     19.9565                15.3757                30.6486

                     67                     68                     69
                      A                      A                      A
 Frequencies --   3150.8995              3151.3493              3493.4254
 Red. masses --      1.1001                 1.0920                 1.0741
 Frc consts  --      6.4348                 6.3897                 7.7232
 IR Inten    --      1.5888                16.9277                 1.5428

 - Thermochemistry -
 -------------------
 Temperature   298.150 Kelvin.  Pressure   1.00000 Atm.
 Atom     1 has atomic number  6 and mass  12.00000

 Molecular mass:   154.11061 amu.
 Principal axes and moments of inertia in atomic units:
                           1         2         3
     Eigenvalues --  1418.219372601.192813814.53138
           X            0.99892   0.04656   0.00028
           Y           -0.04655   0.99889  -0.00695
           Z           -0.00060   0.00693   0.99998
 This molecule is an asymmetric top.
 Rotational symmetry number  1.
 Warning -- assumption of classical behavior for rotation
           may cause significant error
 Rotational temperatures (Kelvin)      0.06107     0.03330     0.02271
 Rotational constants (GHZ):           1.27254     0.69381     0.47312
 Zero-point vibrational energy     565604.7 (Joules/Mol)
                                  135.18277 (Kcal/Mol)
 Warning -- explicit consideration of  18 degrees of freedom as
           vibrations may cause significant error
 Vibrational temperatures:     44.38    97.32    98.64   122.37   184.16
          (Kelvin)            220.05   237.49   291.24   323.89   365.60
                              416.53   431.68   462.54   470.03   569.63
                              668.73   696.52   860.30   908.70  1046.66
                             1186.59  1229.12  1251.70  1311.76  1407.75
                             1429.80  1464.79  1528.72  1541.88  1561.83
                             1620.16  1647.27  1655.62  1697.21  1723.52
                             1766.16  1842.02  1888.06  2015.54  2022.87
                             2069.56  2092.07  2107.82  2131.49  2161.56
                             2168.42  2180.34  2184.06  2201.48  2210.74
                             2214.53  2226.93  2427.95  2465.34  2583.29
                             4179.51  4267.35  4287.10  4354.21  4377.60
                             4427.30  4446.84  4455.46  4459.30  4472.80
                             4497.58  4533.44  4534.09  5026.26

 Zero-point correction=                           0.215427 (Hartree/Particle)
 Thermal correction to Energy=                    0.228494
 Thermal correction to Enthalpy=                  0.229439
 Thermal correction to Gibbs Free Energy=         0.175028
 Sum of electronic and zero-point Energies=           -497.777141
 Sum of electronic and thermal Energies=              -497.764074
 Sum of electronic and thermal Enthalpies=            -497.763130
 Sum of electronic and thermal Free Energies=         -497.817541

                     E (Thermal)             CV                S
                      KCal/Mol        Cal/Mol-Kelvin    Cal/Mol-Kelvin
 Total                  143.382             45.559            114.517
 Electronic               0.000              0.000              0.000
 Translational            0.889              2.981             41.007
 Rotational               0.889              2.981             31.021
 Vibrational            141.605             39.598             42.489
 Vibration     1          0.594              1.984              5.774
 Vibration     2          0.598              1.970              4.221
 Vibration     3          0.598              1.969              4.194
 Vibration     4          0.601              1.960              3.771
 Vibration     5          0.611              1.925              2.976
 Vibration     6          0.619              1.899              2.635
 Vibration     7          0.623              1.885              2.491
 Vibration     8          0.639              1.836              2.111
 Vibration     9          0.650              1.803              1.918
 Vibration    10          0.665              1.756              1.702
 Vibration    11          0.686              1.693              1.477
 Vibration    12          0.693              1.674              1.417
 Vibration    13          0.707              1.632              1.303
 Vibration    14          0.710              1.622              1.276
 Vibration    15          0.763              1.479              0.978
 Vibration    16          0.822              1.328              0.752
 Vibration    17          0.840              1.285              0.699
 Vibration    18          0.956              1.036              0.453

 Optimization completed.
    -- Stationary point found.
 Normal termination of Gaussian 16 at Tue Dec  8 20:18:15 2020.

 ----------------------------------------------------------------------
 # B3LYP/6-311++G(d,p) empiricaldispersion=gd3bj scf=xqc pop=npa geom=c
 heck
 ----------------------------------------------------------------------

 ---------------------------------------
 CID_144013671_JID_1420_Energie_neutraal
 ---------------------------------------
 Structure from the checkpoint file:  "JID_1420.chk"
 Charge =  0 Multiplicity = 1

 SCF Done:  E(RB3LYP) =  -498.139036578     A.U. after   15 cycles
 Normal termination of Gaussian 16 at Tue Dec  8 20:21:04 2020.

 ----------------------------------------------------------------------
 # B3LYP/6-311++G(d,p) empiricaldispersion=gd3bj scf=xqc pop=npa geom=c
 heck
 ----------------------------------------------------------------------

 -------------------------------------
 CID_144013671_JID_1420_Energie_kation
 -------------------------------------
 Structure from the checkpoint file:  "JID_1420.chk"
 Charge =  1 Multiplicity = 2

 SCF Done:  E(UB3LYP) =  -497.824866045     A.U. after   28 cycles
 Normal termination of Gaussian 16 at Tue Dec  8 20:27:47 2020.
 Gaussian 16:  ES64L-G16RevA.03 25-Dec-2016

 ----------------------------------------------------------------------
 # B3LYP/6-311++G(d,p) empiricaldispersion=gd3bj scf=xqc pop=npa geom=c
 heck
 ----------------------------------------------------------------------

 ------------------------------------
 CID_144013671_JID_1420_Energie_anion
 ------------------------------------
 Structure from the checkpoint file:  "JID_1420.chk"
 Charge = -1 Multiplicity = 2

                         Standard orientation:
 ---------------------------------------------------------------------
 Center     Atomic      Atomic             Coordinates (Angstroms)
 Number     Number       Type             X           Y           Z
 ---------------------------------------------------------------------
      1          6           0        1.166650   -1.615361   -0.401517
      2          6           0        1.562316   -0.235396    0.036062
      3          6           0        0.750684    0.806648    0.322994
      4          6           0       -0.726395    0.847350    0.341160
      5          7           0       -1.442678    1.867743    0.042348
      6          6           0       -0.854444    3.094721   -0.459712
      7          6           0       -1.516435   -0.383333    0.766012
      8          7           0       -2.062527   -1.035862   -0.421301
      9          6           0       -2.901483   -2.183460   -0.097836
     10          6           0        3.017525    0.034798    0.145605
     11          8           0        3.886368   -0.778791   -0.101275
     12          1           0        1.208852   -2.310980    0.447377
     13          1           0        1.893671   -1.982405   -1.131996
     14          1           0        0.159080   -1.637693   -0.823593
     15          1           0        1.241368    1.743461    0.585498
     16          1           0       -0.998588    3.886307    0.286837
     17          1           0        0.209014    3.045685   -0.727629
     18          1           0       -1.414539    3.400460   -1.350947
     19          1           0       -0.878149   -1.098700    1.294589
     20          1           0       -2.299522   -0.051086    1.469059
     21          1           0       -2.603682   -0.336632   -0.927634
     22          1           0       -3.717037   -1.956835    0.612827
     23          1           0       -3.341821   -2.583188   -1.016444
     24          1           0       -2.281331   -2.970598    0.346775
     25          1           0        3.277669    1.063565    0.481553
 ---------------------------------------------------------------------

 SCF Done:  E(UB3LYP) =  -498.166502585     A.U. after   22 cycles

 The electronic state is 2-A.
 Alpha  occ. eigenvalues --  -18.92296 -14.17895 -14.13130 -10.08322 -10.05851
 Alpha  occ. eigenvalues --  -10.05817 -10.05086 -10.04888 -10.00851 -10.00503
 Alpha  occ. eigenvalues --  -10.00044  -0.86037  -0.79162  -0.75609  -0.64522
 Alpha  occ. eigenvalues --   -0.60465  -0.55885  -0.53836  -0.51148  -0.47107
 Alpha  occ. eigenvalues --   -0.39202  -0.37565  -0.34961  -0.33844  -0.33257
 Alpha  occ. eigenvalues --   -0.31328  -0.30451  -0.29483  -0.28483  -0.27079
 Alpha  occ. eigenvalues --   -0.26869  -0.25398  -0.24484  -0.22619  -0.21971
 Alpha  occ. eigenvalues --   -0.21219  -0.20526  -0.16090  -0.11479  -0.09987
 Alpha  occ. eigenvalues --   -0.09834  -0.07871   0.03765
 Alpha virt. eigenvalues --    0.07870   0.09350   0.10428   0.10901   0.11709
 Alpha virt. eigenvalues --    0.12014   0.12440   0.13437   0.13999   0.14706
 Alpha virt. eigenvalues --    0.14990   0.15294   0.16071   0.16184   0.16908

  Beta  occ. eigenvalues --  -18.91796 -14.17867 -14.12624 -10.08318 -10.05848
  Beta  occ. eigenvalues --  -10.05604 -10.05104 -10.04824 -10.00866 -10.00304
  Beta  occ. eigenvalues --   -9.99741  -0.85141  -0.79019  -0.74935  -0.63926
  Beta  occ. eigenvalues --   -0.60299  -0.55718  -0.53581  -0.51036  -0.46119
  Beta  occ. eigenvalues --   -0.38950  -0.37177  -0.34776  -0.33611  -0.33120
  Beta  occ. eigenvalues --   -0.31020  -0.30320  -0.29040  -0.28288  -0.26786
  Beta  occ. eigenvalues --   -0.26568  -0.25039  -0.24320  -0.22452  -0.21448
  Beta  occ. eigenvalues --   -0.20245  -0.19406  -0.14379  -0.11311  -0.09313
  Beta  occ. eigenvalues --   -0.07759  -0.07300
  Beta virt. eigenvalues --    0.07843   0.09323   0.10380   0.10571   0.10931
  Beta virt. eigenvalues --    0.11750   0.12015   0.12490   0.13434   0.14094
  Beta virt. eigenvalues --    0.14879   0.14990   0.15427   0.16106   0.16750

 Mulliken charges and spin densities:
               1          2
     1  C   -0.729396  -0.028217
     2  C    1.340527   0.121185
     3  C   -0.363111   0.224455
     4  C   -0.548494   0.137794
     5  N   -0.059936   0.224835
     6  C   -0.346585  -0.032075
     7  C   -0.872077  -0.036213
     8  N   -0.073646   0.004571
     9  C   -0.336922   0.003959
    10  C   -0.403996   0.169759
    11  O   -0.389528   0.168027
    12  H    0.124425   0.011225
    13  H    0.153065   0.005818
    14  H    0.182327   0.004607
    15  H    0.119941  -0.012235
    16  H    0.118287   0.007860
    17  H    0.093825   0.016006
    18  H    0.097211   0.023103
    19  H    0.144238   0.002330
    20  H    0.142923  -0.002491
    21  H    0.236515  -0.003897
    22  H    0.092026   0.000538
    23  H    0.104591   0.001101
    24  H    0.133647   0.000535
    25  H    0.040144  -0.012583
 Sum of Mulliken charges =  -1.00000   1.00000

 Dipole moment (field-independent basis, Debye):
    X=             -6.1381    Y=             -0.4890    Z=              0.1910  Tot=              6.1605
 Quadrupole moment (field-independent basis, Debye-Ang):
   XX=           -116.8799   YY=            -83.9344   ZZ=            -75.3492
   XY=             13.0316   XZ=              2.4920   YZ=             -1.5967

 Summary of Natural Population Analysis:

                                       Natural Population
                Natural  -----------------------------------------------
    Atom  No    Charge         Core      Valence    Rydberg      Total
 -----------------------------------------------------------------------
      C    1   -0.31199      0.99963     2.30657    0.00579     3.31199
      C    2   -0.01674      0.99948     2.00832    0.00893     3.01674
      C    3   -0.05924      0.99945     2.05076    0.00903     3.05924
      C    4    0.12756      0.99956     1.85738    0.01549     2.87244
      N    5   -0.18660      0.99963     2.66976    0.01722     3.68660
      C    6   -0.19371      0.99965     2.18663    0.00742     3.19371
      C    7   -0.09832      0.99960     2.08837    0.01036     3.09832
      N    8   -0.33408      0.99974     2.82329    0.01105     3.83408
      C    9   -0.17762      0.99968     2.17083    0.00711     3.17762
      C   10    0.22399      0.99968     1.75480    0.02154     2.77601
      O   11   -0.25741      0.99988     3.24910    0.00843     4.25741
      H   12    0.09628      0.00000     0.40250    0.00122     0.40372
      H   13    0.10649      0.00000     0.39229    0.00122     0.39351
      H   14    0.11080      0.00000     0.38776    0.00144     0.38920
      H   15    0.08796      0.00000     0.41034    0.00170     0.41204
      H   16    0.08801      0.00000     0.41075    0.00124     0.41199
      H   17    0.08337      0.00000     0.41507    0.00156     0.41663
      H   18    0.08835      0.00000     0.41044    0.00121     0.41165
      H   19    0.09201      0.00000     0.40687    0.00112     0.40799
      H   20    0.07935      0.00000     0.41698    0.00367     0.42065
      H   21    0.17356      0.00000     0.32344    0.00300     0.32644
      H   22    0.07207      0.00000     0.42561    0.00232     0.42793
      H   23    0.08837      0.00000     0.41077    0.00086     0.41163
      H   24    0.08869      0.00000     0.41024    0.00107     0.41131
      H   25    0.02884      0.00000     0.46817    0.00299     0.47116
 =======================================================================
   * Total *    0.00000     10.99599    30.85705    0.14697    42.00000

 Normal termination of Gaussian 16 at Tue Dec  8 20:33:35 2020.
