 Gaussian 16, Revision A.03,

 -----------------------------------------------------------
 # opt freq B3LYP/6-31G(d) empiricaldispersion=gd3bj scf=xqc
 -----------------------------------------------------------

 -------------------------------
 CID_116924804_JID_2357_neutraal
 -------------------------------
 Symbolic Z-matrix:
 Charge =  0 Multiplicity = 1

 SCF Done:  E(RB3LYP) =  -844.285069182     A.U. after   13 cycles
 SCF Done:  E(RB3LYP) =  -844.288467595     A.U. after   12 cycles
 SCF Done:  E(RB3LYP) =  -844.287282916     A.U. after   12 cycles
 SCF Done:  E(RB3LYP) =  -844.288789498     A.U. after   12 cycles
 SCF Done:  E(RB3LYP) =  -844.289743285     A.U. after   12 cycles
 SCF Done:  E(RB3LYP) =  -844.290279557     A.U. after   11 cycles
 SCF Done:  E(RB3LYP) =  -844.290591576     A.U. after   11 cycles
 SCF Done:  E(RB3LYP) =  -844.290767944     A.U. after   11 cycles
 SCF Done:  E(RB3LYP) =  -844.290982014     A.U. after   11 cycles
 SCF Done:  E(RB3LYP) =  -844.291073836     A.U. after   11 cycles
 SCF Done:  E(RB3LYP) =  -844.291179976     A.U. after    9 cycles
 SCF Done:  E(RB3LYP) =  -844.291180622     A.U. after    9 cycles
 SCF Done:  E(RB3LYP) =  -844.291180750     A.U. after    7 cycles
 SCF Done:  E(RB3LYP) =  -844.291180750     A.U. after    7 cycles
 Optimization completed.
    -- Stationary point found.
 Normal termination of Gaussian 16 at Wed Dec  9 17:14:49 2020.

 --------------------------------------------------------------------
 #N Geom=AllCheck Guess=TCheck SCRF=Check GenChk RB3LYP/6-31G(d) Freq
 --------------------------------------------------------------------

 Structure from the checkpoint file:  "JID_2357.chk"
 -------------------------------
 CID_116924804_JID_2357_neutraal
 -------------------------------
 Charge =  0 Multiplicity = 1

 SCF Done:  E(RB3LYP) =  -844.291180750     A.U. after    1 cycles

  Exact polarizability: 145.985  -2.220 136.391  -9.721   2.011  88.876
 Approx polarizability: 203.552  -2.869 219.912 -21.680   6.125 139.251

                      1                      2                      3
                      A                      A                      A
 Frequencies --     26.8198                96.6041               108.9375
 Red. masses --      3.3370                 2.6456                 3.0644
 Frc consts  --      0.0014                 0.0145                 0.0214
 IR Inten    --      0.0421                 1.0110                 0.4658

                      4                      5                      6
                      A                      A                      A
 Frequencies --    142.3630               156.2160               214.2946
 Red. masses --      1.8581                 2.8319                 2.4347
 Frc consts  --      0.0222                 0.0407                 0.0659
 IR Inten    --      1.5291                 5.7213                 4.4910

                      7                      8                      9
                      A                      A                      A
 Frequencies --    225.2224               248.8078               265.8562
 Red. masses --      2.4702                 1.1001                 2.6039
 Frc consts  --      0.0738                 0.0401                 0.1084
 IR Inten    --      0.8362                12.3893                 0.9106

                     10                     11                     12
                      A                      A                      A
 Frequencies --    271.5540               295.0773               311.8531
 Red. masses --      1.3076                 2.1679                 1.9279
 Frc consts  --      0.0568                 0.1112                 0.1105
 IR Inten    --      6.9303                 1.6070                 5.8423

                     13                     14                     15
                      A                      A                      A
 Frequencies --    320.7121               354.7656               382.6401
 Red. masses --      1.2963                 2.1611                 2.3115
 Frc consts  --      0.0786                 0.1603                 0.1994
 IR Inten    --     20.3948                 0.3152                 2.0770

                     16                     17                     18
                      A                      A                      A
 Frequencies --    391.7548               451.8442               505.5736
 Red. masses --      2.4475                 2.8975                 4.1698
 Frc consts  --      0.2213                 0.3485                 0.6280
 IR Inten    --      0.6456                 0.7500                 2.5283

                     19                     20                     21
                      A                      A                      A
 Frequencies --    518.4323               548.7075               613.7181
 Red. masses --      2.9006                 4.9842                 2.9630
 Frc consts  --      0.4593                 0.8841                 0.6575
 IR Inten    --      7.6451                 1.1446                 7.4500

                     22                     23                     24
                      A                      A                      A
 Frequencies --    677.3746               704.7988               740.5952
 Red. masses --      5.1214                 1.6255                 3.2251
 Frc consts  --      1.3845                 0.4757                 1.0422
 IR Inten    --      2.9846                21.3319                 6.5612

                     25                     26                     27
                      A                      A                      A
 Frequencies --    755.2661               827.8308               864.2083
 Red. masses --      2.9205                 4.3599                 1.7336
 Frc consts  --      0.9815                 1.7604                 0.7629
 IR Inten    --     10.4559                 5.8474                40.7345

                     28                     29                     30
                      A                      A                      A
 Frequencies --    870.5041               884.1830               900.2246
 Red. masses --      1.7115                 1.2653                 2.0951
 Frc consts  --      0.7641                 0.5828                 1.0004
 IR Inten    --     35.2092                 0.7031                 8.8446

                     31                     32                     33
                      A                      A                      A
 Frequencies --    937.2765               960.8548               964.3889
 Red. masses --      2.2666                 1.4574                 1.7618
 Frc consts  --      1.1731                 0.7928                 0.9654
 IR Inten    --     12.3186                 1.3354                20.7930

                     34                     35                     36
                      A                      A                      A
 Frequencies --   1025.2303              1031.8678              1055.8514
 Red. masses --      1.4764                 1.3272                 1.6338
 Frc consts  --      0.9143                 0.8326                 1.0732
 IR Inten    --     11.9610                 3.4694                 7.4681

                     37                     38                     39
                      A                      A                      A
 Frequencies --   1078.9410              1090.5767              1106.8963
 Red. masses --      1.4581                 2.5019                 1.2167
 Frc consts  --      1.0001                 1.7532                 0.8783
 IR Inten    --      3.4643                10.0531                 3.3299

                     40                     41                     42
                      A                      A                      A
 Frequencies --   1140.6516              1196.3187              1215.2217
 Red. masses --      1.5629                 2.6439                 1.8809
 Frc consts  --      1.1981                 2.2294                 1.6365
 IR Inten    --      2.9172                 0.8596                 4.9840

                     43                     44                     45
                      A                      A                      A
 Frequencies --   1251.8343              1263.3257              1273.5660
 Red. masses --      2.1645                 1.9337                 1.8117
 Frc consts  --      1.9985                 1.8183                 1.7313
 IR Inten    --      0.9599                 5.8511                10.6862

                     46                     47                     48
                      A                      A                      A
 Frequencies --   1328.0540              1362.0756              1377.1188
 Red. masses --      1.4607                 1.3195                 1.4081
 Frc consts  --      1.5179                 1.4423                 1.5733
 IR Inten    --      1.9036                 4.1626                 1.7750

                     49                     50                     51
                      A                      A                      A
 Frequencies --   1416.6267              1424.6135              1435.7120
 Red. masses --      2.8284                 1.2497                 1.3558
 Frc consts  --      3.3442                 1.4943                 1.6466
 IR Inten    --      2.6148                 4.0620                 0.7478

                     52                     53                     54
                      A                      A                      A
 Frequencies --   1451.0138              1456.6115              1500.3104
 Red. masses --      1.2714                 1.2872                 3.6576
 Frc consts  --      1.5771                 1.6091                 4.8508
 IR Inten    --      0.0319                12.1392                 4.1239

                     55                     56                     57
                      A                      A                      A
 Frequencies --   1506.3404              1519.6987              1522.7384
 Red. masses --      1.1035                 1.0660                 1.0509
 Frc consts  --      1.4752                 1.4506                 1.4357
 IR Inten    --      6.7101                 3.0721                 3.5996

                     58                     59                     60
                      A                      A                      A
 Frequencies --   1530.9138              1531.7805              1536.3740
 Red. masses --      1.1166                 1.1295                 1.0661
 Frc consts  --      1.5419                 1.5614                 1.4827
 IR Inten    --      7.4579                 2.6019                 2.2006

                     61                     62                     63
                      A                      A                      A
 Frequencies --   1542.8363              1551.0567              1622.9335
 Red. masses --      1.0756                 1.0663                 5.1575
 Frc consts  --      1.5085                 1.5114                 8.0038
 IR Inten    --     12.8413                13.4073                 1.0495

                     64                     65                     66
                      A                      A                      A
 Frequencies --   1696.9932              2963.1088              3033.5477
 Red. masses --      1.0872                 1.0733                 1.0400
 Frc consts  --      1.8447                 5.5521                 5.6386
 IR Inten    --     36.6901                79.6061                43.5872

                     67                     68                     69
                      A                      A                      A
 Frequencies --   3037.7946              3044.2049              3048.7692
 Red. masses --      1.0369                 1.0524                 1.0509
 Frc consts  --      5.6380                 5.7461                 5.7549
 IR Inten    --     22.4715                22.4319                35.4140

                     70                     71                     72
                      A                      A                      A
 Frequencies --   3079.3949              3088.1124              3101.3171
 Red. masses --      1.1002                 1.0888                 1.1015
 Frc consts  --      6.1470                 6.1179                 6.2419
 IR Inten    --     22.8236                18.4538                 3.9918

                     73                     74                     75
                      A                      A                      A
 Frequencies --   3107.1148              3108.9850              3115.3599
 Red. masses --      1.1002                 1.0972                 1.1006
 Frc consts  --      6.2579                 6.2483                 6.2933
 IR Inten    --     58.8444                 8.9150                34.0573

                     76                     77                     78
                      A                      A                      A
 Frequencies --   3130.9363              3145.3453              3206.7813
 Red. masses --      1.1000                 1.0988                 1.0908
 Frc consts  --      6.3531                 6.4049                 6.6090
 IR Inten    --     26.9330                 1.9054                11.8455

                     79                     80                     81
                      A                      A                      A
 Frequencies --   3267.9601              3477.8955              3559.4099
 Red. masses --      1.0965                 1.0500                 1.0926
 Frc consts  --      6.8996                 7.4827                 8.1556
 IR Inten    --      1.8583                 0.8916                 0.0351

 - Thermochemistry -
 -------------------
 Temperature   298.150 Kelvin.  Pressure   1.00000 Atm.
 Atom     1 has atomic number  6 and mass  12.00000

 Molecular mass:   183.10817 amu.
 Principal axes and moments of inertia in atomic units:
                           1         2         3
     Eigenvalues --  1434.841962949.861333875.06192
           X            0.99952  -0.03082  -0.00394
           Y            0.03080   0.99951  -0.00478
           Z            0.00408   0.00466   0.99998
 This molecule is an asymmetric top.
 Rotational symmetry number  1.
 Warning -- assumption of classical behavior for rotation
           may cause significant error
 Rotational temperatures (Kelvin)      0.06036     0.02936     0.02235
 Rotational constants (GHZ):           1.25780     0.61181     0.46573
 Zero-point vibrational energy     670503.2 (Joules/Mol)
                                  160.25411 (Kcal/Mol)
 Warning -- explicit consideration of  21 degrees of freedom as
           vibrations may cause significant error
 Vibrational temperatures:     38.59   138.99   156.74   204.83   224.76
          (Kelvin)            308.32   324.04   357.98   382.51   390.71
                              424.55   448.69   461.43   510.43   550.53
                              563.65   650.10   727.41   745.91   789.47
                              883.00   974.59  1014.05  1065.55  1086.66
                             1191.06  1243.40  1252.46  1272.14  1295.22
                             1348.53  1382.46  1387.54  1475.08  1484.63
                             1519.13  1552.36  1569.10  1592.58  1641.14
                             1721.24  1748.43  1801.11  1817.64  1832.38
                             1910.77  1959.72  1981.37  2038.21  2049.70
                             2065.67  2087.69  2095.74  2158.61  2167.29
                             2186.51  2190.88  2202.64  2203.89  2210.50
                             2219.80  2231.62  2335.04  2441.59  4263.25
                             4364.60  4370.71  4379.93  4386.50  4430.56
                             4443.10  4462.10  4470.45  4473.14  4482.31
                             4504.72  4525.45  4613.84  4701.87  5003.92
                             5121.20

 Zero-point correction=                           0.255381 (Hartree/Particle)
 Thermal correction to Energy=                    0.268808
 Thermal correction to Enthalpy=                  0.269752
 Thermal correction to Gibbs Free Energy=         0.215933
 Sum of electronic and zero-point Energies=           -844.035800
 Sum of electronic and thermal Energies=              -844.022373
 Sum of electronic and thermal Enthalpies=            -844.021429
 Sum of electronic and thermal Free Energies=         -844.075248

                     E (Thermal)             CV                S
                      KCal/Mol        Cal/Mol-Kelvin    Cal/Mol-Kelvin
 Total                  168.680             51.721            113.272
 Electronic               0.000              0.000              0.000
 Translational            0.889              2.981             41.521
 Rotational               0.889              2.981             31.173
 Vibrational            166.902             45.759             40.578
 Vibration     1          0.593              1.984              6.052
 Vibration     2          0.603              1.952              3.522
 Vibration     3          0.606              1.942              3.288
 Vibration     4          0.616              1.911              2.772
 Vibration     5          0.620              1.896              2.595
 Vibration     6          0.644              1.819              2.007
 Vibration     7          0.650              1.803              1.917
 Vibration     8          0.662              1.765              1.739
 Vibration     9          0.672              1.736              1.623
 Vibration    10          0.675              1.726              1.586
 Vibration    11          0.689              1.683              1.445
 Vibration    12          0.700              1.651              1.352
 Vibration    13          0.706              1.634              1.306
 Vibration    14          0.731              1.565              1.145
 Vibration    15          0.752              1.507              1.029
 Vibration    16          0.759              1.488              0.993
 Vibration    17          0.811              1.357              0.790
 Vibration    18          0.861              1.238              0.644
 Vibration    19          0.873              1.209              0.614
 Vibration    20          0.904              1.143              0.547
 Vibration    21          0.973              1.003              0.427

 Optimization completed.
    -- Stationary point found.
 Normal termination of Gaussian 16 at Wed Dec  9 17:22:01 2020.

 ----------------------------------------------------------------------
 # B3LYP/6-311++G(d,p) empiricaldispersion=gd3bj scf=xqc pop=npa geom=c
 heck
 ----------------------------------------------------------------------

 ---------------------------------------
 CID_116924804_JID_2357_Energie_neutraal
 ---------------------------------------
 Structure from the checkpoint file:  "JID_2357.chk"
 Charge =  0 Multiplicity = 1

 SCF Done:  E(RB3LYP) =  -844.447007060     A.U. after   15 cycles
 Normal termination of Gaussian 16 at Wed Dec  9 17:25:09 2020.

 ----------------------------------------------------------------------
 # B3LYP/6-311++G(d,p) empiricaldispersion=gd3bj scf=xqc pop=npa geom=c
 heck
 ----------------------------------------------------------------------

 -------------------------------------
 CID_116924804_JID_2357_Energie_kation
 -------------------------------------
 Structure from the checkpoint file:  "JID_2357.chk"
 Charge =  1 Multiplicity = 2

 SCF Done:  E(UB3LYP) =  -844.142080629     A.U. after   33 cycles
 SCF Done:  E(UB3LYP) =  -844.159312724     a.u. after   22 cycles
 Normal termination of Gaussian 16 at Wed Dec  9 18:20:17 2020.
 Gaussian 16:  ES64L-G16RevA.03 25-Dec-2016

 ----------------------------------------------------------------------
 # B3LYP/6-311++G(d,p) empiricaldispersion=gd3bj scf=xqc pop=npa geom=c
 heck
 ----------------------------------------------------------------------

 ------------------------------------
 CID_116924804_JID_2357_Energie_anion
 ------------------------------------
 Structure from the checkpoint file:  "JID_2357.chk"
 Charge = -1 Multiplicity = 2

                         Standard orientation:
 ---------------------------------------------------------------------
 Center     Atomic      Atomic             Coordinates (Angstroms)
 Number     Number       Type             X           Y           Z
 ---------------------------------------------------------------------
      1          6           0       -0.847819    2.474649   -0.320640
      2          6           0       -1.431576    1.097193   -0.147714
      3          6           0       -0.794090   -0.084284   -0.453181
      4         16           0       -1.853742   -1.453214   -0.163785
      5          6           0       -3.139645   -0.422538    0.375920
      6          6           0       -2.770061    0.889260    0.330166
      7          6           0        0.588408   -0.308619   -0.999679
      8          6           0        1.716993   -0.600572    0.033061
      9          6           0        1.374205   -1.811256    0.912722
     10          6           0        3.002511   -0.902646   -0.756299
     11          6           0        1.936299    0.615099    0.955432
     12          7           0        2.403740    1.799312    0.222311
     13          1           0       -1.368728    3.021784   -1.117491
     14          1           0       -0.966688    3.064033    0.597748
     15          1           0        0.217166    2.443649   -0.561590
     16          1           0       -4.082814   -0.844915    0.694774
     17          1           0       -3.425237    1.704531    0.621061
     18          1           0        0.563055   -1.144024   -1.711043
     19          1           0        0.885367    0.577394   -1.568549
     20          1           0        1.132183   -2.687436    0.299611
     21          1           0        2.225184   -2.075799    1.551737
     22          1           0        0.514798   -1.610508    1.559168
     23          1           0        3.244624   -0.091997   -1.452443
     24          1           0        3.855371   -1.045403   -0.080445
     25          1           0        2.889367   -1.820389   -1.344867
     26          1           0        0.979508    0.869722    1.424512
     27          1           0        2.619889    0.311827    1.768146
     28          1           0        2.353360    2.615724    0.828021
     29          1           0        3.385940    1.690329   -0.022688
 ---------------------------------------------------------------------

 SCF Done:  E(UB3LYP) =  -844.431574710     A.U. after   33 cycles
 SCF Done:  E(UB3LYP) =  -844.431574710     a.u. after    1 cycles

 The electronic state is 2-A.
 Alpha  occ. eigenvalues --  -88.77108 -14.18179 -10.09847 -10.09813 -10.08016
 Alpha  occ. eigenvalues --  -10.07913 -10.07869 -10.07459 -10.07171 -10.05781
 Alpha  occ. eigenvalues --  -10.05476 -10.05269  -7.85753  -5.82036  -5.81673
 Alpha  occ. eigenvalues --   -5.81350  -0.78393  -0.77475  -0.70951  -0.66337
 Alpha  occ. eigenvalues --   -0.64341  -0.58865  -0.58180  -0.55776  -0.55135
 Alpha  occ. eigenvalues --   -0.46550  -0.44172  -0.40693  -0.39168  -0.38450
 Alpha  occ. eigenvalues --   -0.36510  -0.34550  -0.34178  -0.31563  -0.31487
 Alpha  occ. eigenvalues --   -0.30927  -0.29169  -0.28386  -0.27802  -0.27085
 Alpha  occ. eigenvalues --   -0.26485  -0.26170  -0.25390  -0.23601  -0.23127
 Alpha  occ. eigenvalues --   -0.22261  -0.21702  -0.14732  -0.13663  -0.12635
 Alpha  occ. eigenvalues --    0.04653
 Alpha virt. eigenvalues --    0.06404   0.07299   0.07597   0.08284   0.08776
 Alpha virt. eigenvalues --    0.09198   0.09839   0.10688   0.10911   0.11254
 Alpha virt. eigenvalues --    0.11871   0.11983   0.12551   0.13229   0.13837

  Beta  occ. eigenvalues --  -88.77107 -14.18125 -10.09841 -10.09810 -10.08015
  Beta  occ. eigenvalues --  -10.07887 -10.07868 -10.07448 -10.07158 -10.05753
  Beta  occ. eigenvalues --  -10.05461 -10.05231  -7.85751  -5.82034  -5.81671
  Beta  occ. eigenvalues --   -5.81348  -0.78367  -0.77413  -0.70913  -0.66317
  Beta  occ. eigenvalues --   -0.64320  -0.58828  -0.58128  -0.55725  -0.55054
  Beta  occ. eigenvalues --   -0.46529  -0.44120  -0.40657  -0.39131  -0.38406
  Beta  occ. eigenvalues --   -0.36460  -0.34510  -0.34121  -0.31519  -0.31459
  Beta  occ. eigenvalues --   -0.30888  -0.29137  -0.28356  -0.27770  -0.27050
  Beta  occ. eigenvalues --   -0.26465  -0.26147  -0.25366  -0.23581  -0.23100
  Beta  occ. eigenvalues --   -0.22232  -0.21669  -0.14719  -0.13613  -0.12619
  Beta virt. eigenvalues --    0.06670   0.07271   0.07802   0.07962   0.08985
  Beta virt. eigenvalues --    0.09267   0.09690   0.10309   0.10946   0.11381
  Beta virt. eigenvalues --    0.11627   0.12066   0.12303   0.12841   0.13493

 Mulliken charges and spin densities:
               1          2
     1  C    1.567843  -2.505627
     2  C   -1.088203   1.188888
     3  C   -0.228794   1.235751
     4  S    0.370739  -0.846319
     5  C   -0.132609   0.087773
     6  C    0.105761  -0.289161
     7  C   -0.027513  -0.829597
     8  C   -1.247637   2.176005
     9  C    0.274473  -0.975611
    10  C    1.004143  -1.527199
    11  C    0.662875  -1.515682
    12  N   -0.423629   0.056122
    13  H    0.016824   0.131036
    14  H   -0.301665   0.471404
    15  H    0.177187  -0.015247
    16  H   -0.121894   0.349872
    17  H   -0.452230   0.608249
    18  H   -0.062632   0.267944
    19  H    0.189439   0.000151
    20  H    0.098859   0.047040
    21  H   -0.046418   0.184465
    22  H   -0.058072   0.173393
    23  H   -0.015260   0.150424
    24  H   -0.411193   0.571985
    25  H   -0.187652   0.324650
    26  H    0.127970   0.029294
    27  H   -0.303733   0.472365
    28  H   -0.251331   0.496117
    29  H   -0.235648   0.481515
 Sum of Mulliken charges =  -1.00000   1.00000

 Dipole moment (field-independent basis, Debye):
    X=             -5.3725    Y=             -4.0913    Z=             -1.5919  Tot=              6.9380
 Quadrupole moment (field-independent basis, Debye-Ang):
   XX=           -153.9889   YY=           -129.8115   ZZ=           -114.8885
   XY=             -1.7606   XZ=             -2.6570   YZ=             -5.1360

 Summary of Natural Population Analysis:

                                       Natural Population
                Natural  -----------------------------------------------
    Atom  No    Charge         Core      Valence    Rydberg      Total
 -----------------------------------------------------------------------
      C    1   -0.30056      0.99962     2.29470    0.00624     3.30056
      C    2   -0.04394      0.99942     2.03380    0.01073     3.04394
      C    3   -0.08907      0.99942     2.07712    0.01252     3.08907
      S    4    0.19454      4.99941     2.78594    0.02011     7.80546
      C    5   -0.19713      0.99954     2.18714    0.01045     3.19713
      C    6   -0.12136      0.99949     2.11085    0.01102     3.12136
      C    7   -0.20948      0.99954     2.19826    0.01168     3.20948
      C    8   -0.04499      0.99957     2.03105    0.01437     3.04499
      C    9   -0.28868      0.99962     2.28127    0.00778     3.28868
      C   10   -0.28867      0.99962     2.28101    0.00805     3.28867
      C   11   -0.08826      0.99956     2.07527    0.01344     3.08826
      N   12   -0.42877      0.99977     2.91767    0.01133     3.92877
      H   13    0.10099      0.00000     0.39802    0.00100     0.39901
      H   14    0.10447      0.00000     0.39414    0.00139     0.39553
      H   15    0.12022      0.00000     0.37777    0.00201     0.37978
      H   16    0.10722      0.00000     0.39192    0.00087     0.39278
      H   17    0.10550      0.00000     0.39337    0.00112     0.39450
      H   18    0.10345      0.00000     0.39531    0.00124     0.39655
      H   19    0.11859      0.00000     0.37970    0.00171     0.38141
      H   20    0.09779      0.00000     0.40130    0.00091     0.40221
      H   21    0.10145      0.00000     0.39756    0.00099     0.39855
      H   22    0.10374      0.00000     0.39495    0.00131     0.39626
      H   23    0.10310      0.00000     0.39566    0.00124     0.39690
      H   24    0.10252      0.00000     0.39609    0.00140     0.39748
      H   25    0.09878      0.00000     0.40011    0.00111     0.40122
      H   26    0.09541      0.00000     0.40251    0.00208     0.40459
      H   27    0.08398      0.00000     0.41386    0.00216     0.41602
      H   28    0.18088      0.00000     0.31529    0.00383     0.31912
      H   29    0.17829      0.00000     0.31789    0.00382     0.32171
 =======================================================================
   * Total *    0.00000     15.99456    33.83953    0.16590    50.00000

 Normal termination of Gaussian 16 at Wed Dec  9 18:29:52 2020.
