 Gaussian 16, Revision A.03,

 -----------------------------------------------------------
 # opt freq B3LYP/6-31G(d) empiricaldispersion=gd3bj scf=xqc
 -----------------------------------------------------------

 ------------------------------
 CID_62201642_JID_5052_neutraal
 ------------------------------
 Symbolic Z-matrix:
 Charge =  0 Multiplicity = 1

 SCF Done:  E(RB3LYP) =  -614.603810519     A.U. after   15 cycles
 SCF Done:  E(RB3LYP) =  -614.609781422     A.U. after   12 cycles
 SCF Done:  E(RB3LYP) =  -614.610351849     A.U. after   11 cycles
 SCF Done:  E(RB3LYP) =  -614.610514191     A.U. after   11 cycles
 SCF Done:  E(RB3LYP) =  -614.610597766     A.U. after   11 cycles
 SCF Done:  E(RB3LYP) =  -614.610661940     A.U. after   11 cycles
 SCF Done:  E(RB3LYP) =  -614.610787495     A.U. after   11 cycles
 SCF Done:  E(RB3LYP) =  -614.610927201     A.U. after   11 cycles
 SCF Done:  E(RB3LYP) =  -614.611057891     A.U. after   11 cycles
 SCF Done:  E(RB3LYP) =  -614.611131165     A.U. after   10 cycles
 SCF Done:  E(RB3LYP) =  -614.611265341     A.U. after   10 cycles
 SCF Done:  E(RB3LYP) =  -614.611270636     A.U. after    9 cycles
 SCF Done:  E(RB3LYP) =  -614.611270976     A.U. after    8 cycles
 SCF Done:  E(RB3LYP) =  -614.611271163     A.U. after    7 cycles
 SCF Done:  E(RB3LYP) =  -614.611271174     A.U. after    6 cycles
 Optimization completed.
    -- Stationary point found.
 Normal termination of Gaussian 16 at Thu Dec 10 14:49:18 2020.

 --------------------------------------------------------------------
 #N Geom=AllCheck Guess=TCheck SCRF=Check GenChk RB3LYP/6-31G(d) Freq
 --------------------------------------------------------------------

 Structure from the checkpoint file:  "JID_5052.chk"
 ------------------------------
 CID_62201642_JID_5052_neutraal
 ------------------------------
 Charge =  0 Multiplicity = 1

 SCF Done:  E(RB3LYP) =  -614.611271174     A.U. after    1 cycles

  Exact polarizability: 212.564  14.063 182.149  -1.909   0.960  73.713
 Approx polarizability: 320.502  20.018 290.404  -5.670   3.646 112.741

                      1                      2                      3
                      A                      A                      A
 Frequencies --     55.6500                68.3738                82.5122
 Red. masses --      2.7921                 1.3044                 1.7066
 Frc consts  --      0.0051                 0.0036                 0.0068
 IR Inten    --      0.1407                 0.7467                 0.3247

                      4                      5                      6
                      A                      A                      A
 Frequencies --     92.5374               108.1721               112.5632
 Red. masses --      1.2467                 1.7433                 3.1739
 Frc consts  --      0.0063                 0.0120                 0.0237
 IR Inten    --      0.0617                 0.7020                 0.4052

                      7                      8                      9
                      A                      A                      A
 Frequencies --    172.6234               194.9973               214.4132
 Red. masses --      2.9849                 3.3096                 3.3940
 Frc consts  --      0.0524                 0.0741                 0.0919
 IR Inten    --      1.9928                 0.7429                 0.2321

                     10                     11                     12
                      A                      A                      A
 Frequencies --    221.4060               270.4579               292.8561
 Red. masses --      3.3650                 1.2013                 2.9267
 Frc consts  --      0.0972                 0.0518                 0.1479
 IR Inten    --      0.2244                 0.3366                 4.8472

                     13                     14                     15
                      A                      A                      A
 Frequencies --    327.8541               367.4494               373.9887
 Red. masses --      3.5266                 3.1174                 3.9734
 Frc consts  --      0.2233                 0.2480                 0.3274
 IR Inten    --     21.7722                 1.3582                 6.7404

                     16                     17                     18
                      A                      A                      A
 Frequencies --    421.0483               455.0161               470.5722
 Red. masses --      4.3764                 3.3729                 1.4757
 Frc consts  --      0.4571                 0.4114                 0.1925
 IR Inten    --      6.2436                 2.6647               118.5231

                     19                     20                     21
                      A                      A                      A
 Frequencies --    527.4290               545.7318               555.0638
 Red. masses --      4.2092                 2.8395                 5.1320
 Frc consts  --      0.6899                 0.4983                 0.9316
 IR Inten    --      2.2126                 4.9626                 2.6189

                     22                     23                     24
                      A                      A                      A
 Frequencies --    617.2701               640.2566               652.8203
 Red. masses --      4.4249                 4.6539                 4.6360
 Frc consts  --      0.9934                 1.1240                 1.1641
 IR Inten    --      4.6645                 1.0232                 4.8355

                     25                     26                     27
                      A                      A                      A
 Frequencies --    676.4356               755.0155               791.8447
 Red. masses --      3.6174                 4.7369                 2.7909
 Frc consts  --      0.9752                 1.5910                 1.0311
 IR Inten    --      1.5266                 1.9416                 0.2145

                     28                     29                     30
                      A                      A                      A
 Frequencies --    825.8268               844.2083               850.7828
 Red. masses --      1.2312                 1.4876                 3.8001
 Frc consts  --      0.4947                 0.6246                 1.6206
 IR Inten    --      6.6469                26.6974                 8.4971

                     31                     32                     33
                      A                      A                      A
 Frequencies --    855.3287               875.7675               920.2449
 Red. masses --      1.3777                 1.6421                 2.3078
 Frc consts  --      0.5938                 0.7420                 1.1515
 IR Inten    --     12.0371                 0.1791                 0.1503

                     34                     35                     36
                      A                      A                      A
 Frequencies --    951.6990               983.0631              1018.9569
 Red. masses --      2.4420                 1.2926                 3.5312
 Frc consts  --      1.3031                 0.7360                 2.1601
 IR Inten    --      0.1940                 0.4602                19.0966

                     37                     38                     39
                      A                      A                      A
 Frequencies --   1021.7769              1042.8797              1069.2672
 Red. masses --      1.7136                 1.6255                 1.5603
 Frc consts  --      1.0541                 1.0416                 1.0511
 IR Inten    --      0.0844                10.6893                 3.2984

                     40                     41                     42
                      A                      A                      A
 Frequencies --   1074.3736              1076.8235              1125.7507
 Red. masses --      2.2979                 1.7072                 2.0819
 Frc consts  --      1.5628                 1.1664                 1.5545
 IR Inten    --      2.3458                 3.7168                 1.4744

                     43                     44                     45
                      A                      A                      A
 Frequencies --   1167.1247              1173.6189              1194.0360
 Red. masses --      1.3725                 1.5594                 2.3569
 Frc consts  --      1.1015                 1.2655                 1.9798
 IR Inten    --      5.4578                 5.4524                27.2383

                     46                     47                     48
                      A                      A                      A
 Frequencies --   1228.8998              1251.9675              1291.2273
 Red. masses --      2.1648                 2.7495                 2.7771
 Frc consts  --      1.9262                 2.5391                 2.7280
 IR Inten    --     34.3377                 3.4002                16.7393

                     49                     50                     51
                      A                      A                      A
 Frequencies --   1296.1471              1313.3193              1366.5500
 Red. masses --      1.7423                 1.1718                 1.9489
 Frc consts  --      1.7246                 1.1908                 2.1443
 IR Inten    --      7.2816                10.8325                 2.2505

                     52                     53                     54
                      A                      A                      A
 Frequencies --   1393.1384              1412.6688              1422.1213
 Red. masses --      1.9133                 3.1871                 1.6262
 Frc consts  --      2.1878                 3.7474                 1.9377
 IR Inten    --     37.0323                15.8715                21.2691

                     55                     56                     57
                      A                      A                      A
 Frequencies --   1439.9122              1444.0161              1446.3913
 Red. masses --      1.7074                 1.2788                 1.7796
 Frc consts  --      2.0858                 1.5710                 2.1936
 IR Inten    --     24.2096                 1.1923                16.0300

                     58                     59                     60
                      A                      A                      A
 Frequencies --   1462.0934              1488.3437              1509.2610
 Red. masses --      2.7035                 2.0846                 1.2160
 Frc consts  --      3.4051                 2.7207                 1.6319
 IR Inten    --     58.0190                 0.7270                 0.6912

                     61                     62                     63
                      A                      A                      A
 Frequencies --   1512.9766              1514.4874              1522.7695
 Red. masses --      1.0447                 1.0458                 1.0706
 Frc consts  --      1.4089                 1.4132                 1.4626
 IR Inten    --      5.2396                 6.2864                18.6821

                     64                     65                     66
                      A                      A                      A
 Frequencies --   1528.0544              1531.5524              1548.8431
 Red. masses --      1.1349                 1.0839                 2.2364
 Frc consts  --      1.5613                 1.4980                 3.1609
 IR Inten    --     27.1869                 8.8662                29.3458

                     67                     68                     69
                      A                      A                      A
 Frequencies --   1556.5902              1579.4863              1621.9739
 Red. masses --      1.1015                 2.7102                 5.4231
 Frc consts  --      1.5725                 3.9837                 8.4059
 IR Inten    --     35.0345               122.6195               162.1286

                     70                     71                     72
                      A                      A                      A
 Frequencies --   1655.0677              1687.5819              2986.3845
 Red. masses --      5.7080                 5.8491                 1.0723
 Frc consts  --      9.2122                 9.8144                 5.6344
 IR Inten    --    170.7154                 0.8190                52.6866

                     73                     74                     75
                      A                      A                      A
 Frequencies --   3040.2066              3044.3795              3050.2841
 Red. masses --      1.0374                 1.0393                 1.0414
 Frc consts  --      5.6491                 5.6755                 5.7088
 IR Inten    --     46.2067                27.4705                18.6095

                     76                     77                     78
                      A                      A                      A
 Frequencies --   3065.3691              3090.7415              3094.6280
 Red. masses --      1.0868                 1.1008                 1.1003
 Frc consts  --      6.0169                 6.1955                 6.2086
 IR Inten    --     20.0163                21.3693                21.2318

                     79                     80                     81
                      A                      A                      A
 Frequencies --   3118.2016              3122.9175              3138.2385
 Red. masses --      1.0997                 1.1008                 1.1028
 Frc consts  --      6.3001                 6.3254                 6.3991
 IR Inten    --     37.8715                16.6439                24.6833

                     82                     83                     84
                      A                      A                      A
 Frequencies --   3159.6413              3173.3987              3178.6869
 Red. masses --      1.0992                 1.0884                 1.0887
 Frc consts  --      6.4657                 6.4581                 6.4811
 IR Inten    --      9.5460                23.9673                18.1321

                     85                     86                     87
                      A                      A                      A
 Frequencies --   3216.2187              3217.0333              3602.1711
 Red. masses --      1.0934                 1.0897                 1.0751
 Frc consts  --      6.6635                 6.6445                 8.2192
 IR Inten    --     15.5064                12.5999                 9.4517

 - Thermochemistry -
 -------------------
 Temperature   298.150 Kelvin.  Pressure   1.00000 Atm.
 Atom     1 has atomic number  6 and mass  12.00000

 Molecular mass:   200.13135 amu.
 Principal axes and moments of inertia in atomic units:
                           1         2         3
     Eigenvalues --  2616.075653659.128146224.18853
           X            0.99993   0.01177   0.00115
           Y           -0.01177   0.99993  -0.00112
           Z           -0.00117   0.00111   1.00000
 This molecule is an asymmetric top.
 Rotational symmetry number  1.
 Warning -- assumption of classical behavior for rotation
           may cause significant error
 Rotational temperatures (Kelvin)      0.03311     0.02367     0.01392
 Rotational constants (GHZ):           0.68987     0.49322     0.28996
 Zero-point vibrational energy     696584.5 (Joules/Mol)
                                  166.48768 (Kcal/Mol)
 Warning -- explicit consideration of  22 degrees of freedom as
           vibrations may cause significant error
 Vibrational temperatures:     80.07    98.37   118.72   133.14   155.64
          (Kelvin)            161.95   248.37   280.56   308.49   318.55
                              389.13   421.35   471.71   528.68   538.09
                              605.79   654.67   677.05   758.85   785.19
                              798.61   888.11   921.19   939.26   973.24
                             1086.30  1139.29  1188.18  1214.63  1224.09
                             1230.63  1260.03  1324.03  1369.28  1414.41
                             1466.05  1470.11  1500.47  1538.44  1545.78
                             1549.31  1619.70  1679.23  1688.58  1717.95
                             1768.11  1801.30  1857.79  1864.87  1889.57
                             1966.16  2004.42  2032.52  2046.12  2071.71
                             2077.62  2081.03  2103.63  2141.39  2171.49
                             2176.84  2179.01  2190.93  2198.53  2203.56
                             2228.44  2239.59  2272.53  2333.66  2381.27
                             2428.05  4296.74  4374.18  4380.18  4388.68
                             4410.38  4446.89  4452.48  4486.40  4493.18
                             4515.23  4546.02  4565.81  4573.42  4627.42
                             4628.59  5182.72

 Zero-point correction=                           0.265315 (Hartree/Particle)
 Thermal correction to Energy=                    0.279892
 Thermal correction to Enthalpy=                  0.280837
 Thermal correction to Gibbs Free Energy=         0.223664
 Sum of electronic and zero-point Energies=           -614.345956
 Sum of electronic and thermal Energies=              -614.331379
 Sum of electronic and thermal Enthalpies=            -614.330435
 Sum of electronic and thermal Free Energies=         -614.387607

                     E (Thermal)             CV                S
                      KCal/Mol        Cal/Mol-Kelvin    Cal/Mol-Kelvin
 Total                  175.635             55.274            120.329
 Electronic               0.000              0.000              0.000
 Translational            0.889              2.981             41.786
 Rotational               0.889              2.981             32.455
 Vibrational            173.858             49.312             46.089
 Vibration     1          0.596              1.975              4.606
 Vibration     2          0.598              1.969              4.200
 Vibration     3          0.600              1.961              3.830
 Vibration     4          0.602              1.955              3.606
 Vibration     5          0.606              1.943              3.301
 Vibration     6          0.607              1.939              3.224
 Vibration     7          0.626              1.876              2.407
 Vibration     8          0.636              1.847              2.180
 Vibration     9          0.644              1.819              2.006
 Vibration    10          0.648              1.808              1.948
 Vibration    11          0.674              1.728              1.593
 Vibration    12          0.688              1.687              1.457
 Vibration    13          0.711              1.620              1.271
 Vibration    14          0.740              1.539              1.090
 Vibration    15          0.745              1.525              1.063
 Vibration    16          0.784              1.424              0.888
 Vibration    17          0.813              1.350              0.781
 Vibration    18          0.828              1.315              0.736
 Vibration    19          0.882              1.189              0.593
 Vibration    20          0.901              1.149              0.553
 Vibration    21          0.911              1.129              0.534
 Vibration    22          0.977              0.995              0.421

 Optimization completed.
    -- Stationary point found.
 Normal termination of Gaussian 16 at Thu Dec 10 14:58:09 2020.

 ----------------------------------------------------------------------
 # B3LYP/6-311++G(d,p) empiricaldispersion=gd3bj scf=xqc pop=npa geom=c
 heck
 ----------------------------------------------------------------------

 --------------------------------------
 CID_62201642_JID_5052_Energie_neutraal
 --------------------------------------
 Structure from the checkpoint file:  "JID_5052.chk"
 Charge =  0 Multiplicity = 1

 SCF Done:  E(RB3LYP) =  -614.771533889     A.U. after   15 cycles
 Normal termination of Gaussian 16 at Thu Dec 10 15:01:51 2020.

 ----------------------------------------------------------------------
 # B3LYP/6-311++G(d,p) empiricaldispersion=gd3bj scf=xqc pop=npa geom=c
 heck
 ----------------------------------------------------------------------

 ------------------------------------
 CID_62201642_JID_5052_Energie_kation
 ------------------------------------
 Structure from the checkpoint file:  "JID_5052.chk"
 Charge =  1 Multiplicity = 2

 SCF Done:  E(UB3LYP) =  -614.501291245     A.U. after   22 cycles
 Normal termination of Gaussian 16 at Thu Dec 10 15:13:28 2020.
 Gaussian 16:  ES64L-G16RevA.03 25-Dec-2016

 ----------------------------------------------------------------------
 # B3LYP/6-311++G(d,p) empiricaldispersion=gd3bj scf=xqc pop=npa geom=c
 heck
 ----------------------------------------------------------------------

 -----------------------------------
 CID_62201642_JID_5052_Energie_anion
 -----------------------------------
 Structure from the checkpoint file:  "JID_5052.chk"
 Charge = -1 Multiplicity = 2

                         Standard orientation:
 ---------------------------------------------------------------------
 Center     Atomic      Atomic             Coordinates (Angstroms)
 Number     Number       Type             X           Y           Z
 ---------------------------------------------------------------------
      1          6           0        3.410979   -3.017064    0.052805
      2          6           0        3.028647   -1.541302    0.073497
      3          7           0        1.591113   -1.390750   -0.087304
      4          6           0        0.981172   -0.154803   -0.049030
      5          6           0       -0.455762   -0.068021   -0.024604
      6          6           0       -1.310273   -1.196715   -0.063435
      7          6           0       -2.685518   -1.072890   -0.012565
      8          6           0       -3.243395    0.228039    0.077426
      9          6           0       -2.442218    1.345325    0.095355
     10          6           0       -1.029300    1.235388    0.036607
     11          7           0       -0.298242    2.390412    0.034875
     12          6           0        1.016320    2.275960   -0.025888
     13          6           0        1.695622    1.033009   -0.061187
     14          6           0        1.818262    3.553581   -0.039865
     15          6           0       -3.588635   -2.279683   -0.061883
     16          1           0        2.943596   -3.557996    0.885131
     17          1           0        4.494657   -3.133614    0.148775
     18          1           0        3.093529   -3.487205   -0.883747
     19          1           0        3.379445   -1.069028    1.006388
     20          1           0        3.526383   -1.018404   -0.752050
     21          1           0        1.050014   -2.142752    0.317014
     22          1           0       -0.887839   -2.192659   -0.171368
     23          1           0       -4.324748    0.336278    0.121197
     24          1           0       -2.859667    2.345684    0.149045
     25          1           0        2.779334    1.029131   -0.080550
     26          1           0        1.143757    4.409887    0.019390
     27          1           0        2.517474    3.592109    0.804831
     28          1           0        2.415251    3.634532   -0.957010
     29          1           0       -3.013510   -3.207701   -0.138921
     30          1           0       -4.214363   -2.346321    0.837118
     31          1           0       -4.268807   -2.234513   -0.921646
 ---------------------------------------------------------------------

 SCF Done:  E(UB3LYP) =  -614.763688552     A.U. after   33 cycles
 SCF Done:  E(UB3LYP) =  -614.763688552     a.u. after    1 cycles

 The electronic state is 2-A.
 Alpha  occ. eigenvalues --  -14.21322 -14.16247 -10.09684 -10.09309 -10.08493
 Alpha  occ. eigenvalues --  -10.07866 -10.06845 -10.06219 -10.06060 -10.05885
 Alpha  occ. eigenvalues --  -10.05653 -10.04949 -10.04753 -10.04030 -10.04021
 Alpha  occ. eigenvalues --   -0.83254  -0.80695  -0.73096  -0.67938  -0.66386
 Alpha  occ. eigenvalues --   -0.63036  -0.62620  -0.60509  -0.56217  -0.53311
 Alpha  occ. eigenvalues --   -0.49994  -0.48228  -0.46989  -0.41892  -0.39385
 Alpha  occ. eigenvalues --   -0.38433  -0.36622  -0.34673  -0.34258  -0.32734
 Alpha  occ. eigenvalues --   -0.32148  -0.31720  -0.31115  -0.30421  -0.28629
 Alpha  occ. eigenvalues --   -0.28338  -0.27485  -0.27421  -0.27074  -0.26412
 Alpha  occ. eigenvalues --   -0.25857  -0.23328  -0.22217  -0.21227  -0.20396
 Alpha  occ. eigenvalues --   -0.13635  -0.13116  -0.12298  -0.09233   0.04594
 Alpha virt. eigenvalues --    0.06320   0.07216   0.07967   0.08888   0.09148
 Alpha virt. eigenvalues --    0.09335   0.09594   0.10285   0.11209   0.11279
 Alpha virt. eigenvalues --    0.11964   0.12116   0.12762   0.13312   0.13503

  Beta  occ. eigenvalues --  -14.21313 -14.16104 -10.09665 -10.09117 -10.08440
  Beta  occ. eigenvalues --  -10.07899 -10.06842 -10.06199 -10.06008 -10.05916
  Beta  occ. eigenvalues --  -10.05655 -10.04880 -10.04595 -10.04002 -10.03864
  Beta  occ. eigenvalues --   -0.83115  -0.80518  -0.72902  -0.67741  -0.66280
  Beta  occ. eigenvalues --   -0.62939  -0.62416  -0.60378  -0.56114  -0.53164
  Beta  occ. eigenvalues --   -0.49771  -0.48099  -0.46813  -0.41797  -0.39264
  Beta  occ. eigenvalues --   -0.38310  -0.36531  -0.34598  -0.34205  -0.32688
  Beta  occ. eigenvalues --   -0.32014  -0.31597  -0.31005  -0.30339  -0.28566
  Beta  occ. eigenvalues --   -0.28068  -0.27413  -0.27375  -0.27009  -0.26230
  Beta  occ. eigenvalues --   -0.25775  -0.23238  -0.22115  -0.20655  -0.19822
  Beta  occ. eigenvalues --   -0.13037  -0.12911  -0.11891  -0.08558
  Beta virt. eigenvalues --    0.06921   0.07448   0.08047   0.08254   0.09142
  Beta virt. eigenvalues --    0.09272   0.09532   0.09912   0.10601   0.11319
  Beta virt. eigenvalues --    0.11371   0.11979   0.12182   0.12947   0.13399

 Mulliken charges and spin densities:
               1          2
     1  C    2.024910  -2.758598
     2  C   -0.957088   0.974872
     3  N    0.035760   0.074699
     4  C    0.148949  -0.339751
     5  C    0.790825  -0.340964
     6  C   -0.488369  -0.079176
     7  C   -0.400580   0.481284
     8  C   -0.247635   0.128565
     9  C   -0.405317   0.127694
    10  C   -0.325433  -0.067840
    11  N    0.029688   0.072755
    12  C   -0.747848   0.238591
    13  C    0.339327   0.431765
    14  C   -0.375255  -0.187706
    15  C   -0.235591  -0.212515
    16  H   -0.350393   0.478543
    17  H   -0.702898   0.856164
    18  H   -0.279171   0.437581
    19  H   -0.072559   0.226112
    20  H   -0.019135   0.162931
    21  H    0.552378  -0.305867
    22  H   -0.194160   0.214491
    23  H    0.118795  -0.002978
    24  H    0.129950  -0.002953
    25  H   -0.028113   0.212726
    26  H    0.147031   0.006498
    27  H    0.106851   0.027267
    28  H    0.122013   0.013583
    29  H    0.046461   0.103267
    30  H    0.115194   0.016075
    31  H    0.121416   0.012884
 Sum of Mulliken charges =  -1.00000   1.00000

 Dipole moment (field-independent basis, Debye):
    X=             -5.2216    Y=              2.8818    Z=              0.4726  Tot=              5.9827
 Quadrupole moment (field-independent basis, Debye-Ang):
   XX=           -151.3923   YY=           -141.6804   ZZ=           -110.9385
   XY=             26.1194   XZ=             -2.0045   YZ=             -1.8050

 Summary of Natural Population Analysis:

                                       Natural Population
                Natural  -----------------------------------------------
    Atom  No    Charge         Core      Valence    Rydberg      Total
 -----------------------------------------------------------------------
      C    1   -0.28789      0.99967     2.28298    0.00525     3.28789
      C    2   -0.08668      0.99964     2.07545    0.01159     3.08668
      N    3   -0.30657      0.99966     2.79669    0.01022     3.80657
      C    4    0.14973      0.99948     1.84016    0.01063     2.85027
      C    5   -0.05853      0.99946     2.05086    0.00820     3.05853
      C    6   -0.07222      0.99949     2.06408    0.00865     3.07222
      C    7   -0.02225      0.99952     2.01479    0.00795     3.02225
      C    8   -0.09464      0.99952     2.08661    0.00850     3.09464
      C    9   -0.06386      0.99954     2.05518    0.00914     3.06386
      C   10    0.08252      0.99948     1.90599    0.01201     2.91748
      N   11   -0.24763      0.99966     2.73635    0.01162     3.74763
      C   12    0.12539      0.99958     1.86207    0.01297     2.87461
      C   13   -0.16830      0.99948     2.15980    0.00902     3.16830
      C   14   -0.29756      0.99964     2.29294    0.00498     3.29756
      C   15   -0.28896      0.99964     2.28432    0.00499     3.28896
      H   16    0.09445      0.00000     0.40417    0.00138     0.40555
      H   17    0.10520      0.00000     0.39233    0.00247     0.39480
      H   18    0.10123      0.00000     0.39712    0.00165     0.39877
      H   19    0.08615      0.00000     0.41222    0.00164     0.41385
      H   20    0.09249      0.00000     0.40608    0.00144     0.40751
      H   21    0.18477      0.00000     0.31201    0.00322     0.31523
      H   22    0.08979      0.00000     0.40839    0.00182     0.41021
      H   23    0.08964      0.00000     0.40914    0.00121     0.41036
      H   24    0.09691      0.00000     0.40162    0.00147     0.40309
      H   25    0.09970      0.00000     0.39897    0.00133     0.40030
      H   26    0.10558      0.00000     0.39318    0.00125     0.39442
      H   27    0.09827      0.00000     0.40050    0.00123     0.40173
      H   28    0.09872      0.00000     0.40011    0.00117     0.40128
      H   29    0.09965      0.00000     0.39953    0.00082     0.40035
      H   30    0.09725      0.00000     0.40150    0.00126     0.40275
      H   31    0.09766      0.00000     0.40096    0.00138     0.40234
 =======================================================================
   * Total *   -0.00000     14.99346    38.84610    0.16044    54.00000

 Normal termination of Gaussian 16 at Thu Dec 10 15:26:29 2020.
