 Gaussian 16, Revision A.03,

 -----------------------------------------------------------
 # opt freq B3LYP/6-31G(d) empiricaldispersion=gd3bj scf=xqc
 -----------------------------------------------------------

 --------------------------------
 CID_102893639_JID_10023_neutraal
 --------------------------------
 Symbolic Z-matrix:
 Charge =  0 Multiplicity = 1

 SCF Done:  E(RB3LYP) =  -1223.20570442     A.U. after   14 cycles
 SCF Done:  E(RB3LYP) =  -1223.21041690     A.U. after   13 cycles
 SCF Done:  E(RB3LYP) =  -1223.21008370     A.U. after   12 cycles
 SCF Done:  E(RB3LYP) =  -1223.21123076     A.U. after   12 cycles
 SCF Done:  E(RB3LYP) =  -1223.21199038     A.U. after   12 cycles
 SCF Done:  E(RB3LYP) =  -1223.21220680     A.U. after   12 cycles
 SCF Done:  E(RB3LYP) =  -1223.21257887     A.U. after   12 cycles
 SCF Done:  E(RB3LYP) =  -1223.21336794     A.U. after   13 cycles
 SCF Done:  E(RB3LYP) =  -1223.17264717     A.U. after   13 cycles
 SCF Done:  E(RB3LYP) =  -1223.21272392     A.U. after   14 cycles
 SCF Done:  E(RB3LYP) =  -1223.21595692     A.U. after   10 cycles
 SCF Done:  E(RB3LYP) =  -1223.21595846     A.U. after    8 cycles
 SCF Done:  E(RB3LYP) =  -1223.21595912     A.U. after    8 cycles
 SCF Done:  E(RB3LYP) =  -1223.21595926     A.U. after    7 cycles
 SCF Done:  E(RB3LYP) =  -1223.21595930     A.U. after    7 cycles
 Optimization completed.
    -- Stationary point found.
 Normal termination of Gaussian 16 at Sun Dec 13 17:05:05 2020.

 --------------------------------------------------------------------
 #N Geom=AllCheck Guess=TCheck SCRF=Check GenChk RB3LYP/6-31G(d) Freq
 --------------------------------------------------------------------

 Structure from the checkpoint file:  "JID_10023.chk"
 --------------------------------
 CID_102893639_JID_10023_neutraal
 --------------------------------
 Charge =  0 Multiplicity = 1

 SCF Done:  E(RB3LYP) =  -1223.21595930     A.U. after    1 cycles

  Exact polarizability: 205.363 -15.206 181.010   2.882  -2.080 169.443
 Approx polarizability: 275.442 -30.266 256.810   2.950 -13.805 303.504

                      1                      2                      3
                      A                      A                      A
 Frequencies --     21.3889                26.6365                41.7905
 Red. masses --      3.8744                 3.8090                 5.4066
 Frc consts  --      0.0010                 0.0016                 0.0056
 IR Inten    --      0.2438                 0.1664                 1.1956

                      4                      5                      6
                      A                      A                      A
 Frequencies --     48.2024                56.4289                65.8812
 Red. masses --      3.2461                 3.1694                 5.1286
 Frc consts  --      0.0044                 0.0059                 0.0131
 IR Inten    --      0.0769                 0.2444                 0.8551

                      7                      8                      9
                      A                      A                      A
 Frequencies --    101.3476               109.5947               137.8731
 Red. masses --      3.2213                 3.3960                 4.0753
 Frc consts  --      0.0195                 0.0240                 0.0456
 IR Inten    --      0.8518                 0.7624                 0.9881

                     10                     11                     12
                      A                      A                      A
 Frequencies --    158.8062               172.6544               198.3707
 Red. masses --      3.1287                 3.4284                 3.0683
 Frc consts  --      0.0465                 0.0602                 0.0711
 IR Inten    --      3.3006                 0.6332                 0.5640

                     13                     14                     15
                      A                      A                      A
 Frequencies --    211.2814               223.3174               264.8061
 Red. masses --      2.7107                 3.4806                 1.1304
 Frc consts  --      0.0713                 0.1023                 0.0467
 IR Inten    --      1.1616                 1.1552                 0.0138

                     16                     17                     18
                      A                      A                      A
 Frequencies --    279.4109               316.3648               326.8305
 Red. masses --      1.3466                 3.1217                 2.6416
 Frc consts  --      0.0619                 0.1841                 0.1663
 IR Inten    --      0.9729                 6.4913                 9.2001

                     19                     20                     21
                      A                      A                      A
 Frequencies --    361.1327               375.3786               387.0975
 Red. masses --      2.7410                 4.4191                 5.2314
 Frc consts  --      0.2106                 0.3669                 0.4619
 IR Inten    --      7.2000                 0.4064                 4.2681

                     22                     23                     24
                      A                      A                      A
 Frequencies --    396.9092               409.1709               510.1977
 Red. masses --      2.1110                 3.6424                 3.1373
 Frc consts  --      0.1959                 0.3593                 0.4811
 IR Inten    --      0.0131                 3.2047                10.7661

                     25                     26                     27
                      A                      A                      A
 Frequencies --    541.0982               553.2283               559.6157
 Red. masses --      2.9239                 2.9045                 3.0056
 Frc consts  --      0.5044                 0.5238                 0.5546
 IR Inten    --     23.8538                24.4250                31.9374

                     28                     29                     30
                      A                      A                      A
 Frequencies --    561.3674               587.9668               611.8292
 Red. masses --      1.7965                 3.3125                 3.7550
 Frc consts  --      0.3336                 0.6747                 0.8282
 IR Inten    --     18.9781                 4.4160                27.3864

                     31                     32                     33
                      A                      A                      A
 Frequencies --    636.9014               666.4110               690.2625
 Red. masses --      3.2442                 4.5597                 4.0913
 Frc consts  --      0.7754                 1.1931                 1.1485
 IR Inten    --      2.2570                14.0591                39.3533

                     34                     35                     36
                      A                      A                      A
 Frequencies --    702.5264               711.8982               770.7258
 Red. masses --      3.9195                 4.8370                 6.2160
 Frc consts  --      1.1397                 1.4443                 2.1755
 IR Inten    --     11.2784                12.3438                 4.7615

                     37                     38                     39
                      A                      A                      A
 Frequencies --    773.6928               795.2464               803.4625
 Red. masses --      2.5301                 1.1782                 3.9610
 Frc consts  --      0.8923                 0.4390                 1.5066
 IR Inten    --      0.5031                 0.2100                 6.8603

                     40                     41                     42
                      A                      A                      A
 Frequencies --    857.7218               870.3410               870.8292
 Red. masses --      2.4103                 2.4220                 1.3535
 Frc consts  --      1.0447                 1.0809                 0.6047
 IR Inten    --     38.6913                 8.0901                11.7774

                     43                     44                     45
                      A                      A                      A
 Frequencies --    876.9072               905.6467               919.3355
 Red. masses --      2.1276                 2.3324                 2.3883
 Frc consts  --      0.9639                 1.1271                 1.1893
 IR Inten    --      1.5462                27.6776                23.0802

                     46                     47                     48
                      A                      A                      A
 Frequencies --    946.8353               957.9527               973.8500
 Red. masses --      2.3531                 1.8917                 2.1528
 Frc consts  --      1.2429                 1.0228                 1.2029
 IR Inten    --      1.5453                12.7498                 5.3191

                     49                     50                     51
                      A                      A                      A
 Frequencies --    986.2401               986.5938              1020.9831
 Red. masses --      2.3541                 2.3632                 1.6263
 Frc consts  --      1.3491                 1.3553                 0.9988
 IR Inten    --      9.8580                 1.9866                 1.1373

                     52                     53                     54
                      A                      A                      A
 Frequencies --   1031.3471              1048.9252              1061.3839
 Red. masses --      1.7967                 1.7072                 1.7638
 Frc consts  --      1.1260                 1.1067                 1.1707
 IR Inten    --     24.1665                 0.6841                 9.3845

                     55                     56                     57
                      A                      A                      A
 Frequencies --   1084.4108              1098.1877              1102.7537
 Red. masses --      1.8796                 2.3143                 1.6726
 Frc consts  --      1.3023                 1.6445                 1.1984
 IR Inten    --      2.6478                 4.8396                 2.0541

                     58                     59                     60
                      A                      A                      A
 Frequencies --   1121.8969              1142.9738              1143.5699
 Red. masses --      1.4839                 3.3940                 1.9818
 Frc consts  --      1.1004                 2.6123                 1.5270
 IR Inten    --      0.3762                14.3293                15.1883

                     61                     62                     63
                      A                      A                      A
 Frequencies --   1151.2081              1175.4117              1190.1461
 Red. masses --      2.0301                 2.8467                 2.3047
 Frc consts  --      1.5852                 2.3173                 1.9234
 IR Inten    --      0.5420                30.0455                13.2641

                     64                     65                     66
                      A                      A                      A
 Frequencies --   1192.5307              1200.4318              1229.2104
 Red. masses --      1.8909                 1.4619                 1.4678
 Frc consts  --      1.5844                 1.2412                 1.3066
 IR Inten    --      5.1444                 2.4799                19.3040

                     67                     68                     69
                      A                      A                      A
 Frequencies --   1234.8447              1248.8799              1261.7881
 Red. masses --      1.2866                 3.0695                 1.3217
 Frc consts  --      1.1559                 2.8207                 1.2398
 IR Inten    --      3.1739                28.5079                 2.9279

                     70                     71                     72
                      A                      A                      A
 Frequencies --   1299.0063              1307.3201              1307.6742
 Red. masses --      1.3646                 1.1647                 1.4732
 Frc consts  --      1.3567                 1.1728                 1.4842
 IR Inten    --     39.8433                10.8915               107.0339

                     73                     74                     75
                      A                      A                      A
 Frequencies --   1316.2623              1320.9600              1333.2997
 Red. masses --      1.4113                 1.8541                 1.3887
 Frc consts  --      1.4407                 1.9062                 1.4545
 IR Inten    --      0.5880                 7.1217                 1.9747

                     76                     77                     78
                      A                      A                      A
 Frequencies --   1336.9320              1347.4096              1351.4212
 Red. masses --      1.3847                 1.4129                 1.4367
 Frc consts  --      1.4582                 1.5113                 1.5460
 IR Inten    --     30.7531                 7.2341                21.9473

                     79                     80                     81
                      A                      A                      A
 Frequencies --   1354.0434              1375.8264              1379.5334
 Red. masses --      1.5161                 1.4008                 1.4126
 Frc consts  --      1.6377                 1.5622                 1.5840
 IR Inten    --     22.3391                 1.9097                11.9568

                     82                     83                     84
                      A                      A                      A
 Frequencies --   1393.3959              1397.2821              1404.3609
 Red. masses --      1.5699                 1.5001                 1.5924
 Frc consts  --      1.7958                 1.7256                 1.8503
 IR Inten    --     13.1360                 1.2337                52.1439

                     85                     86                     87
                      A                      A                      A
 Frequencies --   1430.1687              1440.6681              1483.1647
 Red. masses --      1.2443                 1.2484                 1.3737
 Frc consts  --      1.4995                 1.5267                 1.7804
 IR Inten    --     13.7637                 3.4820                 6.0127

                     88                     89                     90
                      A                      A                      A
 Frequencies --   1487.0496              1510.9022              1513.4257
 Red. masses --      1.5903                 1.1753                 1.0944
 Frc consts  --      2.0720                 1.5808                 1.4768
 IR Inten    --     66.1207                 3.4235                 2.7493

                     91                     92                     93
                      A                      A                      A
 Frequencies --   1517.7525              1520.4655              1527.1772
 Red. masses --      1.0853                 1.0589                 1.1368
 Frc consts  --      1.4729                 1.4423                 1.5621
 IR Inten    --      3.3790                 5.6838                 5.6063

                     94                     95                     96
                      A                      A                      A
 Frequencies --   1528.5263              1534.9248              1539.4076
 Red. masses --      1.0397                 1.1081                 1.0775
 Frc consts  --      1.4312                 1.5381                 1.5045
 IR Inten    --      6.8907                 2.2319                 1.8762

                     97                     98                     99
                      A                      A                      A
 Frequencies --   1547.8596              1551.1067              1599.7028
 Red. masses --      3.7258                 1.0967                 5.7450
 Frc consts  --      5.2594                 1.5546                 8.6621
 IR Inten    --     14.3008                 1.4379                11.0894

                    100                    101                    102
                      A                      A                      A
 Frequencies --   1774.8733              3001.3177              3019.2175
 Red. masses --      8.4693                 1.0694                 1.0835
 Frc consts  --     15.7193                 5.6758                 5.8193
 IR Inten    --    338.5429                54.8629                27.6621

                    103                    104                    105
                      A                      A                      A
 Frequencies --   3034.7291              3047.7490              3049.9022
 Red. masses --      1.0598                 1.0664                 1.0684
 Frc consts  --      5.7505                 5.8362                 5.8551
 IR Inten    --     22.1194                29.4256                25.1477

                    106                    107                    108
                      A                      A                      A
 Frequencies --   3056.0054              3058.8226              3059.0158
 Red. masses --      1.0372                 1.0397                 1.0974
 Frc consts  --      5.7070                 5.7313                 6.0506
 IR Inten    --     19.6601                20.1920                12.8114

                    109                    110                    111
                      A                      A                      A
 Frequencies --   3062.9109              3080.4330              3086.0315
 Red. masses --      1.0607                 1.0950                 1.0853
 Frc consts  --      5.8629                 6.1219                 6.0897
 IR Inten    --     33.3377                31.2795                45.2192

                    112                    113                    114
                      A                      A                      A
 Frequencies --   3098.5895              3102.5047              3105.6771
 Red. masses --      1.0976                 1.0979                 1.0852
 Frc consts  --      6.2091                 6.2264                 6.1671
 IR Inten    --     29.6522                35.2292                 2.3686

                    115                    116                    117
                      A                      A                      A
 Frequencies --   3113.6284              3127.3268              3127.7437
 Red. masses --      1.1056                 1.0862                 1.1031
 Frc consts  --      6.3151                 6.2590                 6.3580
 IR Inten    --     51.9825                24.5049                26.5729

                    118                    119                    120
                      A                      A                      A
 Frequencies --   3130.2778              3132.2433              3155.0254
 Red. masses --      1.1000                 1.1027                 1.1028
 Frc consts  --      6.3504                 6.3742                 6.4680
 IR Inten    --     26.5884                28.5423                12.2157

                    121                    122                    123
                      A                      A                      A
 Frequencies --   3239.5871              3503.4104              3576.6003
 Red. masses --      1.0930                 1.0732                 1.0758
 Frc consts  --      6.7585                 7.7611                 8.1079
 IR Inten    --     11.5225                 5.0562                18.0087

 - Thermochemistry -
 -------------------
 Temperature   298.150 Kelvin.  Pressure   1.00000 Atm.
 Atom     1 has atomic number  6 and mass  12.00000

 Molecular mass:   293.15618 amu.
 Principal axes and moments of inertia in atomic units:
                           1         2         3
     Eigenvalues --  4065.483808234.182249969.53507
           X            0.99998  -0.00130  -0.00567
           Y            0.00146   0.99960   0.02823
           Z            0.00563  -0.02823   0.99959
 This molecule is an asymmetric top.
 Rotational symmetry number  1.
 Warning -- assumption of classical behavior for rotation
           may cause significant error
 Rotational temperatures (Kelvin)      0.02130     0.01052     0.00869
 Rotational constants (GHZ):           0.44392     0.21918     0.18103
 Zero-point vibrational energy     979507.7 (Joules/Mol)
                                  234.10795 (Kcal/Mol)
 Warning -- explicit consideration of  30 degrees of freedom as
           vibrations may cause significant error
 Vibrational temperatures:     30.77    38.32    60.13    69.35    81.19
          (Kelvin)             94.79   145.82   157.68   198.37   228.49
                              248.41   285.41   303.99   321.30   381.00
                              402.01   455.18   470.24   519.59   540.09
                              556.95   571.06   588.71   734.06   778.52
                              795.97   805.16   807.68   845.95   880.29
                              916.36   958.82   993.13  1010.78  1024.26
                             1108.90  1113.17  1144.18  1156.00  1234.07
                             1252.23  1252.93  1261.67  1303.02  1322.72
                             1362.28  1378.28  1401.15  1418.98  1419.49
                             1468.97  1483.88  1509.17  1527.09  1560.23
                             1580.05  1586.62  1614.16  1644.48  1645.34
                             1656.33  1691.16  1712.35  1715.79  1727.15
                             1768.56  1776.67  1796.86  1815.43  1868.98
                             1880.94  1881.45  1893.81  1900.57  1918.32
                             1923.55  1938.62  1944.39  1948.17  1979.51
                             1984.84  2004.79  2010.38  2020.56  2057.69
                             2072.80  2133.94  2139.53  2173.85  2177.48
                             2183.71  2187.61  2197.27  2199.21  2208.41
                             2214.86  2227.02  2231.70  2301.62  2553.65
                             4318.23  4343.98  4366.30  4385.03  4388.13
                             4396.91  4400.96  4401.24  4406.85  4432.06
                             4440.11  4458.18  4463.81  4468.38  4479.82
                             4499.53  4500.13  4503.77  4506.60  4539.38
                             4661.04  5040.63  5145.93

 Zero-point correction=                           0.373075 (Hartree/Particle)
 Thermal correction to Energy=                    0.392697
 Thermal correction to Enthalpy=                  0.393642
 Thermal correction to Gibbs Free Energy=         0.322738
 Sum of electronic and zero-point Energies=          -1222.842885
 Sum of electronic and thermal Energies=             -1222.823262
 Sum of electronic and thermal Enthalpies=           -1222.822318
 Sum of electronic and thermal Free Energies=        -1222.893222

                     E (Thermal)             CV                S
                      KCal/Mol        Cal/Mol-Kelvin    Cal/Mol-Kelvin
 Total                  246.421             74.888            149.230
 Electronic               0.000              0.000              0.000
 Translational            0.889              2.981             42.924
 Rotational               0.889              2.981             34.167
 Vibrational            244.644             68.926             72.139
 Vibration     1          0.593              1.985              6.501
 Vibration     2          0.593              1.984              6.065
 Vibration     3          0.594              1.980              5.172
 Vibration     4          0.595              1.978              4.890
 Vibration     5          0.596              1.975              4.578
 Vibration     6          0.597              1.971              4.273
 Vibration     7          0.604              1.948              3.428
 Vibration     8          0.606              1.942              3.276
 Vibration     9          0.614              1.915              2.833
 Vibration    10          0.621              1.893              2.564
 Vibration    11          0.626              1.876              2.406
 Vibration    12          0.637              1.842              2.148
 Vibration    13          0.643              1.824              2.033
 Vibration    14          0.649              1.806              1.932
 Vibration    15          0.671              1.738              1.630
 Vibration    16          0.680              1.712              1.537
 Vibration    17          0.703              1.642              1.329
 Vibration    18          0.710              1.622              1.276
 Vibration    19          0.735              1.552              1.117
 Vibration    20          0.746              1.523              1.058
 Vibration    21          0.756              1.498              1.011
 Vibration    22          0.763              1.477              0.974
 Vibration    23          0.774              1.450              0.930
 Vibration    24          0.865              1.227              0.633
 Vibration    25          0.896              1.159              0.563
 Vibration    26          0.909              1.133              0.538
 Vibration    27          0.915              1.119              0.525
 Vibration    28          0.917              1.115              0.521
 Vibration    29          0.945              1.057              0.471
 Vibration    30          0.971              1.007              0.430

                           ! Non-Optimized Parameters !
 Normal termination of Gaussian 16 at Sun Dec 13 17:30:04 2020.

 ----------------------------------------------------------------------
 # B3LYP/6-311++G(d,p) empiricaldispersion=gd3bj scf=xqc pop=npa geom=c
 heck
 ----------------------------------------------------------------------

 ----------------------------------------
 CID_102893639_JID_10023_Energie_neutraal
 ----------------------------------------
 Structure from the checkpoint file:  "JID_10023.chk"
 Charge =  0 Multiplicity = 1

 SCF Done:  E(RB3LYP) =  -1223.47088196     A.U. after   15 cycles
 Normal termination of Gaussian 16 at Sun Dec 13 17:40:45 2020.

 ----------------------------------------------------------------------
 # B3LYP/6-311++G(d,p) empiricaldispersion=gd3bj scf=xqc pop=npa geom=c
 heck
 ----------------------------------------------------------------------

 --------------------------------------
 CID_102893639_JID_10023_Energie_kation
 --------------------------------------
 Structure from the checkpoint file:  "JID_10023.chk"
 Charge =  1 Multiplicity = 2

 SCF Done:  E(UB3LYP) =  -1223.17871892     A.U. after   26 cycles
 Normal termination of Gaussian 16 at Sun Dec 13 18:05:51 2020.
 Gaussian 16:  ES64L-G16RevA.03 25-Dec-2016

 ----------------------------------------------------------------------
 # B3LYP/6-311++G(d,p) empiricaldispersion=gd3bj scf=xqc pop=npa geom=c
 heck
 ----------------------------------------------------------------------

 -------------------------------------
 CID_102893639_JID_10023_Energie_anion
 -------------------------------------
 Structure from the checkpoint file:  "JID_10023.chk"
 Charge = -1 Multiplicity = 2

                         Standard orientation:
 ---------------------------------------------------------------------
 Center     Atomic      Atomic             Coordinates (Angstroms)
 Number     Number       Type             X           Y           Z
 ---------------------------------------------------------------------
      1          6           0        5.010929   -2.184221   -0.513138
      2          6           0        4.150418   -1.156131   -1.253339
      3          6           0        3.162474   -0.458237   -0.361661
      4          6           0        2.940335   -0.608931    0.978988
      5          7           0        1.942871    0.168503    1.532466
      6          6           0        1.383345    0.920125    0.634266
      7         16           0        2.042200    0.734854   -0.987007
      8          6           0        0.295121    1.924734    0.942022
      9          6           0        0.898163    3.200355    1.547092
     10          7           0       -0.507020    2.260833   -0.223826
     11          6           0       -1.700552    1.716423   -0.632873
     12          8           0       -2.291647    2.180882   -1.601131
     13          6           0       -2.272943    0.541909    0.179670
     14          6           0       -1.439354   -0.769106    0.005415
     15          6           0       -1.155412   -1.491474    1.332809
     16          6           0       -2.471217   -2.223157    1.629884
     17          6           0       -2.887124   -2.767979    0.251679
     18          6           0       -2.391291   -1.723641   -0.787801
     19          6           0       -3.476594   -0.789807   -1.327404
     20          7           0       -3.626461    0.200927   -0.252197
     21          1           0        5.594128   -1.711772    0.284333
     22          1           0        5.710528   -2.662045   -1.205729
     23          1           0        4.391910   -2.967474   -0.063055
     24          1           0        4.801080   -0.410610   -1.730145
     25          1           0        3.613468   -1.651363   -2.073583
     26          1           0        3.482294   -1.293783    1.619691
     27          1           0       -0.348584    1.459525    1.692673
     28          1           0        1.546592    3.701287    0.818626
     29          1           0        0.103449    3.890894    1.846223
     30          1           0        1.503073    2.944546    2.420462
     31          1           0       -0.218142    3.058918   -0.778301
     32          1           0       -2.294265    0.841616    1.236846
     33          1           0       -0.520836   -0.564911   -0.546804
     34          1           0       -0.829016   -0.818027    2.131923
     35          1           0       -0.345531   -2.216806    1.181783
     36          1           0       -2.366099   -3.006133    2.388726
     37          1           0       -3.222571   -1.508638    1.984730
     38          1           0       -2.392544   -3.730193    0.070182
     39          1           0       -3.965850   -2.938891    0.176772
     40          1           0       -1.868161   -2.217758   -1.611915
     41          1           0       -4.427777   -1.303892   -1.505747
     42          1           0       -3.148639   -0.333806   -2.274885
     43          1           0       -4.084058    1.037576   -0.610399
 ---------------------------------------------------------------------

 SCF Done:  E(UB3LYP) =  -1223.46438085     A.U. after   33 cycles
 SCF Done:  E(UB3LYP) =  -1223.46438085     a.u. after    1 cycles

 The electronic state is 2-A.
 Alpha  occ. eigenvalues --  -88.75905 -18.99790 -14.24461 -14.20046 -14.19155
 Alpha  occ. eigenvalues --  -10.17873 -10.13086 -10.11051 -10.10796 -10.09234
 Alpha  occ. eigenvalues --  -10.08553 -10.08314 -10.08192 -10.07728 -10.07552
 Alpha  occ. eigenvalues --  -10.07550 -10.07111 -10.06922 -10.06568 -10.06250
 Alpha  occ. eigenvalues --   -7.84559  -5.80827  -5.80490  -5.80171  -0.94946
 Alpha  occ. eigenvalues --   -0.85132  -0.82993  -0.82805  -0.73119  -0.70968
 Alpha  occ. eigenvalues --   -0.68213  -0.65737  -0.65539  -0.62742  -0.61054
 Alpha  occ. eigenvalues --   -0.58760  -0.55168  -0.53963  -0.53007  -0.49162
 Alpha  occ. eigenvalues --   -0.46620  -0.45373  -0.45221  -0.43915  -0.42806
 Alpha  occ. eigenvalues --   -0.39688  -0.39264  -0.37716  -0.36891  -0.36219
 Alpha  occ. eigenvalues --   -0.36024  -0.35005  -0.33783  -0.32801  -0.32405
 Alpha  occ. eigenvalues --   -0.32080  -0.31712  -0.30070  -0.29851  -0.29121
 Alpha  occ. eigenvalues --   -0.28301  -0.27903  -0.27654  -0.27242  -0.25675
 Alpha  occ. eigenvalues --   -0.25361  -0.24314  -0.23965  -0.23902  -0.23254
 Alpha  occ. eigenvalues --   -0.22913  -0.22681  -0.22259  -0.17293  -0.17143
 Alpha  occ. eigenvalues --   -0.16550  -0.15736  -0.13679  -0.12817   0.04210
 Alpha virt. eigenvalues --    0.06091   0.06775   0.06932   0.07867   0.08207
 Alpha virt. eigenvalues --    0.08577   0.09221   0.09373   0.09595   0.10170
 Alpha virt. eigenvalues --    0.10370   0.10789   0.10861   0.11303   0.11454

  Beta  occ. eigenvalues --  -88.75883 -18.99786 -14.24457 -14.20045 -14.19078
  Beta  occ. eigenvalues --  -10.17870 -10.13103 -10.11042 -10.10550 -10.09232
  Beta  occ. eigenvalues --  -10.08366 -10.08313 -10.08207 -10.07729 -10.07539
  Beta  occ. eigenvalues --  -10.07494 -10.07091 -10.06916 -10.06564 -10.06239
  Beta  occ. eigenvalues --   -7.84538  -5.80821  -5.80484  -5.80089  -0.94937
  Beta  occ. eigenvalues --   -0.84945  -0.82925  -0.82797  -0.73106  -0.70768
  Beta  occ. eigenvalues --   -0.68085  -0.65638  -0.65512  -0.62725  -0.60868
  Beta  occ. eigenvalues --   -0.58741  -0.55070  -0.53904  -0.52988  -0.49140
  Beta  occ. eigenvalues --   -0.46482  -0.45305  -0.45144  -0.43759  -0.42759
  Beta  occ. eigenvalues --   -0.39654  -0.39198  -0.37666  -0.36815  -0.36204
  Beta  occ. eigenvalues --   -0.35884  -0.34902  -0.33760  -0.32766  -0.32305
  Beta  occ. eigenvalues --   -0.31962  -0.31671  -0.29991  -0.29702  -0.28980
  Beta  occ. eigenvalues --   -0.28246  -0.27751  -0.27581  -0.27160  -0.25501
  Beta  occ. eigenvalues --   -0.25225  -0.24276  -0.23949  -0.23785  -0.23235
  Beta  occ. eigenvalues --   -0.22887  -0.22657  -0.22244  -0.17232  -0.17109
  Beta  occ. eigenvalues --   -0.16053  -0.15602  -0.13664  -0.11931
  Beta virt. eigenvalues --    0.06372   0.06807   0.07111   0.07978   0.08182
  Beta virt. eigenvalues --    0.08281   0.08626   0.09404   0.09522   0.09966
  Beta virt. eigenvalues --    0.10267   0.10548   0.10859   0.10903   0.11335

 Mulliken charges and spin densities:
               1          2
     1  C    0.130997  -0.717865
     2  C   -0.911785   0.670855
     3  C    0.205770  -0.438993
     4  C   -0.269729   0.017883
     5  N    0.039617   0.098096
     6  C    0.353164  -0.278276
     7  S    0.301441  -0.231633
     8  C   -0.573781   0.535313
     9  C    0.561935  -1.049907
    10  N   -0.167612   0.040789
    11  C   -0.218359   0.050771
    12  O   -0.320784   0.001285
    13  C   -0.337105  -0.364069
    14  C    0.876312  -0.206596
    15  C   -0.599478   0.061229
    16  C   -0.422964  -0.016035
    17  C   -0.127918  -0.482622
    18  C   -0.315804   0.557898
    19  C   -0.138471  -0.250897
    20  N   -0.114853   0.063172
    21  H    0.079206   0.056994
    22  H   -0.329063   0.478979
    23  H   -0.013488   0.160079
    24  H    0.164294  -0.023432
    25  H   -0.261290   0.442574
    26  H    0.053634   0.108038
    27  H    0.227886  -0.043047
    28  H    0.076053   0.039051
    29  H   -0.399436   0.577498
    30  H    0.039485   0.152496
    31  H    0.297758   0.022394
    32  H    0.083048   0.187571
    33  H    0.290525  -0.193080
    34  H   -0.004114   0.178096
    35  H    0.142385   0.031742
    36  H    0.021968   0.144442
    37  H    0.131664   0.025496
    38  H    0.013603   0.113309
    39  H    0.107680   0.020298
    40  H   -0.169705   0.397231
    41  H    0.133330   0.018686
    42  H    0.134142   0.021056
    43  H    0.229841   0.023130
 Sum of Mulliken charges =  -1.00000   1.00000

 Dipole moment (field-independent basis, Debye):
    X=             -1.9012    Y=              0.8004    Z=              0.2816  Tot=              2.0819
 Quadrupole moment (field-independent basis, Debye-Ang):
   XX=           -188.5778   YY=           -180.6828   ZZ=           -168.6423
   XY=             16.1888   XZ=              2.7419   YZ=             -9.2988

 Summary of Natural Population Analysis:

                                       Natural Population
                Natural  -----------------------------------------------
    Atom  No    Charge         Core      Valence    Rydberg      Total
 -----------------------------------------------------------------------
      C    1   -0.28350      0.99967     2.27806    0.00578     3.28350
      C    2   -0.20577      0.99959     2.19713    0.00905     3.20577
      C    3   -0.07729      0.99950     2.06581    0.01197     3.07729
      C    4   -0.03772      0.99944     2.02393    0.01435     3.03772
      N    5   -0.24152      0.99963     2.73085    0.01103     3.74152
      C    6    0.07254      0.99957     1.90968    0.01821     2.92746
      S    7    0.18363      4.99938     2.79966    0.01733     7.81637
      C    8   -0.04025      0.99952     2.02719    0.01354     3.04025
      C    9   -0.27753      0.99964     2.27218    0.00570     3.27753
      N   10   -0.31868      0.99966     2.80905    0.00996     3.81868
      C   11    0.34799      0.99964     1.62958    0.02279     2.65201
      O   12   -0.33140      0.99988     3.32574    0.00579     4.33140
      C   13   -0.05121      0.99955     2.03875    0.01291     3.05121
      C   14   -0.11391      0.99957     2.10338    0.01095     3.11391
      C   15   -0.19020      0.99962     2.18142    0.00916     3.19020
      C   16   -0.19445      0.99964     2.18771    0.00711     3.19445
      C   17   -0.19115      0.99963     2.18250    0.00902     3.19115
      C   18   -0.11142      0.99960     2.10021    0.01162     3.11142
      C   19   -0.08690      0.99961     2.07752    0.00978     3.08690
      N   20   -0.34374      0.99975     2.83330    0.01069     3.84374
      H   21    0.09600      0.00000     0.40302    0.00099     0.40400
      H   22    0.09911      0.00000     0.40005    0.00085     0.40089
      H   23    0.10024      0.00000     0.39861    0.00115     0.39976
      H   24    0.09895      0.00000     0.39989    0.00116     0.40105
      H   25    0.10785      0.00000     0.38969    0.00246     0.39215
      H   26    0.09710      0.00000     0.40157    0.00133     0.40290
      H   27    0.11171      0.00000     0.38551    0.00278     0.38829
      H   28    0.09668      0.00000     0.40238    0.00094     0.40332
      H   29    0.10216      0.00000     0.39595    0.00189     0.39784
      H   30    0.10925      0.00000     0.38986    0.00089     0.39075
      H   31    0.19348      0.00000     0.30422    0.00231     0.30652
      H   32    0.10400      0.00000     0.39418    0.00182     0.39600
      H   33    0.11564      0.00000     0.38208    0.00228     0.38436
      H   34    0.10485      0.00000     0.39390    0.00125     0.39515
      H   35    0.10137      0.00000     0.39736    0.00127     0.39863
      H   36    0.09620      0.00000     0.40286    0.00094     0.40380
      H   37    0.09835      0.00000     0.40021    0.00144     0.40165
      H   38    0.09617      0.00000     0.40281    0.00102     0.40383
      H   39    0.09676      0.00000     0.40234    0.00090     0.40324
      H   40    0.10517      0.00000     0.39395    0.00088     0.39483
      H   41    0.08959      0.00000     0.40925    0.00116     0.41041
      H   42    0.08988      0.00000     0.40880    0.00132     0.41012
      H   43    0.18201      0.00000     0.31542    0.00257     0.31799
 =======================================================================
   * Total *   -0.00000     23.99210    54.74755    0.26035    79.00000

 Normal termination of Gaussian 16 at Sun Dec 13 18:38:40 2020.
