 Gaussian 16, Revision A.03,

 -----------------------------------------------------------
 # opt freq B3LYP/6-31G(d) empiricaldispersion=gd3bj scf=xqc
 -----------------------------------------------------------

 -------------------------------
 CID_136298869_JID_8535_neutraal
 -------------------------------
 Symbolic Z-matrix:
 Charge =  0 Multiplicity = 1

 SCF Done:  E(RB3LYP) =  -783.296393848     A.U. after   15 cycles
 SCF Done:  E(RB3LYP) =  -783.302716661     A.U. after   12 cycles
 SCF Done:  E(RB3LYP) =  -783.303621055     A.U. after   12 cycles
 SCF Done:  E(RB3LYP) =  -783.303806472     A.U. after   11 cycles
 SCF Done:  E(RB3LYP) =  -783.303876618     A.U. after   11 cycles
 SCF Done:  E(RB3LYP) =  -783.303911638     A.U. after   11 cycles
 SCF Done:  E(RB3LYP) =  -783.303976257     A.U. after   12 cycles
 SCF Done:  E(RB3LYP) =  -783.304027399     A.U. after   12 cycles
 SCF Done:  E(RB3LYP) =  -783.304093743     A.U. after   11 cycles
 SCF Done:  E(RB3LYP) =  -783.304147287     A.U. after   11 cycles
 SCF Done:  E(RB3LYP) =  -783.304169464     A.U. after   11 cycles
 SCF Done:  E(RB3LYP) =  -783.304171339     A.U. after    9 cycles
 SCF Done:  E(RB3LYP) =  -783.304172432     A.U. after   10 cycles
 SCF Done:  E(RB3LYP) =  -783.304172539     A.U. after    8 cycles
 SCF Done:  E(RB3LYP) =  -783.304172581     A.U. after    7 cycles
 Optimization completed.
    -- Stationary point found.
 Normal termination of Gaussian 16 at Fri Dec 11 20:25:53 2020.

 --------------------------------------------------------------------
 #N Geom=AllCheck Guess=TCheck SCRF=Check GenChk RB3LYP/6-31G(d) Freq
 --------------------------------------------------------------------

 Structure from the checkpoint file:  "JID_8535.chk"
 -------------------------------
 CID_136298869_JID_8535_neutraal
 -------------------------------
 Charge =  0 Multiplicity = 1

 SCF Done:  E(RB3LYP) =  -783.304172581     A.U. after    1 cycles

  Exact polarizability: 218.449  18.658 145.183   7.379   5.442 127.265
 Approx polarizability: 282.485  39.433 252.303  13.127  13.857 213.540

                      1                      2                      3
                      A                      A                      A
 Frequencies --     12.9575                26.6028                31.4373
 Red. masses --      4.4453                 4.0572                 3.4918
 Frc consts  --      0.0004                 0.0017                 0.0020
 IR Inten    --      0.3694                 1.1623                 0.3336

                      4                      5                      6
                      A                      A                      A
 Frequencies --     50.9477                63.2259                79.5189
 Red. masses --      3.8935                 4.4260                 4.1743
 Frc consts  --      0.0060                 0.0104                 0.0156
 IR Inten    --      0.0672                 0.0834                 0.0837

                      7                      8                      9
                      A                      A                      A
 Frequencies --    159.1864               193.9280               200.5327
 Red. masses --      6.3619                 4.0319                 4.4707
 Frc consts  --      0.0950                 0.0893                 0.1059
 IR Inten    --      2.1037                 1.5103                 5.1752

                     10                     11                     12
                      A                      A                      A
 Frequencies --    215.9527               232.2146               245.4497
 Red. masses --      3.0693                 1.1749                 1.4951
 Frc consts  --      0.0843                 0.0373                 0.0531
 IR Inten    --      0.7134                 0.4494                 1.7222

                     13                     14                     15
                      A                      A                      A
 Frequencies --    272.0125               291.6739               330.4348
 Red. masses --      2.1154                 3.4299                 2.0720
 Frc consts  --      0.0922                 0.1719                 0.1333
 IR Inten    --      0.5887                 1.4741                 1.4409

                     16                     17                     18
                      A                      A                      A
 Frequencies --    350.6666               393.4726               411.8933
 Red. masses --      3.1727                 2.3141                 3.1325
 Frc consts  --      0.2299                 0.2111                 0.3131
 IR Inten    --      1.8254                 0.5382                 3.0496

                     19                     20                     21
                      A                      A                      A
 Frequencies --    422.3628               466.5116               514.1785
 Red. masses --      2.0475                 4.7481                 5.0987
 Frc consts  --      0.2152                 0.6088                 0.7942
 IR Inten    --      0.2395                 0.2133                 5.0225

                     22                     23                     24
                      A                      A                      A
 Frequencies --    550.3477               558.9977               581.7921
 Red. masses --      4.7524                 4.8510                 4.0971
 Frc consts  --      0.8481                 0.8931                 0.8171
 IR Inten    --      7.1602                 3.9497                 5.1560

                     25                     26                     27
                      A                      A                      A
 Frequencies --    616.4388               644.6236               671.7175
 Red. masses --      4.9314                 5.9223                 2.6472
 Frc consts  --      1.1041                 1.4500                 0.7037
 IR Inten    --      1.8281                 9.6534                 7.9169

                     28                     29                     30
                      A                      A                      A
 Frequencies --    720.6148               738.8202               752.9731
 Red. masses --      4.0983                 1.8784                 1.7249
 Frc consts  --      1.2539                 0.6041                 0.5762
 IR Inten    --     11.2609                17.7667                34.1163

                     31                     32                     33
                      A                      A                      A
 Frequencies --    765.3951               818.9512               833.3652
 Red. masses --      4.0259                 2.1417                 2.4786
 Frc consts  --      1.3896                 0.8463                 1.0142
 IR Inten    --     17.1226                12.5179                 4.4042

                     34                     35                     36
                      A                      A                      A
 Frequencies --    854.1702               877.7779               904.3328
 Red. masses --      3.1161                 1.5652                 1.6728
 Frc consts  --      1.3395                 0.7105                 0.8061
 IR Inten    --      5.2345                18.1040                 3.1673

                     37                     38                     39
                      A                      A                      A
 Frequencies --    937.5936               945.8486               951.3098
 Red. masses --      1.9565                 1.2597                 1.3757
 Frc consts  --      1.0134                 0.6640                 0.7335
 IR Inten    --      2.0487                 4.9888                 1.0405

                     40                     41                     42
                      A                      A                      A
 Frequencies --    961.5884               962.2449               975.6552
 Red. masses --      1.9274                 2.7858                 1.7578
 Frc consts  --      1.0500                 1.5197                 0.9858
 IR Inten    --      2.3974                24.0126                 6.2561

                     43                     44                     45
                      A                      A                      A
 Frequencies --    980.0568               998.2730              1002.6252
 Red. masses --      1.5668                 1.3817                 2.7958
 Frc consts  --      0.8867                 0.8113                 1.6559
 IR Inten    --      0.0254                 0.1016                 2.6916

                     46                     47                     48
                      A                      A                      A
 Frequencies --   1024.8321              1045.9641              1076.1985
 Red. masses --      3.9923                 4.2235                 2.6542
 Frc consts  --      2.4704                 2.7224                 1.8112
 IR Inten    --     16.2117                12.5733                 0.2832

                     49                     50                     51
                      A                      A                      A
 Frequencies --   1132.6401              1150.0050              1152.6479
 Red. masses --      1.5435                 1.4663                 2.1428
 Frc consts  --      1.1667                 1.1425                 1.6773
 IR Inten    --      3.8196                 5.6364                 3.0279

                     52                     53                     54
                      A                      A                      A
 Frequencies --   1194.4170              1203.6235              1210.2792
 Red. masses --      1.3548                 1.7059                 3.4037
 Frc consts  --      1.1387                 1.4561                 2.9374
 IR Inten    --      1.2374                29.3776                 8.9176

                     55                     56                     57
                      A                      A                      A
 Frequencies --   1233.2361              1234.7145              1252.7220
 Red. masses --      1.8479                 1.7767                 1.5606
 Frc consts  --      1.6558                 1.5959                 1.4430
 IR Inten    --      8.8950                 1.9251                 2.4969

                     58                     59                     60
                      A                      A                      A
 Frequencies --   1269.8342              1274.1321              1313.6244
 Red. masses --      1.6761                 1.8152                 3.7060
 Frc consts  --      1.5924                 1.7362                 3.7679
 IR Inten    --      7.1581                 8.9131                 0.6906

                     61                     62                     63
                      A                      A                      A
 Frequencies --   1328.8550              1345.1605              1385.7116
 Red. masses --      1.3427                 1.8553                 1.2312
 Frc consts  --      1.3970                 1.9779                 1.3929
 IR Inten    --      0.0824                 2.8487                 1.7770

                     64                     65                     66
                      A                      A                      A
 Frequencies --   1386.6662              1392.5835              1429.5265
 Red. masses --      1.4341                 1.4453                 1.9528
 Frc consts  --      1.6247                 1.6513                 2.3513
 IR Inten    --     13.2339                 1.3218                49.8124

                     67                     68                     69
                      A                      A                      A
 Frequencies --   1432.9270              1449.8255              1474.6052
 Red. masses --      1.6882                 1.2355                 2.3222
 Frc consts  --      2.0423                 1.5302                 2.9751
 IR Inten    --     30.6890                 4.9180                18.6757

                     70                     71                     72
                      A                      A                      A
 Frequencies --   1491.7714              1502.3187              1508.6984
 Red. masses --      1.6040                 1.1367                 1.5711
 Frc consts  --      2.1031                 1.5115                 2.1069
 IR Inten    --     15.1217                 7.9209                 3.5268

                     73                     74                     75
                      A                      A                      A
 Frequencies --   1518.4011              1524.9320              1527.6294
 Red. masses --      1.0455                 1.0580                 2.2128
 Frc consts  --      1.4202                 1.4496                 3.0425
 IR Inten    --      1.1052                 1.9720                13.4702

                     76                     77                     78
                      A                      A                      A
 Frequencies --   1534.9842              1538.8770              1609.9899
 Red. masses --      1.0504                 1.0504                 5.5957
 Frc consts  --      1.4582                 1.4656                 8.5458
 IR Inten    --      3.7756                 6.8987               232.8113

                     79                     80                     81
                      A                      A                      A
 Frequencies --   1631.9160              1652.9369              1659.7898
 Red. masses --      5.1691                 5.9171                 7.8745
 Frc consts  --      8.1107                 9.5252                12.7815
 IR Inten    --     12.3938                14.6359               224.2785

                     82                     83                     84
                      A                      A                      A
 Frequencies --   1809.3730              3037.1348              3040.5739
 Red. masses --      9.0222                 1.0367                 1.0448
 Frc consts  --     17.4028                 5.6341                 5.6912
 IR Inten    --    587.8344                24.6591                23.9938

                     85                     86                     87
                      A                      A                      A
 Frequencies --   3044.0426              3051.5180              3051.7067
 Red. masses --      1.0608                 1.0744                 1.0689
 Frc consts  --      5.7913                 5.8943                 5.8650
 IR Inten    --     16.3702                15.5756                 8.8770

                     88                     89                     90
                      A                      A                      A
 Frequencies --   3089.9890              3100.6919              3108.9330
 Red. masses --      1.1032                 1.1008                 1.1002
 Frc consts  --      6.2058                 6.2354                 6.2652
 IR Inten    --      9.9260                 8.5594                66.4100

                     91                     92                     93
                      A                      A                      A
 Frequencies --   3112.6778              3121.4863              3127.7914
 Red. masses --      1.1022                 1.1017                 1.0942
 Frc consts  --      6.2917                 6.3245                 6.3071
 IR Inten    --     41.2193                43.3950                 1.3647

                     94                     95                     96
                      A                      A                      A
 Frequencies --   3163.0714              3180.3798              3183.9540
 Red. masses --      1.0902                 1.0885                 1.0913
 Frc consts  --      6.4264                 6.4867                 6.5182
 IR Inten    --     20.7380                 1.4707                26.1543

                     97                     98                     99
                      A                      A                      A
 Frequencies --   3216.7407              3236.3673              3570.7839
 Red. masses --      1.0960                 1.0921                 1.0774
 Frc consts  --      6.6817                 6.7397                 8.0940
 IR Inten    --     16.5808                 2.4774                64.5098

 - Thermochemistry -
 -------------------
 Temperature   298.150 Kelvin.  Pressure   1.00000 Atm.
 Atom     1 has atomic number  6 and mass  12.00000

 Molecular mass:   243.13716 amu.
 Principal axes and moments of inertia in atomic units:
                           1         2         3
     Eigenvalues --  2020.034649355.32074**********
           X            0.99993   0.01135   0.00266
           Y           -0.01137   0.99992   0.00506
           Z           -0.00260  -0.00509   0.99998
 This molecule is an asymmetric top.
 Rotational symmetry number  1.
 Warning -- assumption of classical behavior for rotation
           may cause significant error
 Rotational temperatures (Kelvin)      0.04288     0.00926     0.00841
 Rotational constants (GHZ):           0.89342     0.19291     0.17525
 Zero-point vibrational energy     771082.1 (Joules/Mol)
                                  184.29305 (Kcal/Mol)
 Warning -- explicit consideration of  25 degrees of freedom as
           vibrations may cause significant error
 Vibrational temperatures:     18.64    38.28    45.23    73.30    90.97
          (Kelvin)            114.41   229.03   279.02   288.52   310.71
                              334.10   353.15   391.37   419.65   475.42
                              504.53   566.12   592.62   607.69   671.21
                              739.79   791.83   804.27   837.07   886.92
                              927.47   966.45  1036.80  1063.00  1083.36
                             1101.23  1178.29  1199.03  1228.96  1262.93
                             1301.13  1348.99  1360.87  1368.72  1383.51
                             1384.46  1403.75  1410.08  1436.29  1442.55
                             1474.50  1504.91  1548.41  1629.62  1654.60
                             1658.40  1718.50  1731.75  1741.32  1774.35
                             1776.48  1802.39  1827.01  1833.19  1890.01
                             1911.93  1935.39  1993.73  1995.10  2003.62
                             2056.77  2061.66  2085.98  2121.63  2146.33
                             2161.50  2170.68  2184.64  2194.04  2197.92
                             2208.50  2214.10  2316.42  2347.96  2378.21
                             2388.07  2603.28  4369.76  4374.71  4379.70
                             4390.45  4390.73  4445.80  4461.20  4473.06
                             4478.45  4491.12  4500.19  4550.95  4575.86
                             4581.00  4628.17  4656.41  5137.56

 Zero-point correction=                           0.293690 (Hartree/Particle)
 Thermal correction to Energy=                    0.310341
 Thermal correction to Enthalpy=                  0.311285
 Thermal correction to Gibbs Free Energy=         0.246211
 Sum of electronic and zero-point Energies=           -783.010483
 Sum of electronic and thermal Energies=              -782.993832
 Sum of electronic and thermal Enthalpies=            -782.992888
 Sum of electronic and thermal Free Energies=         -783.057961

                     E (Thermal)             CV                S
                      KCal/Mol        Cal/Mol-Kelvin    Cal/Mol-Kelvin
 Total                  194.742             63.006            136.959
 Electronic               0.000              0.000              0.000
 Translational            0.889              2.981             42.366
 Rotational               0.889              2.981             33.631
 Vibrational            192.964             57.045             60.962
 Vibration     1          0.593              1.987              7.496
 Vibration     2          0.593              1.984              6.068
 Vibration     3          0.594              1.983              5.737
 Vibration     4          0.595              1.977              4.780
 Vibration     5          0.597              1.972              4.354
 Vibration     6          0.600              1.963              3.903
 Vibration     7          0.621              1.892              2.559
 Vibration     8          0.635              1.848              2.190
 Vibration     9          0.638              1.839              2.128
 Vibration    10          0.645              1.817              1.993
 Vibration    11          0.653              1.792              1.862
 Vibration    12          0.660              1.770              1.763
 Vibration    13          0.675              1.725              1.583
 Vibration    14          0.687              1.689              1.464
 Vibration    15          0.713              1.615              1.258
 Vibration    16          0.728              1.574              1.163
 Vibration    17          0.761              1.484              0.987
 Vibration    18          0.776              1.444              0.920
 Vibration    19          0.785              1.422              0.884
 Vibration    20          0.824              1.324              0.747
 Vibration    21          0.869              1.219              0.624
 Vibration    22          0.906              1.139              0.543
 Vibration    23          0.915              1.120              0.526
 Vibration    24          0.939              1.071              0.482
 Vibration    25          0.976              0.997              0.422

 Optimization completed.
    -- Stationary point found.
 Normal termination of Gaussian 16 at Fri Dec 11 20:39:29 2020.

 ----------------------------------------------------------------------
 # B3LYP/6-311++G(d,p) empiricaldispersion=gd3bj scf=xqc pop=npa geom=c
 heck
 ----------------------------------------------------------------------

 ---------------------------------------
 CID_136298869_JID_8535_Energie_neutraal
 ---------------------------------------
 Structure from the checkpoint file:  "JID_8535.chk"
 Charge =  0 Multiplicity = 1

 SCF Done:  E(RB3LYP) =  -783.516402263     A.U. after   16 cycles
 Normal termination of Gaussian 16 at Fri Dec 11 20:45:07 2020.

 ----------------------------------------------------------------------
 # B3LYP/6-311++G(d,p) empiricaldispersion=gd3bj scf=xqc pop=npa geom=c
 heck
 ----------------------------------------------------------------------

 -------------------------------------
 CID_136298869_JID_8535_Energie_kation
 -------------------------------------
 Structure from the checkpoint file:  "JID_8535.chk"
 Charge =  1 Multiplicity = 2

 SCF Done:  E(UB3LYP) =  -783.203507276     A.U. after   29 cycles
 Normal termination of Gaussian 16 at Fri Dec 11 20:58:49 2020.
 Gaussian 16:  ES64L-G16RevA.03 25-Dec-2016

 ----------------------------------------------------------------------
 # B3LYP/6-311++G(d,p) empiricaldispersion=gd3bj scf=xqc pop=npa geom=c
 heck
 ----------------------------------------------------------------------

 ------------------------------------
 CID_136298869_JID_8535_Energie_anion
 ------------------------------------
 Structure from the checkpoint file:  "JID_8535.chk"
 Charge = -1 Multiplicity = 2

                         Standard orientation:
 ---------------------------------------------------------------------
 Center     Atomic      Atomic             Coordinates (Angstroms)
 Number     Number       Type             X           Y           Z
 ---------------------------------------------------------------------
      1          6           0       -4.360768    0.088459    1.310310
      2          6           0       -4.031024   -0.919772    0.204194
      3          6           0       -5.297963   -1.612386   -0.308035
      4          6           0       -3.279838   -0.247589   -0.966660
      5          6           0       -1.941823    0.304970   -0.560110
      6          6           0       -1.661082    1.642367   -0.580395
      7          6           0       -0.367147    2.139376   -0.169725
      8          8           0        0.029427    3.295749   -0.142144
      9          7           0        0.489759    1.085142    0.237592
     10          6           0        0.140217   -0.228469    0.238090
     11          7           0       -1.030317   -0.650779   -0.145766
     12          6           0        1.159680   -1.223844    0.753671
     13          6           0        2.583784   -0.896184    0.370975
     14          6           0        3.043471   -1.128760   -0.933049
     15          7           0        4.273488   -0.836218   -1.360195
     16          6           0        5.115205   -0.279184   -0.478824
     17          6           0        4.769542   -0.001110    0.842702
     18          6           0        3.480953   -0.317270    1.271764
     19          1           0       -5.021215    0.879783    0.932249
     20          1           0       -3.457908    0.568630    1.701826
     21          1           0       -4.872982   -0.401922    2.145829
     22          1           0       -3.357923   -1.681693    0.617899
     23          1           0       -5.991352   -0.884560   -0.748955
     24          1           0       -5.063137   -2.358999   -1.075570
     25          1           0       -5.825030   -2.120546    0.507557
     26          1           0       -3.115027   -0.995846   -1.752768
     27          1           0       -3.898635    0.550800   -1.393746
     28          1           0       -2.390963    2.372507   -0.909075
     29          1           0        1.430058    1.363512    0.499757
     30          1           0        1.070321   -1.264476    1.847361
     31          1           0        0.855418   -2.202683    0.374668
     32          1           0        2.374641   -1.577790   -1.666956
     33          1           0        6.111332   -0.047133   -0.849867
     34          1           0        5.491013    0.447714    1.518111
     35          1           0        3.176228   -0.123932    2.297988
 ---------------------------------------------------------------------

 SCF Done:  E(UB3LYP) =  -783.524810920     A.U. after   33 cycles
 SCF Done:  E(UB3LYP) =  -783.524810920     a.u. after    1 cycles

 The electronic state is 2-A.
 Alpha  occ. eigenvalues --  -18.95916 -14.22472 -14.17751 -14.17244 -10.14531
 Alpha  occ. eigenvalues --  -10.11688 -10.08342 -10.08334 -10.08016 -10.07813
 Alpha  occ. eigenvalues --  -10.07392 -10.06775 -10.06743 -10.06461 -10.06364
 Alpha  occ. eigenvalues --  -10.06150 -10.05804 -10.03279  -0.91417  -0.85393
 Alpha  occ. eigenvalues --   -0.81947  -0.76861  -0.71466  -0.70069  -0.66858
 Alpha  occ. eigenvalues --   -0.64902  -0.60034  -0.59498  -0.59128  -0.51615
 Alpha  occ. eigenvalues --   -0.51132  -0.50295  -0.48321  -0.46258  -0.42788
 Alpha  occ. eigenvalues --   -0.40236  -0.39387  -0.37509  -0.36854  -0.35060
 Alpha  occ. eigenvalues --   -0.34613  -0.33970  -0.32873  -0.32222  -0.30374
 Alpha  occ. eigenvalues --   -0.30202  -0.29789  -0.29457  -0.28748  -0.28074
 Alpha  occ. eigenvalues --   -0.27814  -0.27236  -0.26415  -0.24984  -0.24356
 Alpha  occ. eigenvalues --   -0.23254  -0.23155  -0.22408  -0.17845  -0.17356
 Alpha  occ. eigenvalues --   -0.15144  -0.14155  -0.13725  -0.13492  -0.11213
 Alpha  occ. eigenvalues --    0.04202
 Alpha virt. eigenvalues --    0.06538   0.07332   0.07704   0.08586   0.08839
 Alpha virt. eigenvalues --    0.09155   0.09455   0.09763   0.10617   0.11223
 Alpha virt. eigenvalues --    0.11383   0.11630   0.11897   0.12251   0.12794

  Beta  occ. eigenvalues --  -18.95914 -14.22259 -14.17460 -14.17318 -10.14542
  Beta  occ. eigenvalues --  -10.11348 -10.08321 -10.08131 -10.07984 -10.07796
  Beta  occ. eigenvalues --  -10.07388 -10.06798 -10.06727 -10.06461 -10.06380
  Beta  occ. eigenvalues --  -10.06118 -10.05576 -10.03126  -0.91318  -0.85091
  Beta  occ. eigenvalues --   -0.81559  -0.76588  -0.71391  -0.69784  -0.66511
  Beta  occ. eigenvalues --   -0.64678  -0.59921  -0.59485  -0.58873  -0.51334
  Beta  occ. eigenvalues --   -0.50701  -0.50154  -0.48145  -0.46192  -0.42603
  Beta  occ. eigenvalues --   -0.40086  -0.39239  -0.37355  -0.36738  -0.34855
  Beta  occ. eigenvalues --   -0.34533  -0.33866  -0.32440  -0.31788  -0.30295
  Beta  occ. eigenvalues --   -0.30168  -0.29764  -0.29343  -0.28511  -0.27859
  Beta  occ. eigenvalues --   -0.27620  -0.26836  -0.26158  -0.24810  -0.24279
  Beta  occ. eigenvalues --   -0.23189  -0.23103  -0.21996  -0.16788  -0.16135
  Beta  occ. eigenvalues --   -0.15023  -0.13803  -0.13390  -0.13304  -0.10460
  Beta virt. eigenvalues --    0.06487   0.07671   0.08521   0.08741   0.08781
  Beta virt. eigenvalues --    0.09073   0.09594   0.09712   0.10036   0.10701
  Beta virt. eigenvalues --    0.11154   0.11348   0.11581   0.11875   0.12757

 Mulliken charges and spin densities:
               1          2
     1  C   -0.739515   0.002146
     2  C    0.449661   0.026805
     3  C   -0.598095  -0.032356
     4  C   -0.584005  -0.158943
     5  C    0.842966   0.116377
     6  C   -0.634858   0.284864
     7  C    0.036429  -0.087820
     8  O   -0.396868   0.001860
     9  N   -0.097959   0.064129
    10  C   -0.545699   0.161724
    11  N    0.043723  -0.026251
    12  C   -0.558090  -0.538175
    13  C    0.719983   0.330689
    14  C   -0.655134   0.174141
    15  N   -0.078162   0.132297
    16  C   -0.281538  -0.046603
    17  C   -0.216370   0.017989
    18  C    0.020884   0.014962
    19  H    0.124436   0.000956
    20  H    0.182336   0.000947
    21  H    0.115418   0.001055
    22  H    0.182076   0.004223
    23  H    0.120802   0.002183
    24  H    0.113372   0.009083
    25  H    0.120526   0.000354
    26  H    0.140096   0.027597
    27  H    0.133637   0.010488
    28  H    0.159214  -0.005361
    29  H    0.409788  -0.038878
    30  H   -0.104893   0.325716
    31  H    0.220617  -0.027485
    32  H    0.163849   0.020687
    33  H    0.138902  -0.003559
    34  H    0.098113   0.044388
    35  H   -0.045647   0.189768
 Sum of Mulliken charges =  -1.00000   1.00000

 Dipole moment (field-independent basis, Debye):
    X=             -4.8676    Y=             -2.6942    Z=              1.4238  Tot=              5.7428
 Quadrupole moment (field-independent basis, Debye-Ang):
   XX=           -158.5854   YY=           -143.0681   ZZ=           -125.9306
   XY=              6.2300   XZ=              6.5174   YZ=              2.0021

 Summary of Natural Population Analysis:

                                       Natural Population
                Natural  -----------------------------------------------
    Atom  No    Charge         Core      Valence    Rydberg      Total
 -----------------------------------------------------------------------
      C    1   -0.28610      0.99965     2.28152    0.00493     3.28610
      C    2   -0.11180      0.99962     2.10497    0.00721     3.11180
      C    3   -0.28131      0.99966     2.27721    0.00445     3.28131
      C    4   -0.20073      0.99959     2.19123    0.00991     3.20073
      C    5    0.14763      0.99951     1.83966    0.01321     2.85237
      C    6   -0.15951      0.99944     2.15106    0.00902     3.15951
      C    7    0.31966      0.99964     1.65973    0.02098     2.68034
      O    8   -0.33707      0.99988     3.33100    0.00619     4.33707
      N    9   -0.27316      0.99962     2.76599    0.00755     3.77316
      C   10    0.30164      0.99961     1.68320    0.01556     2.69836
      N   11   -0.30347      0.99964     2.79410    0.00973     3.80347
      C   12   -0.22098      0.99957     2.21065    0.01076     3.22098
      C   13   -0.04130      0.99950     2.02826    0.01354     3.04130
      C   14    0.03440      0.99953     1.95322    0.01285     2.96560
      N   15   -0.19875      0.99971     2.68727    0.01177     3.69875
      C   16    0.01929      0.99960     1.96712    0.01399     2.98071
      C   17   -0.11946      0.99956     2.11137    0.00852     3.11946
      C   18   -0.05853      0.99951     2.04782    0.01120     3.05853
      H   19    0.09193      0.00000     0.40716    0.00091     0.40807
      H   20    0.10838      0.00000     0.39092    0.00069     0.39162
      H   21    0.09262      0.00000     0.40658    0.00080     0.40738
      H   22    0.10176      0.00000     0.39633    0.00192     0.39824
      H   23    0.09209      0.00000     0.40696    0.00095     0.40791
      H   24    0.09729      0.00000     0.40193    0.00077     0.40271
      H   25    0.09403      0.00000     0.40513    0.00083     0.40597
      H   26    0.10499      0.00000     0.39337    0.00164     0.39501
      H   27    0.09387      0.00000     0.40455    0.00158     0.40613
      H   28    0.10023      0.00000     0.39890    0.00087     0.39977
      H   29    0.20213      0.00000     0.29517    0.00269     0.29787
      H   30    0.11383      0.00000     0.38387    0.00230     0.38617
      H   31    0.11455      0.00000     0.38425    0.00120     0.38545
      H   32    0.08641      0.00000     0.41198    0.00161     0.41359
      H   33    0.08222      0.00000     0.41658    0.00120     0.41778
      H   34    0.09650      0.00000     0.40246    0.00103     0.40350
      H   35    0.09674      0.00000     0.40206    0.00120     0.40326
 =======================================================================
   * Total *   -0.00000     17.99285    46.79358    0.21358    65.00000

 Normal termination of Gaussian 16 at Fri Dec 11 21:14:49 2020.
