 Gaussian 16, Revision A.03,

 -----------------------------------------------------------
 # opt freq B3LYP/6-31G(d) empiricaldispersion=gd3bj scf=xqc
 -----------------------------------------------------------

 --------------------------------
 CID_104608777_JID_10329_neutraal
 --------------------------------
 Symbolic Z-matrix:
 Charge =  0 Multiplicity = 1

 SCF Done:  E(RB3LYP) =  -953.560215670     A.U. after   14 cycles
 SCF Done:  E(RB3LYP) =  -953.570125881     A.U. after   14 cycles
 SCF Done:  E(RB3LYP) =  -953.573906130     A.U. after   14 cycles
 SCF Done:  E(RB3LYP) =  -953.575604230     A.U. after   12 cycles
 SCF Done:  E(RB3LYP) =  -953.576314390     A.U. after   12 cycles
 SCF Done:  E(RB3LYP) =  -953.576652166     A.U. after   12 cycles
 SCF Done:  E(RB3LYP) =  -953.576953903     A.U. after   12 cycles
 SCF Done:  E(RB3LYP) =  -953.577200026     A.U. after   12 cycles
 SCF Done:  E(RB3LYP) =  -953.577284411     A.U. after   11 cycles
 SCF Done:  E(RB3LYP) =  -953.577355940     A.U. after   10 cycles
 SCF Done:  E(RB3LYP) =  -953.577535785     A.U. after    9 cycles
 SCF Done:  E(RB3LYP) =  -953.577536285     A.U. after    8 cycles
 SCF Done:  E(RB3LYP) =  -953.577536430     A.U. after    7 cycles
 SCF Done:  E(RB3LYP) =  -953.577536463     A.U. after    7 cycles
 SCF Done:  E(RB3LYP) =  -953.577536479     A.U. after    6 cycles
 Optimization completed.
    -- Stationary point found.
 Normal termination of Gaussian 16 at Mon Dec 14 17:44:37 2020.

 --------------------------------------------------------------------
 #N Geom=AllCheck Guess=TCheck SCRF=Check GenChk RB3LYP/6-31G(d) Freq
 --------------------------------------------------------------------

 Structure from the checkpoint file:  "JID_10329.chk"
 --------------------------------
 CID_104608777_JID_10329_neutraal
 --------------------------------
 Charge =  0 Multiplicity = 1

 SCF Done:  E(RB3LYP) =  -953.577536479     A.U. after    1 cycles

  Exact polarizability: 218.892 -15.459 158.444 -19.575  -3.378 126.884
 Approx polarizability: 312.593 -14.283 243.921 -36.939 -10.015 206.999

                      1                      2                      3
                      A                      A                      A
 Frequencies --     12.2809                21.1321                26.6600
 Red. masses --      5.1361                 5.0050                 5.0246
 Frc consts  --      0.0005                 0.0013                 0.0021
 IR Inten    --      0.7078                 0.1891                 0.4035

                      4                      5                      6
                      A                      A                      A
 Frequencies --     43.6178                73.2747                80.1671
 Red. masses --      4.9463                 8.1660                 3.3037
 Frc consts  --      0.0055                 0.0258                 0.0125
 IR Inten    --      3.3012                 0.3048                 0.7202

                      7                      8                      9
                      A                      A                      A
 Frequencies --    105.3086               123.0853               158.2806
 Red. masses --      4.8571                 4.5753                 4.4766
 Frc consts  --      0.0317                 0.0408                 0.0661
 IR Inten    --      1.3876                 0.2001                 1.0082

                     10                     11                     12
                      A                      A                      A
 Frequencies --    162.1732               190.6538               226.1542
 Red. masses --      3.5346                 5.3991                 1.6657
 Frc consts  --      0.0548                 0.1156                 0.0502
 IR Inten    --      1.2448                 0.4958                 1.0479

                     13                     14                     15
                      A                      A                      A
 Frequencies --    237.2299               244.1666               258.3469
 Red. masses --      1.8707                 1.0846                 4.8825
 Frc consts  --      0.0620                 0.0381                 0.1920
 IR Inten    --      0.6460                 0.1798                 1.5731

                     16                     17                     18
                      A                      A                      A
 Frequencies --    280.6985               309.9375               342.0049
 Red. masses --      2.7864                 4.6133                 2.8486
 Frc consts  --      0.1294                 0.2611                 0.1963
 IR Inten    --      3.0247                 2.4725                 2.6291

                     19                     20                     21
                      A                      A                      A
 Frequencies --    396.2370               411.6393               418.7724
 Red. masses --      3.4650                 4.9379                 3.5376
 Frc consts  --      0.3205                 0.4930                 0.3655
 IR Inten    --      5.6427                 2.6342                 5.5262

                     22                     23                     24
                      A                      A                      A
 Frequencies --    453.9759               496.5698               506.5739
 Red. masses --      2.3487                 4.1302                 3.4608
 Frc consts  --      0.2852                 0.6000                 0.5233
 IR Inten    --      7.6207                 9.5222                14.1596

                     25                     26                     27
                      A                      A                      A
 Frequencies --    516.0436               571.4629               576.7943
 Red. masses --      3.4091                 1.9330                 4.2122
 Frc consts  --      0.5349                 0.3719                 0.8257
 IR Inten    --     27.8446                41.7673                 3.4164

                     28                     29                     30
                      A                      A                      A
 Frequencies --    585.2542               603.4838               634.0402
 Red. masses --      4.1469                 2.9220                 2.9427
 Frc consts  --      0.8369                 0.6270                 0.6970
 IR Inten    --      1.9088                38.0635                16.0398

                     31                     32                     33
                      A                      A                      A
 Frequencies --    651.4567               664.0059               688.0642
 Red. masses --      2.0654                 3.2886                 4.0125
 Frc consts  --      0.5165                 0.8543                 1.1192
 IR Inten    --     23.6305                11.5341                24.2703

                     34                     35                     36
                      A                      A                      A
 Frequencies --    745.7961               748.9834               759.9222
 Red. masses --      4.3741                 5.4844                 2.3529
 Frc consts  --      1.4335                 1.8127                 0.8005
 IR Inten    --     40.1019                 8.7996                67.2303

                     37                     38                     39
                      A                      A                      A
 Frequencies --    773.6785               798.2690               804.3063
 Red. masses --      5.7267                 1.4106                 1.9372
 Frc consts  --      2.0197                 0.5296                 0.7383
 IR Inten    --     10.6339                29.9321                 8.9469

                     40                     41                     42
                      A                      A                      A
 Frequencies --    819.8429               850.3696               882.9680
 Red. masses --      3.6434                 1.4905                 3.3634
 Frc consts  --      1.4428                 0.6350                 1.5450
 IR Inten    --      2.8320                14.3399                 4.7372

                     43                     44                     45
                      A                      A                      A
 Frequencies --    912.6547               945.9821               948.3103
 Red. masses --      1.3609                 1.2228                 1.2837
 Frc consts  --      0.6678                 0.6447                 0.6802
 IR Inten    --      1.3813                 0.9077                 1.4375

                     46                     47                     48
                      A                      A                      A
 Frequencies --    955.3432               961.4310               976.9726
 Red. masses --      1.3903                 3.5210                 3.1325
 Frc consts  --      0.7476                 1.9176                 1.7616
 IR Inten    --      0.2995                17.1086                47.1097

                     49                     50                     51
                      A                      A                      A
 Frequencies --    993.3427              1012.5564              1089.7907
 Red. masses --      6.3088                 2.3518                 2.9827
 Frc consts  --      3.6677                 1.4207                 2.0871
 IR Inten    --     26.5770                 8.9898                 3.5299

                     52                     53                     54
                      A                      A                      A
 Frequencies --   1117.0974              1133.8435              1147.4972
 Red. masses --      2.1962                 2.6691                 1.4365
 Frc consts  --      1.6147                 2.0217                 1.1144
 IR Inten    --      8.5616                70.3876                20.8725

                     55                     56                     57
                      A                      A                      A
 Frequencies --   1165.2693              1169.1564              1180.2135
 Red. masses --      2.8045                 2.1567                 1.9597
 Frc consts  --      2.2437                 1.7369                 1.6083
 IR Inten    --    217.4331                14.9904               134.2971

                     58                     59                     60
                      A                      A                      A
 Frequencies --   1190.4985              1210.9045              1215.7487
 Red. masses --      1.5390                 4.4602                 1.9288
 Frc consts  --      1.2852                 3.8532                 1.6796
 IR Inten    --     45.7101                78.2339                11.8371

                     61                     62                     63
                      A                      A                      A
 Frequencies --   1251.3975              1275.5066              1298.3168
 Red. masses --      1.9684                 1.7073                 3.2419
 Frc consts  --      1.8161                 1.6365                 3.2196
 IR Inten    --     69.7916                16.3925               181.6203

                     64                     65                     66
                      A                      A                      A
 Frequencies --   1309.2468              1323.3569              1355.8285
 Red. masses --      1.3581                 1.8675                 3.1893
 Frc consts  --      1.3716                 1.9269                 3.4542
 IR Inten    --      0.4425                91.5474                16.2750

                     67                     68                     69
                      A                      A                      A
 Frequencies --   1371.0919              1391.8280              1424.8069
 Red. masses --      2.2582                 1.2842                 1.4299
 Frc consts  --      2.5012                 1.4657                 1.7102
 IR Inten    --     84.3625                 2.0018                35.8087

                     70                     71                     72
                      A                      A                      A
 Frequencies --   1424.9698              1427.0708              1436.0435
 Red. masses --      3.3799                 1.3464                 2.0527
 Frc consts  --      4.0436                 1.6156                 2.4941
 IR Inten    --     28.2851                22.4170                28.8497

                     73                     74                     75
                      A                      A                      A
 Frequencies --   1440.0603              1483.7390              1506.4675
 Red. masses --      1.2503                 1.6343                 1.1309
 Frc consts  --      1.5277                 2.1199                 1.5121
 IR Inten    --     23.0814                20.0423                13.4970

                     76                     77                     78
                      A                      A                      A
 Frequencies --   1508.5483              1513.3958              1525.1199
 Red. masses --      1.0597                 2.2377                 1.3762
 Frc consts  --      1.4209                 3.0196                 1.8860
 IR Inten    --      0.8583               278.7779               111.7415

                     79                     80                     81
                      A                      A                      A
 Frequencies --   1530.0397              1545.2139              1552.0655
 Red. masses --      1.0542                 1.4372                 1.2060
 Frc consts  --      1.4541                 2.0218                 1.7117
 IR Inten    --      2.5055                11.7611                32.6178

                     82                     83                     84
                      A                      A                      A
 Frequencies --   1602.4053              1637.5648              1648.3726
 Red. masses --      6.2635                 6.3916                 4.8378
 Frc consts  --      9.4758                10.0986                 7.7447
 IR Inten    --    118.0413                17.8891                67.0053

                     85                     86                     87
                      A                      A                      A
 Frequencies --   1666.1342              1823.7580              3036.6795
 Red. masses --      7.0241                 9.6300                 1.0684
 Frc consts  --     11.4884                18.8717                 5.8048
 IR Inten    --     13.2201               354.7250                43.6131

                     88                     89                     90
                      A                      A                      A
 Frequencies --   3057.6231              3062.0121              3078.1287
 Red. masses --      1.0389                 1.0415                 1.0827
 Frc consts  --      5.7228                 5.7534                 6.0442
 IR Inten    --     23.5960                13.6356                31.4328

                     91                     92                     93
                      A                      A                      A
 Frequencies --   3100.9352              3120.2222              3124.5303
 Red. masses --      1.0948                 1.1015                 1.1018
 Frc consts  --      6.2025                 6.3184                 6.3377
 IR Inten    --      8.1415                18.9420                39.3092

                     94                     95                     96
                      A                      A                      A
 Frequencies --   3166.9701              3173.4291              3175.4335
 Red. masses --      1.1003                 1.0992                 1.0889
 Frc consts  --      6.5019                 6.5223                 6.4692
 IR Inten    --      6.0179                17.5641                14.8928

                     97                     98                     99
                      A                      A                      A
 Frequencies --   3185.0854              3217.5435              3311.4034
 Red. masses --      1.0894                 1.0961                 1.0984
 Frc consts  --      6.5117                 6.6860                 7.0964
 IR Inten    --     20.8932                26.1256                 1.0539

                    100                    101                    102
                      A                      A                      A
 Frequencies --   3313.6598              3589.5982              3697.2838
 Red. masses --      1.0977                 1.0757                 1.0640
 Frc consts  --      7.1013                 8.1662                 8.5695
 IR Inten    --      2.0625                 9.1013                66.8122

 - Thermochemistry -
 -------------------
 Temperature   298.150 Kelvin.  Pressure   1.00000 Atm.
 Atom     1 has atomic number  6 and mass  12.00000

 Molecular mass:   276.11101 amu.
 Principal axes and moments of inertia in atomic units:
                           1         2         3
     Eigenvalues --  3129.711419170.55433**********
           X            0.99999   0.00342  -0.00070
           Y           -0.00341   0.99974   0.02260
           Z            0.00078  -0.02259   0.99974
 This molecule is an asymmetric top.
 Rotational symmetry number  1.
 Warning -- assumption of classical behavior for rotation
           may cause significant error
 Rotational temperatures (Kelvin)      0.02767     0.00944     0.00834
 Rotational constants (GHZ):           0.57665     0.19680     0.17378
 Zero-point vibrational energy     761202.9 (Joules/Mol)
                                  181.93185 (Kcal/Mol)
 Warning -- explicit consideration of  29 degrees of freedom as
           vibrations may cause significant error
 Vibrational temperatures:     17.67    30.40    38.36    62.76   105.43
          (Kelvin)            115.34   151.52   177.09   227.73   233.33
                              274.31   325.39   341.32   351.30   371.70
                              403.86   445.93   492.07   570.10   592.26
                              602.52   653.17   714.45   728.85   742.47
                              822.21   829.88   842.05   868.28   912.24
                              937.30   955.36   989.97  1073.03  1077.62
                             1093.36  1113.15  1148.53  1157.22  1179.57
                             1223.49  1270.39  1313.11  1361.06  1364.41
                             1374.53  1383.28  1405.65  1429.20  1456.84
                             1567.97  1607.25  1631.35  1650.99  1676.56
                             1682.16  1698.06  1712.86  1742.22  1749.19
                             1800.48  1835.17  1867.99  1883.71  1904.02
                             1950.73  1972.70  2002.53  2049.98  2050.21
                             2053.24  2066.15  2071.93  2134.77  2167.47
                             2170.46  2177.44  2194.31  2201.39  2223.22
                             2233.08  2305.50  2356.09  2371.64  2397.20
                             2623.98  4369.10  4399.24  4405.55  4428.74
                             4461.55  4489.30  4495.50  4556.56  4565.86
                             4568.74  4582.63  4629.33  4764.37  4767.62
                             5164.63  5319.57

 Zero-point correction=                           0.289927 (Hartree/Particle)
 Thermal correction to Energy=                    0.308768
 Thermal correction to Enthalpy=                  0.309712
 Thermal correction to Gibbs Free Energy=         0.239610
 Sum of electronic and zero-point Energies=           -953.287610
 Sum of electronic and thermal Energies=              -953.268768
 Sum of electronic and thermal Enthalpies=            -953.267824
 Sum of electronic and thermal Free Energies=         -953.337926

                     E (Thermal)             CV                S
                      KCal/Mol        Cal/Mol-Kelvin    Cal/Mol-Kelvin
 Total                  193.755             70.661            147.542
 Electronic               0.000              0.000              0.000
 Translational            0.889              2.981             42.745
 Rotational               0.889              2.981             34.054
 Vibrational            191.977             64.699             70.742
 Vibration     1          0.593              1.987              7.603
 Vibration     2          0.593              1.985              6.525
 Vibration     3          0.593              1.984              6.064
 Vibration     4          0.595              1.980              5.088
 Vibration     5          0.599              1.967              4.063
 Vibration     6          0.600              1.963              3.887
 Vibration     7          0.605              1.945              3.354
 Vibration     8          0.610              1.930              3.051
 Vibration     9          0.621              1.893              2.570
 Vibration    10          0.622              1.889              2.524
 Vibration    11          0.634              1.853              2.221
 Vibration    12          0.650              1.801              1.909
 Vibration    13          0.656              1.784              1.824
 Vibration    14          0.659              1.772              1.772
 Vibration    15          0.667              1.749              1.673
 Vibration    16          0.680              1.709              1.529
 Vibration    17          0.699              1.655              1.363
 Vibration    18          0.721              1.592              1.203
 Vibration    19          0.763              1.478              0.977
 Vibration    20          0.776              1.445              0.921
 Vibration    21          0.782              1.429              0.896
 Vibration    22          0.812              1.352              0.784
 Vibration    23          0.852              1.258              0.667
 Vibration    24          0.862              1.235              0.642
 Vibration    25          0.871              1.214              0.619
 Vibration    26          0.928              1.093              0.501
 Vibration    27          0.933              1.081              0.491
 Vibration    28          0.942              1.063              0.476
 Vibration    29          0.962              1.024              0.444

                           ! Non-Optimized Parameters !
 Normal termination of Gaussian 16 at Mon Dec 14 18:01:21 2020.

 ----------------------------------------------------------------------
 # B3LYP/6-311++G(d,p) empiricaldispersion=gd3bj scf=xqc pop=npa geom=c
 heck
 ----------------------------------------------------------------------

 ----------------------------------------
 CID_104608777_JID_10329_Energie_neutraal
 ----------------------------------------
 Structure from the checkpoint file:  "JID_10329.chk"
 Charge =  0 Multiplicity = 1

 SCF Done:  E(RB3LYP) =  -953.851242995     A.U. after   16 cycles
 Normal termination of Gaussian 16 at Mon Dec 14 18:08:15 2020.

 ----------------------------------------------------------------------
 # B3LYP/6-311++G(d,p) empiricaldispersion=gd3bj scf=xqc pop=npa geom=c
 heck
 ----------------------------------------------------------------------

 --------------------------------------
 CID_104608777_JID_10329_Energie_kation
 --------------------------------------
 Structure from the checkpoint file:  "JID_10329.chk"
 Charge =  1 Multiplicity = 2

 SCF Done:  E(UB3LYP) =  -953.575851560     A.U. after   24 cycles
 Normal termination of Gaussian 16 at Mon Dec 14 18:21:52 2020.
 Gaussian 16:  ES64L-G16RevA.03 25-Dec-2016

 ----------------------------------------------------------------------
 # B3LYP/6-311++G(d,p) empiricaldispersion=gd3bj scf=xqc pop=npa geom=c
 heck
 ----------------------------------------------------------------------

 -------------------------------------
 CID_104608777_JID_10329_Energie_anion
 -------------------------------------
 Structure from the checkpoint file:  "JID_10329.chk"
 Charge = -1 Multiplicity = 2

                         Standard orientation:
 ---------------------------------------------------------------------
 Center     Atomic      Atomic             Coordinates (Angstroms)
 Number     Number       Type             X           Y           Z
 ---------------------------------------------------------------------
      1          6           0        1.645871    2.565216    1.882438
      2          6           0        0.805936    2.033260    0.724765
      3          6           0        0.947612    2.832169   -0.567314
      4          8           0        1.014603    0.613690    0.507594
      5          6           0        2.171667    0.110889    0.019526
      6          6           0        2.121592   -1.264486   -0.348787
      7          6           0        3.295322   -1.810203   -0.862325
      8          6           0        4.439926   -1.017652   -1.003424
      9          6           0        4.373466    0.306692   -0.602885
     10          7           0        3.255479    0.857958   -0.096188
     11          7           0        0.932877   -1.998350   -0.287909
     12          6           0        0.070893   -1.990262    0.893451
     13          6           0       -1.262615   -1.377868    0.600245
     14          6           0       -1.756711   -0.636810   -0.423813
     15          6           0       -3.117694   -0.322319   -0.071932
     16          6           0       -3.344869   -0.902376    1.145644
     17          8           0       -2.231482   -1.548407    1.567356
     18          6           0       -4.115221    0.456823   -0.807317
     19          8           0       -5.252768    0.675183   -0.436817
     20          8           0       -3.628878    0.932468   -1.984604
     21          1           0        2.702300    2.605176    1.613432
     22          1           0        1.527573    1.924065    2.762338
     23          1           0        1.304124    3.572760    2.146468
     24          1           0       -0.247647    2.040088    1.022098
     25          1           0        1.987700    2.873024   -0.895171
     26          1           0        0.339847    2.381903   -1.359045
     27          1           0        0.589037    3.854319   -0.401287
     28          1           0        3.308860   -2.856540   -1.160055
     29          1           0        5.357442   -1.432211   -1.407881
     30          1           0        5.232621    0.967393   -0.688504
     31          1           0        1.031023   -2.919834   -0.692956
     32          1           0       -0.076520   -3.018767    1.249404
     33          1           0        0.556606   -1.446189    1.709162
     34          1           0       -1.222113   -0.337002   -1.310255
     35          1           0       -4.208032   -0.937040    1.791259
     36          1           0       -4.364158    1.429694   -2.388196
 ---------------------------------------------------------------------

 SCF Done:  E(UB3LYP) =  -953.841699812     A.U. after   33 cycles
 SCF Done:  E(UB3LYP) =  -953.841846565     a.u. after    5 cycles

 The electronic state is 2-A.
 Alpha  occ. eigenvalues --  -19.06114 -19.04026 -19.03821 -18.96878 -14.22237
 Alpha  occ. eigenvalues --  -14.18797 -10.15568 -10.14924 -10.12728 -10.11140
 Alpha  occ. eigenvalues --  -10.10551 -10.10288 -10.08849 -10.08642 -10.06965
 Alpha  occ. eigenvalues --  -10.06839 -10.05720 -10.05621 -10.04735 -10.04599
 Alpha  occ. eigenvalues --   -0.98925  -0.97520  -0.96339  -0.88150  -0.83723
 Alpha  occ. eigenvalues --   -0.81889  -0.69506  -0.68994  -0.68400  -0.65890
 Alpha  occ. eigenvalues --   -0.62597  -0.59064  -0.57350  -0.54680  -0.54051
 Alpha  occ. eigenvalues --   -0.51973  -0.48050  -0.47013  -0.42410  -0.42387
 Alpha  occ. eigenvalues --   -0.41129  -0.40580  -0.40150  -0.37094  -0.35891
 Alpha  occ. eigenvalues --   -0.35849  -0.35292  -0.34781  -0.34052  -0.33088
 Alpha  occ. eigenvalues --   -0.31995  -0.31818  -0.31179  -0.30340  -0.29767
 Alpha  occ. eigenvalues --   -0.29111  -0.28795  -0.28490  -0.27894  -0.26579
 Alpha  occ. eigenvalues --   -0.26181  -0.25926  -0.25036  -0.22158  -0.21480
 Alpha  occ. eigenvalues --   -0.20940  -0.20000  -0.16150  -0.15715  -0.15435
 Alpha  occ. eigenvalues --   -0.15086  -0.10924  -0.09974   0.05299
 Alpha virt. eigenvalues --    0.06526   0.06996   0.07133   0.07702   0.08538
 Alpha virt. eigenvalues --    0.09139   0.09348   0.09984   0.10394   0.10572
 Alpha virt. eigenvalues --    0.10956   0.11620   0.11886   0.12944   0.13260

  Beta  occ. eigenvalues --  -19.05937 -19.03966 -19.03818 -18.96722 -14.22237
  Beta  occ. eigenvalues --  -14.18620 -10.15299 -10.14919 -10.12726 -10.11136
  Beta  occ. eigenvalues --  -10.10481 -10.10317 -10.08791 -10.08281 -10.06879
  Beta  occ. eigenvalues --  -10.06804 -10.05715 -10.05600 -10.04739 -10.04608
  Beta  occ. eigenvalues --   -0.98609  -0.97279  -0.96313  -0.87893  -0.83611
  Beta  occ. eigenvalues --   -0.81707  -0.69348  -0.68938  -0.68224  -0.65740
  Beta  occ. eigenvalues --   -0.62418  -0.59039  -0.57179  -0.54492  -0.53580
  Beta  occ. eigenvalues --   -0.51849  -0.47950  -0.46920  -0.42321  -0.42187
  Beta  occ. eigenvalues --   -0.41020  -0.40486  -0.40110  -0.37032  -0.35801
  Beta  occ. eigenvalues --   -0.35665  -0.35106  -0.34595  -0.33531  -0.32904
  Beta  occ. eigenvalues --   -0.31897  -0.31195  -0.30925  -0.30168  -0.29627
  Beta  occ. eigenvalues --   -0.28760  -0.28694  -0.28398  -0.27774  -0.26452
  Beta  occ. eigenvalues --   -0.26143  -0.25841  -0.24887  -0.22025  -0.21366
  Beta  occ. eigenvalues --   -0.20568  -0.19263  -0.15663  -0.15452  -0.15066
  Beta  occ. eigenvalues --   -0.14869  -0.10016  -0.09541
  Beta virt. eigenvalues --    0.06496   0.07312   0.07647   0.08460   0.08716
  Beta virt. eigenvalues --    0.09152   0.09344   0.09982   0.10303   0.10464
  Beta virt. eigenvalues --    0.10609   0.10965   0.11574   0.11869   0.13096

 Mulliken charges and spin densities:
               1          2
     1  C    0.224102  -0.753086
     2  C   -0.508962   0.545732
     3  C   -0.144966  -0.318349
     4  O    0.071654  -0.011213
     5  C   -0.264476  -0.115777
     6  C    0.075695  -0.033337
     7  C   -0.220164   0.085280
     8  C   -0.356085   0.017065
     9  C    0.000558  -0.096689
    10  N   -0.014504   0.095714
    11  N   -0.041812   0.016615
    12  C   -0.759831   0.042053
    13  C   -0.729813  -0.105384
    14  C    0.847158   0.040311
    15  C   -0.083834  -0.151989
    16  C   -0.153801   0.352959
    17  O    0.025534   0.015610
    18  C    0.005481   0.221680
    19  O   -0.399517   0.059021
    20  O   -0.215650   0.011608
    21  H    0.034214   0.134535
    22  H    0.078217   0.048236
    23  H   -0.233164   0.371853
    24  H    0.101137   0.091205
    25  H    0.132051   0.030167
    26  H    0.112290   0.019221
    27  H   -0.010566   0.150678
    28  H    0.107456   0.001831
    29  H    0.077864   0.054829
    30  H    0.030674   0.112555
    31  H    0.204836   0.061180
    32  H    0.165439   0.010934
    33  H    0.199791   0.003914
    34  H    0.194040   0.008991
    35  H    0.186167  -0.023247
    36  H    0.262786   0.005293
 Sum of Mulliken charges =  -1.00000   1.00000

 Dipole moment (field-independent basis, Debye):
    X=              4.2590    Y=             -3.2520    Z=             -1.0028  Tot=              5.4516
 Quadrupole moment (field-independent basis, Debye-Ang):
   XX=           -200.6316   YY=           -140.3050   ZZ=           -134.2614
   XY=             -7.1047   XZ=              2.2594   YZ=             -6.5056

 Summary of Natural Population Analysis:

                                       Natural Population
                Natural  -----------------------------------------------
    Atom  No    Charge         Core      Valence    Rydberg      Total
 -----------------------------------------------------------------------
      C    1   -0.30086      0.99964     2.29567    0.00555     3.30086
      C    2    0.06632      0.99956     1.92069    0.01344     2.93368
      C    3   -0.30175      0.99964     2.29697    0.00515     3.30175
      O    4   -0.28689      0.99986     3.27517    0.01186     4.28689
      C    5    0.26121      0.99942     1.72279    0.01657     2.73879
      C    6    0.06460      0.99944     1.92445    0.01150     2.93540
      C    7   -0.08597      0.99954     2.07706    0.00937     3.08597
      C    8   -0.13899      0.99957     2.13182    0.00760     3.13899
      C    9    0.01588      0.99959     1.96859    0.01594     2.98412
      N   10   -0.24556      0.99966     2.73578    0.01012     3.74556
      N   11   -0.31359      0.99968     2.80316    0.01075     3.81359
      C   12   -0.10130      0.99956     2.09107    0.01067     3.10130
      C   13    0.13473      0.99946     1.85017    0.01563     2.86527
      C   14   -0.13273      0.99945     2.12458    0.00869     3.13273
      C   15   -0.13756      0.99947     2.12564    0.01246     3.13756
      C   16    0.16089      0.99949     1.82457    0.01505     2.83911
      O   17   -0.22747      0.99986     3.22007    0.00754     4.22747
      C   18    0.42732      0.99964     1.55075    0.02228     2.57268
      O   19   -0.31637      0.99987     3.31039    0.00610     4.31637
      O   20   -0.35076      0.99988     3.34373    0.00715     4.35076
      H   21    0.11111      0.00000     0.38755    0.00135     0.38889
      H   22    0.09987      0.00000     0.39922    0.00091     0.40013
      H   23    0.09846      0.00000     0.40047    0.00107     0.40154
      H   24    0.09390      0.00000     0.40457    0.00153     0.40610
      H   25    0.10913      0.00000     0.38982    0.00105     0.39087
      H   26    0.10387      0.00000     0.39524    0.00089     0.39613
      H   27    0.09851      0.00000     0.40072    0.00077     0.40149
      H   28    0.09294      0.00000     0.40619    0.00086     0.40706
      H   29    0.09699      0.00000     0.40188    0.00112     0.40301
      H   30    0.08554      0.00000     0.41354    0.00093     0.41446
      H   31    0.18033      0.00000     0.31738    0.00230     0.31967
      H   32    0.09280      0.00000     0.40568    0.00152     0.40720
      H   33    0.10570      0.00000     0.39324    0.00106     0.39430
      H   34    0.11597      0.00000     0.38315    0.00088     0.38403
      H   35    0.09143      0.00000     0.40777    0.00080     0.40857
      H   36    0.23230      0.00000     0.26482    0.00289     0.26770
 =======================================================================
   * Total *   -0.00000     19.99228    52.76437    0.24335    73.00000

 Normal termination of Gaussian 16 at Mon Dec 14 19:48:13 2020.
