 Gaussian 16, Revision A.03,

 -----------------------------------------------------------
 # opt freq B3LYP/6-31G(d) empiricaldispersion=gd3bj scf=xqc
 -----------------------------------------------------------

 ------------------------------
 CID_79888937_JID_3661_neutraal
 ------------------------------
 Symbolic Z-matrix:
 Charge =  0 Multiplicity = 1

 SCF Done:  E(RB3LYP) =  -956.608584361     A.U. after   15 cycles
 SCF Done:  E(RB3LYP) =  -956.612864548     A.U. after   13 cycles
 SCF Done:  E(RB3LYP) =  -956.611012931     A.U. after   15 cycles
 SCF Done:  E(RB3LYP) =  -956.613816739     A.U. after   13 cycles
 SCF Done:  E(RB3LYP) =  -956.615419178     A.U. after   13 cycles
 SCF Done:  E(RB3LYP) =  -956.616269708     A.U. after   15 cycles
 SCF Done:  E(RB3LYP) =  -956.618939574     A.U. after   15 cycles
 SCF Done:  E(RB3LYP) =  -956.617411864     A.U. after   14 cycles
 SCF Done:  E(RB3LYP) =  -956.620661102     A.U. after   13 cycles
 SCF Done:  E(RB3LYP) =  -956.619438774     A.U. after   14 cycles
 SCF Done:  E(RB3LYP) =  -956.621811525     A.U. after   10 cycles
 SCF Done:  E(RB3LYP) =  -956.621819705     A.U. after   10 cycles
 SCF Done:  E(RB3LYP) =  -956.621821473     A.U. after    9 cycles
 SCF Done:  E(RB3LYP) =  -956.621821687     A.U. after    7 cycles
 SCF Done:  E(RB3LYP) =  -956.621821699     A.U. after    7 cycles
 Optimization completed.
    -- Stationary point found.
 Normal termination of Gaussian 16 at Sun Dec 13 16:02:24 2020.

 --------------------------------------------------------------------
 #N Geom=AllCheck Guess=TCheck SCRF=Check GenChk RB3LYP/6-31G(d) Freq
 --------------------------------------------------------------------

 Structure from the checkpoint file:  "JID_3661.chk"
 ------------------------------
 CID_79888937_JID_3661_neutraal
 ------------------------------
 Charge =  0 Multiplicity = 1

 SCF Done:  E(RB3LYP) =  -956.621821699     A.U. after    1 cycles

  Exact polarizability: 141.654  10.098 141.272  -8.070  -1.344 101.828
 Approx polarizability: 193.725  24.214 241.172 -13.485  -2.790 139.710

                      1                      2                      3
                      A                      A                      A
 Frequencies --     35.1801                47.1604                59.0339
 Red. masses --      4.1878                 7.8658                 5.5612
 Frc consts  --      0.0031                 0.0103                 0.0114
 IR Inten    --      0.1029                 1.1645                 0.5184

                      4                      5                      6
                      A                      A                      A
 Frequencies --     89.2283                89.9873               117.1905
 Red. masses --      3.0302                 2.6113                 3.8217
 Frc consts  --      0.0142                 0.0125                 0.0309
 IR Inten    --      0.0910                 0.4812                 0.7740

                      7                      8                      9
                      A                      A                      A
 Frequencies --    136.9542               158.9268               196.3710
 Red. masses --      1.7924                 4.2222                 4.5855
 Frc consts  --      0.0198                 0.0628                 0.1042
 IR Inten    --      0.7919                 0.3250                 2.7364

                     10                     11                     12
                      A                      A                      A
 Frequencies --    214.5161               239.8065               243.0565
 Red. masses --      2.2919                 3.3771                 1.3001
 Frc consts  --      0.0621                 0.1144                 0.0453
 IR Inten    --      1.7064                 0.8688                 0.2475

                     13                     14                     15
                      A                      A                      A
 Frequencies --    268.0697               296.4912               349.5430
 Red. masses --      2.4522                 1.2873                 2.1569
 Frc consts  --      0.1038                 0.0667                 0.1553
 IR Inten    --      1.1470                 0.2883                 1.2974

                     16                     17                     18
                      A                      A                      A
 Frequencies --    355.5392               388.7475               424.8089
 Red. masses --      2.1546                 6.0301                 2.9152
 Frc consts  --      0.1605                 0.5369                 0.3100
 IR Inten    --      0.4250                 0.1016                 1.6621

                     19                     20                     21
                      A                      A                      A
 Frequencies --    480.4326               492.8586               512.2863
 Red. masses --      2.2600                 5.5337                 2.4532
 Frc consts  --      0.3073                 0.7920                 0.3793
 IR Inten    --      2.8950                 1.7905                 1.4108

                     22                     23                     24
                      A                      A                      A
 Frequencies --    580.4018               614.2526               638.9159
 Red. masses --      1.1672                 3.9913                 4.4413
 Frc consts  --      0.2317                 0.8873                 1.0682
 IR Inten    --     81.1955                85.3526                 9.6347

                     25                     26                     27
                      A                      A                      A
 Frequencies --    717.9755               750.5687               812.8105
 Red. masses --      3.3803                 2.4761                 1.1174
 Frc consts  --      1.0266                 0.8219                 0.4350
 IR Inten    --     40.2882                11.5471                 0.1810

                     28                     29                     30
                      A                      A                      A
 Frequencies --    828.3884               846.2677               867.0316
 Red. masses --      1.1716                 4.0451                 2.4868
 Frc consts  --      0.4737                 1.7069                 1.1014
 IR Inten    --      1.6679                31.9457                20.6479

                     31                     32                     33
                      A                      A                      A
 Frequencies --    903.4052               916.5477               924.3679
 Red. masses --      2.1066                 2.1842                 3.3006
 Frc consts  --      1.0129                 1.0811                 1.6616
 IR Inten    --      9.7096                13.6402                23.7937

                     34                     35                     36
                      A                      A                      A
 Frequencies --    971.5554               997.6858              1015.1723
 Red. masses --      2.1529                 1.1243                 1.9272
 Frc consts  --      1.1973                 0.6594                 1.1702
 IR Inten    --      3.6158                49.8643                 7.6540

                     37                     38                     39
                      A                      A                      A
 Frequencies --   1056.2063              1095.7508              1107.9498
 Red. masses --      2.8406                 2.4246                 2.0533
 Frc consts  --      1.8671                 1.7152                 1.4851
 IR Inten    --      6.2612                 5.6738                 5.7704

                     40                     41                     42
                      A                      A                      A
 Frequencies --   1122.4627              1178.4149              1182.7415
 Red. masses --      1.9668                 1.6228                 1.5360
 Frc consts  --      1.4600                 1.3278                 1.2660
 IR Inten    --     45.9836                32.8968                 8.9381

                     43                     44                     45
                      A                      A                      A
 Frequencies --   1197.0418              1244.4533              1264.1605
 Red. masses --      1.8856                 1.7266                 1.8371
 Frc consts  --      1.5919                 1.5754                 1.7298
 IR Inten    --    355.1062                26.1534                18.1724

                     46                     47                     48
                      A                      A                      A
 Frequencies --   1281.3424              1307.0782              1332.2525
 Red. masses --      1.2322                 1.2004                 1.1911
 Frc consts  --      1.1920                 1.2084                 1.2456
 IR Inten    --     26.9525                 3.7557                 7.9023

                     49                     50                     51
                      A                      A                      A
 Frequencies --   1344.0590              1355.8804              1371.1333
 Red. masses --      1.3328                 1.2038                 1.1733
 Frc consts  --      1.4186                 1.3039                 1.2996
 IR Inten    --     12.0014                14.0057                14.0803

                     52                     53                     54
                      A                      A                      A
 Frequencies --   1391.2833              1402.8606              1416.7544
 Red. masses --      2.7687                 1.3618                 1.2675
 Frc consts  --      3.1576                 1.5791                 1.4990
 IR Inten    --    128.1527                33.4056                 9.0670

                     55                     56                     57
                      A                      A                      A
 Frequencies --   1434.8598              1444.1076              1465.2262
 Red. masses --      1.2399                 1.2586                 1.3825
 Frc consts  --      1.5040                 1.5465                 1.7488
 IR Inten    --      3.4766                21.2215                 1.0211

                     58                     59                     60
                      A                      A                      A
 Frequencies --   1480.5947              1508.1119              1517.8185
 Red. masses --      1.0901                 1.0727                 1.0661
 Frc consts  --      1.4079                 1.4374                 1.4471
 IR Inten    --      6.8115                 1.0825                 4.6778

                     61                     62                     63
                      A                      A                      A
 Frequencies --   1525.3898              1529.5095              1535.0291
 Red. masses --      1.0431                 1.0470                 1.0598
 Frc consts  --      1.4300                 1.4431                 1.4713
 IR Inten    --      2.5064                 3.8126                18.3392

                     64                     65                     66
                      A                      A                      A
 Frequencies --   1539.5106              1550.1558              1649.6524
 Red. masses --      1.0680                 1.0989                 5.7986
 Frc consts  --      1.4914                 1.5559                 9.2973
 IR Inten    --      2.2021                 5.7465               115.8236

                     67                     68                     69
                      A                      A                      A
 Frequencies --   1812.1703              2920.6871              2934.3158
 Red. masses --      8.8904                 1.0737                 1.0742
 Frc consts  --     17.2016                 5.3961                 5.4493
 IR Inten    --    397.2163                47.6777               137.7576

                     70                     71                     72
                      A                      A                      A
 Frequencies --   2978.5930              3055.7935              3061.5802
 Red. masses --      1.0727                 1.0357                 1.0371
 Frc consts  --      5.6071                 5.6981                 5.7276
 IR Inten    --     65.5056                17.3291                16.8121

                     73                     74                     75
                      A                      A                      A
 Frequencies --   3075.2244              3077.5451              3087.9138
 Red. masses --      1.0646                 1.0882                 1.0873
 Frc consts  --      5.9320                 6.0723                 6.1084
 IR Inten    --     19.9074                 0.9413                23.6060

                     76                     77                     78
                      A                      A                      A
 Frequencies --   3096.0268              3122.1833              3126.2969
 Red. masses --      1.0902                 1.1010                 1.1000
 Frc consts  --      6.1570                 6.3236                 6.3343
 IR Inten    --     17.2195                36.6726                45.0056

                     79                     80                     81
                      A                      A                      A
 Frequencies --   3131.0948              3146.5868              3149.4278
 Red. masses --      1.1033                 1.1023                 1.0999
 Frc consts  --      6.3729                 6.4301                 6.4276
 IR Inten    --     28.3850                17.2802                 5.7523

                     82                     83                     84
                      A                      A                      A
 Frequencies --   3202.8965              3233.5554              3706.8444
 Red. masses --      1.0903                 1.0898                 1.0642
 Frc consts  --      6.5902                 6.7135                 8.6159
 IR Inten    --      0.3342                22.7625                67.1404

 - Thermochemistry -
 -------------------
 Temperature   298.150 Kelvin.  Pressure   1.00000 Atm.
 Atom     1 has atomic number  6 and mass  12.00000

 Molecular mass:   203.09800 amu.
 Principal axes and moments of inertia in atomic units:
                           1         2         3
     Eigenvalues --  2411.007153858.216394569.01149
           X            0.99939  -0.03441  -0.00599
           Y            0.03461   0.99869   0.03765
           Z            0.00469  -0.03783   0.99927
 This molecule is an asymmetric top.
 Rotational symmetry number  1.
 Warning -- assumption of classical behavior for rotation
           may cause significant error
 Rotational temperatures (Kelvin)      0.03592     0.02245     0.01896
 Rotational constants (GHZ):           0.74854     0.46777     0.39500
 Zero-point vibrational energy     677876.3 (Joules/Mol)
                                  162.01632 (Kcal/Mol)
 Warning -- explicit consideration of  23 degrees of freedom as
           vibrations may cause significant error
 Vibrational temperatures:     50.62    67.85    84.94   128.38   129.47
          (Kelvin)            168.61   197.05   228.66   282.53   308.64
                              345.03   349.70   385.69   426.58   502.91
                              511.54   559.32   611.21   691.24   709.11
                              737.07   835.07   883.77   919.26  1033.01
                             1079.90  1169.45  1191.87  1217.59  1247.47
                             1299.80  1318.71  1329.96  1397.85  1435.45
                             1460.61  1519.65  1576.54  1594.09  1614.97
                             1695.48  1701.70  1722.28  1790.49  1818.84
                             1843.57  1880.59  1916.81  1933.80  1950.81
                             1972.75  2001.75  2018.40  2038.39  2064.44
                             2077.75  2108.13  2130.25  2169.84  2183.80
                             2194.70  2200.62  2208.56  2215.01  2230.33
                             2373.48  2607.31  4202.22  4221.83  4285.53
                             4396.61  4404.93  4424.56  4427.90  4442.82
                             4454.49  4492.13  4498.04  4504.95  4527.24
                             4531.32  4608.25  4652.36  5333.32

 Zero-point correction=                           0.258189 (Hartree/Particle)
 Thermal correction to Energy=                    0.273569
 Thermal correction to Enthalpy=                  0.274514
 Thermal correction to Gibbs Free Energy=         0.214740
 Sum of electronic and zero-point Energies=           -956.363632
 Sum of electronic and thermal Energies=              -956.348252
 Sum of electronic and thermal Enthalpies=            -956.347308
 Sum of electronic and thermal Free Energies=         -956.407081

                     E (Thermal)             CV                S
                      KCal/Mol        Cal/Mol-Kelvin    Cal/Mol-Kelvin
 Total                  171.667             55.657            125.804
 Electronic               0.000              0.000              0.000
 Translational            0.889              2.981             41.830
 Rotational               0.889              2.981             32.119
 Vibrational            169.890             49.696             51.854
 Vibration     1          0.594              1.982              5.514
 Vibration     2          0.595              1.979              4.933
 Vibration     3          0.596              1.974              4.489
 Vibration     4          0.602              1.957              3.677
 Vibration     5          0.602              1.956              3.660
 Vibration     6          0.608              1.935              3.146
 Vibration     7          0.614              1.916              2.846
 Vibration     8          0.621              1.893              2.563
 Vibration     9          0.636              1.845              2.167
 Vibration    10          0.644              1.819              2.005
 Vibration    11          0.657              1.780              1.804
 Vibration    12          0.659              1.774              1.780
 Vibration    13          0.673              1.732              1.609
 Vibration    14          0.690              1.680              1.437
 Vibration    15          0.727              1.576              1.168
 Vibration    16          0.731              1.564              1.142
 Vibration    17          0.757              1.494              1.005
 Vibration    18          0.787              1.416              0.876
 Vibration    19          0.837              1.293              0.709
 Vibration    20          0.849              1.266              0.676
 Vibration    21          0.867              1.223              0.628
 Vibration    22          0.937              1.074              0.485
 Vibration    23          0.974              1.002              0.426

 Optimization completed.
    -- Stationary point found.
 Normal termination of Gaussian 16 at Sun Dec 13 16:10:04 2020.

 ----------------------------------------------------------------------
 # B3LYP/6-311++G(d,p) empiricaldispersion=gd3bj scf=xqc pop=npa geom=c
 heck
 ----------------------------------------------------------------------

 --------------------------------------
 CID_79888937_JID_3661_Energie_neutraal
 --------------------------------------
 Structure from the checkpoint file:  "JID_3661.chk"
 Charge =  0 Multiplicity = 1

 SCF Done:  E(RB3LYP) =  -956.820763688     A.U. after   15 cycles
 Normal termination of Gaussian 16 at Sun Dec 13 16:13:14 2020.

 ----------------------------------------------------------------------
 # B3LYP/6-311++G(d,p) empiricaldispersion=gd3bj scf=xqc pop=npa geom=c
 heck
 ----------------------------------------------------------------------

 ------------------------------------
 CID_79888937_JID_3661_Energie_kation
 ------------------------------------
 Structure from the checkpoint file:  "JID_3661.chk"
 Charge =  1 Multiplicity = 2

 SCF Done:  E(UB3LYP) =  -956.532402600     A.U. after   22 cycles
 Normal termination of Gaussian 16 at Sun Dec 13 16:19:24 2020.
 Gaussian 16:  ES64L-G16RevA.03 25-Dec-2016

 ----------------------------------------------------------------------
 # B3LYP/6-311++G(d,p) empiricaldispersion=gd3bj scf=xqc pop=npa geom=c
 heck
 ----------------------------------------------------------------------

 -----------------------------------
 CID_79888937_JID_3661_Energie_anion
 -----------------------------------
 Structure from the checkpoint file:  "JID_3661.chk"
 Charge = -1 Multiplicity = 2

                         Standard orientation:
 ---------------------------------------------------------------------
 Center     Atomic      Atomic             Coordinates (Angstroms)
 Number     Number       Type             X           Y           Z
 ---------------------------------------------------------------------
      1          6           0        0.925757    0.361628    2.540813
      2          6           0        1.853759   -0.588758    1.788602
      3          7           0        1.672691   -0.542583    0.331977
      4          6           0        2.245596   -1.726475   -0.317052
      5          6           0        1.851293   -1.879538   -1.784829
      6          6           0        2.141359    0.709445   -0.265210
      7          6           0        1.137847    1.374769   -1.216852
      8         16           0       -0.214128    2.355746   -0.446399
      9          6           0       -1.524222    1.229852   -0.186289
     10          6           0       -1.497818   -0.114748   -0.217523
     11          6           0       -2.693342   -0.939959   -0.025254
     12          8           0       -2.694594   -2.157520   -0.026683
     13          8           0       -3.840249   -0.223402    0.162330
     14          1           0        1.099052    1.408687    2.273658
     15          1           0        1.086069    0.261898    3.620165
     16          1           0       -0.119222    0.130826    2.316760
     17          1           0        2.907111   -0.392139    2.068903
     18          1           0        1.635765   -1.613940    2.106237
     19          1           0        3.351125   -1.730884   -0.233868
     20          1           0        1.884826   -2.602336    0.232570
     21          1           0        2.236042   -1.063126   -2.405380
     22          1           0        2.265163   -2.812485   -2.182336
     23          1           0        0.762649   -1.915351   -1.896219
     24          1           0        2.401246    1.423392    0.522446
     25          1           0        3.070601    0.537076   -0.834738
     26          1           0        1.661725    2.114714   -1.832260
     27          1           0        0.677362    0.647991   -1.889156
     28          1           0       -2.456239    1.752044    0.014752
     29          1           0       -0.568520   -0.660014   -0.329591
     30          1           0       -4.540175   -0.890126    0.282984
 ---------------------------------------------------------------------

 SCF Done:  E(UB3LYP) =  -956.816368914     A.U. after   33 cycles
 SCF Done:  E(UB3LYP) =  -956.816368914     a.u. after    1 cycles

 The electronic state is 2-A.
 Alpha  occ. eigenvalues --  -88.72716 -19.02789 -18.95323 -14.19631 -10.14013
 Alpha  occ. eigenvalues --  -10.09130 -10.08857 -10.08751 -10.08446 -10.05840
 Alpha  occ. eigenvalues --  -10.05347 -10.04758 -10.01895  -7.81295  -5.77671
 Alpha  occ. eigenvalues --   -5.77255  -5.76773  -0.96140  -0.86672  -0.81909
 Alpha  occ. eigenvalues --   -0.69732  -0.66158  -0.65121  -0.61510  -0.58347
 Alpha  occ. eigenvalues --   -0.52688  -0.50812  -0.47777  -0.46600  -0.42778
 Alpha  occ. eigenvalues --   -0.38689  -0.37123  -0.36175  -0.34688  -0.34267
 Alpha  occ. eigenvalues --   -0.33712  -0.31780  -0.30750  -0.30595  -0.30024
 Alpha  occ. eigenvalues --   -0.28312  -0.27086  -0.26505  -0.26317  -0.25548
 Alpha  occ. eigenvalues --   -0.24311  -0.24057  -0.23364  -0.22443  -0.19844
 Alpha  occ. eigenvalues --   -0.18881  -0.18052  -0.13486  -0.11421  -0.09342
 Alpha  occ. eigenvalues --    0.04908
 Alpha virt. eigenvalues --    0.07022   0.07931   0.08242   0.08883   0.09515
 Alpha virt. eigenvalues --    0.10505   0.10730   0.11257   0.11636   0.12514
 Alpha virt. eigenvalues --    0.13200   0.13904   0.14338   0.14597   0.15070

  Beta  occ. eigenvalues --  -88.72712 -19.02761 -18.95066 -14.19610 -10.13806
  Beta  occ. eigenvalues --  -10.09121 -10.08849 -10.08716 -10.08421 -10.05825
  Beta  occ. eigenvalues --  -10.04947 -10.04750 -10.01835  -7.81291  -5.77674
  Beta  occ. eigenvalues --   -5.77262  -5.76744  -0.95930  -0.86308  -0.81875
  Beta  occ. eigenvalues --   -0.69450  -0.66139  -0.64814  -0.61380  -0.58150
  Beta  occ. eigenvalues --   -0.52421  -0.50778  -0.47526  -0.46496  -0.42383
  Beta  occ. eigenvalues --   -0.38634  -0.37070  -0.36054  -0.34579  -0.34018
  Beta  occ. eigenvalues --   -0.33609  -0.31688  -0.30698  -0.29977  -0.29675
  Beta  occ. eigenvalues --   -0.28241  -0.27015  -0.26383  -0.26189  -0.25493
  Beta  occ. eigenvalues --   -0.24269  -0.24000  -0.23343  -0.22264  -0.19602
  Beta  occ. eigenvalues --   -0.18050  -0.16844  -0.13243  -0.11231  -0.08563
  Beta virt. eigenvalues --    0.07349   0.08155   0.08684   0.08912   0.09645
  Beta virt. eigenvalues --    0.10345   0.10642   0.10874   0.11501   0.11760
  Beta virt. eigenvalues --    0.12637   0.13256   0.14026   0.14357   0.14671

 Mulliken charges and spin densities:
               1          2
     1  C   -0.403702  -0.101315
     2  C   -0.097766  -0.147231
     3  N    0.082480   0.132363
     4  C   -0.021012  -0.129227
     5  C   -0.221553  -0.374027
     6  C    0.519529  -0.971075
     7  C   -0.288895   0.010647
     8  S    0.165930  -0.221705
     9  C   -0.566655   0.505751
    10  C   -0.077828  -0.027018
    11  C   -0.052624   0.047496
    12  O   -0.365057   0.078511
    13  O   -0.229851   0.005384
    14  H    0.064456   0.052035
    15  H    0.040012   0.080068
    16  H    0.191289  -0.004208
    17  H   -0.033895   0.145940
    18  H    0.037784   0.075787
    19  H   -0.147511   0.263420
    20  H    0.132316  -0.020564
    21  H   -0.012083   0.156340
    22  H   -0.013653   0.132422
    23  H    0.071886   0.094244
    24  H   -0.135721   0.292663
    25  H   -0.324776   0.466252
    26  H   -0.405140   0.646323
    27  H    0.164644   0.005985
    28  H    0.274652  -0.013760
    29  H    0.406576  -0.181211
    30  H    0.246169  -0.000291
 Sum of Mulliken charges =  -1.00000   1.00000

 Dipole moment (field-independent basis, Debye):
    X=             -0.7880    Y=             -0.4367    Z=              1.6992  Tot=              1.9233
 Quadrupole moment (field-independent basis, Debye-Ang):
   XX=           -135.4063   YY=           -123.8110   ZZ=           -109.9843
   XY=             -9.8767   XZ=              3.2254   YZ=              1.1362

 Summary of Natural Population Analysis:

                                       Natural Population
                Natural  -----------------------------------------------
    Atom  No    Charge         Core      Valence    Rydberg      Total
 -----------------------------------------------------------------------
      C    1   -0.29479      0.99966     2.28927    0.00586     3.29479
      C    2   -0.07725      0.99962     2.06782    0.00981     3.07725
      N    3   -0.29261      0.99970     2.77765    0.01525     3.79261
      C    4   -0.07768      0.99962     2.06791    0.01015     3.07768
      C    5   -0.29342      0.99966     2.28825    0.00551     3.29342
      C    6   -0.09435      0.99958     2.08008    0.01469     3.09435
      C    7   -0.25619      0.99958     2.24399    0.01262     3.25619
      S    8    0.12266      4.99952     2.85673    0.02109     7.87734
      C    9   -0.07311      0.99947     2.06480    0.00884     3.07311
      C   10   -0.19025      0.99943     2.18002    0.01080     3.19025
      C   11    0.40817      0.99967     1.56853    0.02363     2.59183
      O   12   -0.30870      0.99987     3.30235    0.00648     4.30870
      O   13   -0.36149      0.99988     3.35417    0.00744     4.36149
      H   14    0.10197      0.00000     0.39689    0.00114     0.39803
      H   15    0.09223      0.00000     0.40708    0.00070     0.40777
      H   16    0.11077      0.00000     0.38815    0.00108     0.38923
      H   17    0.07596      0.00000     0.42273    0.00131     0.42404
      H   18    0.09215      0.00000     0.40669    0.00116     0.40785
      H   19    0.07681      0.00000     0.42171    0.00149     0.42319
      H   20    0.09332      0.00000     0.40553    0.00116     0.40668
      H   21    0.09769      0.00000     0.40110    0.00121     0.40231
      H   22    0.09719      0.00000     0.40211    0.00069     0.40281
      H   23    0.10525      0.00000     0.39368    0.00108     0.39475
      H   24    0.09921      0.00000     0.39863    0.00216     0.40079
      H   25    0.09081      0.00000     0.40629    0.00290     0.40919
      H   26    0.10482      0.00000     0.39381    0.00137     0.39518
      H   27    0.10902      0.00000     0.38957    0.00141     0.39098
      H   28    0.10182      0.00000     0.39719    0.00099     0.39818
      H   29    0.11090      0.00000     0.38632    0.00278     0.38910
      H   30    0.22908      0.00000     0.26594    0.00498     0.27092
 =======================================================================
   * Total *   -0.00000     16.99526    37.82498    0.17976    55.00000

 Normal termination of Gaussian 16 at Sun Dec 13 16:28:37 2020.
