 Gaussian 16, Revision A.03,

 -----------------------------------------------------------
 # opt freq B3LYP/6-31G(d) empiricaldispersion=gd3bj scf=xqc
 -----------------------------------------------------------

 ------------------------------
 CID_88583791_JID_1846_neutraal
 ------------------------------
 Symbolic Z-matrix:
 Charge =  0 Multiplicity = 1

 SCF Done:  E(RB3LYP) =  -912.569960503     A.U. after   15 cycles
 SCF Done:  E(RB3LYP) =  -912.574758234     A.U. after   13 cycles
 SCF Done:  E(RB3LYP) =  -912.575027993     A.U. after   15 cycles
 SCF Done:  E(RB3LYP) =  -912.576014597     A.U. after   13 cycles
 SCF Done:  E(RB3LYP) =  -912.576133600     A.U. after   12 cycles
 SCF Done:  E(RB3LYP) =  -912.576151369     A.U. after   11 cycles
 SCF Done:  E(RB3LYP) =  -912.576157376     A.U. after    9 cycles
 SCF Done:  E(RB3LYP) =  -912.576158215     A.U. after    7 cycles
 SCF Done:  E(RB3LYP) =  -912.576158366     A.U. after    7 cycles
 SCF Done:  E(RB3LYP) =  -912.576158399     A.U. after    7 cycles
 SCF Done:  E(RB3LYP) =  -912.576158417     A.U. after    7 cycles
 SCF Done:  E(RB3LYP) =  -912.576158425     A.U. after    7 cycles
 SCF Done:  E(RB3LYP) =  -912.576158429     A.U. after    7 cycles
 Optimization completed.
    -- Stationary point found.
 Normal termination of Gaussian 16 at Tue Dec  8 21:17:40 2020.

 --------------------------------------------------------------------
 #N Geom=AllCheck Guess=TCheck SCRF=Check GenChk RB3LYP/6-31G(d) Freq
 --------------------------------------------------------------------

 Structure from the checkpoint file:  "JID_1846.chk"
 ------------------------------
 CID_88583791_JID_1846_neutraal
 ------------------------------
 Charge =  0 Multiplicity = 1

 SCF Done:  E(RB3LYP) =  -912.576158429     A.U. after    1 cycles

  Exact polarizability: 115.993  -5.933  98.592   4.707   1.950  70.234
 Approx polarizability: 156.556  -3.854 170.744  13.295   1.759 108.026

                      1                      2                      3
                      A                      A                      A
 Frequencies --     19.7749                70.9839                80.5090
 Red. masses --      3.7377                 2.6880                 5.3742
 Frc consts  --      0.0009                 0.0080                 0.0205
 IR Inten    --      0.9496                 5.9787                 1.3709

                      4                      5                      6
                      A                      A                      A
 Frequencies --    109.7279               145.0814               162.4505
 Red. masses --      3.8256                 3.7845                 1.2498
 Frc consts  --      0.0271                 0.0469                 0.0194
 IR Inten    --      5.5594                 1.8930                 0.3868

                      7                      8                      9
                      A                      A                      A
 Frequencies --    208.4076               228.0825               244.4791
 Red. masses --      2.2758                 5.0826                 1.3832
 Frc consts  --      0.0582                 0.1558                 0.0487
 IR Inten    --      3.3749                 9.6819                 4.2173

                     10                     11                     12
                      A                      A                      A
 Frequencies --    287.5872               349.3259               413.2382
 Red. masses --      5.8756                 2.5475                 5.8744
 Frc consts  --      0.2863                 0.1832                 0.5910
 IR Inten    --      0.4665                 8.4108                 7.3506

                     13                     14                     15
                      A                      A                      A
 Frequencies --    422.0134               509.4077               558.0735
 Red. masses --      4.6872                 4.4683                 7.8755
 Frc consts  --      0.4918                 0.6832                 1.4451
 IR Inten    --      2.5228                11.3361                 1.9073

                     16                     17                     18
                      A                      A                      A
 Frequencies --    570.8177               631.1475               682.9014
 Red. masses --      6.5399                 7.4729                 6.1167
 Frc consts  --      1.2555                 1.7539                 1.6807
 IR Inten    --      6.5014                13.8107                15.1994

                     19                     20                     21
                      A                      A                      A
 Frequencies --    739.9890               793.3583               833.2683
 Red. masses --      1.2200                 6.7085                 4.3447
 Frc consts  --      0.3936                 2.4878                 1.7774
 IR Inten    --     26.7401                 6.7439                 1.6849

                     22                     23                     24
                      A                      A                      A
 Frequencies --    858.1881               991.6970              1024.1716
 Red. masses --      3.9502                 5.9337                 2.5792
 Frc consts  --      1.7141                 3.4382                 1.5940
 IR Inten    --      3.6017                 4.5930                16.0082

                     25                     26                     27
                      A                      A                      A
 Frequencies --   1027.2670              1066.7724              1090.7746
 Red. masses --      6.2502                 5.6275                 3.6135
 Frc consts  --      3.8861                 3.7732                 2.5331
 IR Inten    --     28.7902                64.3300                38.9286

                     28                     29                     30
                      A                      A                      A
 Frequencies --   1158.9155              1185.6172              1188.2126
 Red. masses --      1.5423                 1.2594                 1.2711
 Frc consts  --      1.2204                 1.0430                 1.0573
 IR Inten    --     30.2880                 0.7197                 0.1869

                     31                     32                     33
                      A                      A                      A
 Frequencies --   1219.9431              1223.6388              1285.2966
 Red. masses --      1.4476                 1.4845                 6.3863
 Frc consts  --      1.2693                 1.3096                 6.2160
 IR Inten    --      1.6637                 6.2804               288.9095

                     34                     35                     36
                      A                      A                      A
 Frequencies --   1292.7006              1331.5445              1422.0283
 Red. masses --      1.5179                 2.0468                 1.8350
 Frc consts  --      1.4945                 2.1382                 2.1863
 IR Inten    --     47.9717                40.4570                13.9970

                     37                     38                     39
                      A                      A                      A
 Frequencies --   1473.1266              1478.2851              1491.2344
 Red. masses --      1.1563                 1.3110                 1.1000
 Frc consts  --      1.4785                 1.6880                 1.4412
 IR Inten    --      2.0049                59.5305                 2.3201

                     40                     41                     42
                      A                      A                      A
 Frequencies --   1493.3299              1508.1491              1525.6832
 Red. masses --      1.0593                 1.0481                 1.0489
 Frc consts  --      1.3918                 1.4045                 1.4385
 IR Inten    --      2.5542                 6.7681                16.9810

                     43                     44                     45
                      A                      A                      A
 Frequencies --   1540.2134              1591.5277              1602.9050
 Red. masses --      1.0581                 6.4980                 5.6316
 Frc consts  --      1.4789                 9.6975                 8.5250
 IR Inten    --      6.1761                30.7275               282.0033

                     46                     47                     48
                      A                      A                      A
 Frequencies --   3034.9014              3049.2151              3072.2209
 Red. masses --      1.0291                 1.0588                 1.0295
 Frc consts  --      5.5845                 5.8002                 5.7249
 IR Inten    --     42.0342                25.9404                39.5712

                     49                     50                     51
                      A                      A                      A
 Frequencies --   3097.4656              3102.7561              3133.8576
 Red. masses --      1.1047                 1.1077                 1.1032
 Frc consts  --      6.2449                 6.2828                 6.3836
 IR Inten    --     12.0603                50.9980                17.4968

                     52                     53                     54
                      A                      A                      A
 Frequencies --   3146.4475              3185.8207              3290.3390
 Red. masses --      1.1077                 1.1069                 1.0943
 Frc consts  --      6.4614                 6.6194                 6.9801
 IR Inten    --     20.8540                18.2865                 1.5810

 - Thermochemistry -
 -------------------
 Temperature   298.150 Kelvin.  Pressure   1.00000 Atm.
 Atom     1 has atomic number  6 and mass  12.00000

 Molecular mass:   175.03032 amu.
 Principal axes and moments of inertia in atomic units:
                           1         2         3
     Eigenvalues --   993.707683462.810933932.09982
           X            0.99939  -0.03483  -0.00325
           Y            0.03487   0.99930   0.01380
           Z            0.00277  -0.01391   0.99990
 This molecule is an asymmetric top.
 Rotational symmetry number  1.
 Warning -- assumption of classical behavior for rotation
           may cause significant error
 Rotational temperatures (Kelvin)      0.08716     0.02501     0.02203
 Rotational constants (GHZ):           1.81617     0.52118     0.45898
 Zero-point vibrational energy     402213.6 (Joules/Mol)
                                   96.13137 (Kcal/Mol)
 Warning -- explicit consideration of  16 degrees of freedom as
           vibrations may cause significant error
 Vibrational temperatures:     28.45   102.13   115.83   157.87   208.74
          (Kelvin)            233.73   299.85   328.16   351.75   413.77
                              502.60   594.56   607.18   732.92   802.94
                              821.28   908.08   982.54  1064.68  1141.47
                             1198.89  1234.74  1426.83  1473.55  1478.01
                             1534.85  1569.38  1667.42  1705.84  1709.57
                             1755.23  1760.54  1849.26  1859.91  1915.80
                             2045.98  2119.50  2126.92  2145.55  2148.57
                             2169.89  2195.12  2216.02  2289.85  2306.22
                             4366.55  4387.14  4420.24  4456.56  4464.17
                             4508.92  4527.04  4583.69  4734.06

 Zero-point correction=                           0.153195 (Hartree/Particle)
 Thermal correction to Energy=                    0.164903
 Thermal correction to Enthalpy=                  0.165847
 Thermal correction to Gibbs Free Energy=         0.113696
 Sum of electronic and zero-point Energies=           -912.422963
 Sum of electronic and thermal Energies=              -912.411255
 Sum of electronic and thermal Enthalpies=            -912.410311
 Sum of electronic and thermal Free Energies=         -912.462462

                     E (Thermal)             CV                S
                      KCal/Mol        Cal/Mol-Kelvin    Cal/Mol-Kelvin
 Total                  103.478             40.894            109.761
 Electronic               0.000              0.000              0.000
 Translational            0.889              2.981             41.387
 Rotational               0.889              2.981             30.982
 Vibrational            101.701             34.932             37.393
 Vibration     1          0.593              1.986              6.657
 Vibration     2          0.598              1.968              4.126
 Vibration     3          0.600              1.962              3.878
 Vibration     4          0.606              1.941              3.274
 Vibration     5          0.616              1.908              2.736
 Vibration     6          0.623              1.888              2.521
 Vibration     7          0.642              1.828              2.058
 Vibration     8          0.651              1.798              1.894
 Vibration     9          0.660              1.772              1.770
 Vibration    10          0.685              1.697              1.488
 Vibration    11          0.727              1.577              1.169
 Vibration    12          0.777              1.441              0.915
 Vibration    13          0.784              1.422              0.885
 Vibration    14          0.865              1.229              0.635
 Vibration    15          0.914              1.122              0.528
 Vibration    16          0.927              1.094              0.503

                           ! Non-Optimized Parameters !
 Normal termination of Gaussian 16 at Tue Dec  8 21:20:58 2020.

 ----------------------------------------------------------------------
 # B3LYP/6-311++G(d,p) empiricaldispersion=gd3bj scf=xqc pop=npa geom=c
 heck
 ----------------------------------------------------------------------

 --------------------------------------
 CID_88583791_JID_1846_Energie_neutraal
 --------------------------------------
 Structure from the checkpoint file:  "JID_1846.chk"
 Charge =  0 Multiplicity = 1

 SCF Done:  E(RB3LYP) =  -912.752326643     A.U. after   14 cycles
 Normal termination of Gaussian 16 at Tue Dec  8 21:22:51 2020.

 ----------------------------------------------------------------------
 # B3LYP/6-311++G(d,p) empiricaldispersion=gd3bj scf=xqc pop=npa geom=c
 heck
 ----------------------------------------------------------------------

 ------------------------------------
 CID_88583791_JID_1846_Energie_kation
 ------------------------------------
 Structure from the checkpoint file:  "JID_1846.chk"
 Charge =  1 Multiplicity = 2

 SCF Done:  E(UB3LYP) =  -912.448363588     A.U. after   21 cycles
 Normal termination of Gaussian 16 at Tue Dec  8 21:27:14 2020.
 Gaussian 16:  ES64L-G16RevA.03 25-Dec-2016

 ----------------------------------------------------------------------
 # B3LYP/6-311++G(d,p) empiricaldispersion=gd3bj scf=xqc pop=npa geom=c
 heck
 ----------------------------------------------------------------------

 -----------------------------------
 CID_88583791_JID_1846_Energie_anion
 -----------------------------------
 Structure from the checkpoint file:  "JID_1846.chk"
 Charge = -1 Multiplicity = 2

                         Standard orientation:
 ---------------------------------------------------------------------
 Center     Atomic      Atomic             Coordinates (Angstroms)
 Number     Number       Type             X           Y           Z
 ---------------------------------------------------------------------
      1          6           0        3.450446   -1.448871    0.576289
      2          8           0        3.053688   -0.076881    0.419136
      3          6           0        1.788987    0.104392    0.033916
      4          7           0        0.917399   -0.825614   -0.208879
      5          6           0       -0.295450   -0.261773   -0.576854
      6          6           0       -0.331427    1.098309   -0.614687
      7         16           0        1.221553    1.760267   -0.156774
      8          6           0       -1.431381   -1.183688   -0.933702
      9          8           0       -2.712369   -0.629609   -0.690116
     10          8           0       -2.882596   -0.679262    0.765445
     11          6           0       -3.447819    0.563143    1.131542
     12          1           0        4.491994   -1.412064    0.895415
     13          1           0        3.352843   -1.984342   -0.372135
     14          1           0        2.828983   -1.940572    1.329725
     15          1           0       -1.158812    1.736895   -0.885294
     16          1           0       -1.446221   -1.395834   -2.010980
     17          1           0       -1.315794   -2.135107   -0.402323
     18          1           0       -2.749623    1.391748    0.963206
     19          1           0       -4.387083    0.748184    0.595801
     20          1           0       -3.652837    0.463080    2.202371
 ---------------------------------------------------------------------

 SCF Done:  E(UB3LYP) =  -912.735189705     A.U. after   32 cycles

 The electronic state is 2-A.
 Alpha  occ. eigenvalues --  -88.78369 -19.08388 -19.08114 -19.07792 -14.21242
 Alpha  occ. eigenvalues --  -10.19144 -10.13179 -10.12519 -10.11716 -10.11052
 Alpha  occ. eigenvalues --  -10.09451  -7.86973  -5.83269  -5.82928  -5.82527
 Alpha  occ. eigenvalues --   -1.02613  -1.00170  -0.86253  -0.83987  -0.70390
 Alpha  occ. eigenvalues --   -0.66869  -0.62405  -0.58100  -0.55683  -0.49582
 Alpha  occ. eigenvalues --   -0.46375  -0.43079  -0.40403  -0.39202  -0.39046
 Alpha  occ. eigenvalues --   -0.38499  -0.37114  -0.34822  -0.32610  -0.31093
 Alpha  occ. eigenvalues --   -0.30337  -0.30171  -0.27748  -0.26997  -0.25233
 Alpha  occ. eigenvalues --   -0.23502  -0.21963  -0.19178  -0.18613  -0.15872
 Alpha  occ. eigenvalues --   -0.12729   0.04661
 Alpha virt. eigenvalues --    0.06132   0.07236   0.08051   0.08497   0.09211
 Alpha virt. eigenvalues --    0.09733   0.10231   0.10361   0.10853   0.11413
 Alpha virt. eigenvalues --    0.11836   0.12162   0.13253   0.14130   0.14560

  Beta  occ. eigenvalues --  -88.78362 -19.08380 -19.08095 -19.07783 -14.21240
  Beta  occ. eigenvalues --  -10.19118 -10.13165 -10.12466 -10.11681 -10.11044
  Beta  occ. eigenvalues --  -10.09398  -7.86967  -5.83259  -5.82922  -5.82517
  Beta  occ. eigenvalues --   -1.02587  -1.00145  -0.86225  -0.83964  -0.70340
  Beta  occ. eigenvalues --   -0.66813  -0.62339  -0.58035  -0.55613  -0.49524
  Beta  occ. eigenvalues --   -0.46308  -0.43036  -0.40371  -0.39148  -0.39006
  Beta  occ. eigenvalues --   -0.38447  -0.37054  -0.34782  -0.32557  -0.31051
  Beta  occ. eigenvalues --   -0.30276  -0.30115  -0.27684  -0.26951  -0.25183
  Beta  occ. eigenvalues --   -0.23443  -0.21925  -0.19169  -0.18562  -0.15851
  Beta  occ. eigenvalues --   -0.12611
  Beta virt. eigenvalues --    0.07053   0.07518   0.07668   0.08517   0.09126
  Beta virt. eigenvalues --    0.09625   0.09943   0.10544   0.11060   0.11440
  Beta virt. eigenvalues --    0.11763   0.12249   0.12408   0.13341   0.14248

 Mulliken charges and spin densities:
               1          2
     1  C    1.377419  -1.659301
     2  O   -0.178675   0.074858
     3  C   -0.277605   0.524271
     4  N   -0.049768   0.121980
     5  C   -1.198836   0.363671
     6  C    0.997373  -0.389415
     7  S    0.111152  -0.397885
     8  C    0.629677  -1.247854
     9  O   -0.078407   0.025081
    10  O   -0.170583   0.060420
    11  C    0.822606  -1.118905
    12  H   -0.565355   0.724244
    13  H   -0.473743   0.656381
    14  H   -0.305788   0.485294
    15  H   -0.772724   1.069540
    16  H   -0.232493   0.421100
    17  H    0.247323  -0.032418
    18  H   -0.321576   0.459540
    19  H   -0.294831   0.450002
    20  H   -0.265165   0.409395
 Sum of Mulliken charges =  -1.00000   1.00000

 Dipole moment (field-independent basis, Debye):
    X=             -0.5849    Y=              1.0470    Z=             -0.8550  Tot=              1.4729
 Quadrupole moment (field-independent basis, Debye-Ang):
   XX=           -152.5183   YY=           -110.8727   ZZ=           -102.3255
   XY=             20.2311   XZ=             -2.8550   YZ=              1.9083

 Summary of Natural Population Analysis:

                                       Natural Population
                Natural  -----------------------------------------------
    Atom  No    Charge         Core      Valence    Rydberg      Total
 -----------------------------------------------------------------------
      C    1   -0.09979      0.99959     2.09097    0.00922     3.09979
      O    2   -0.27153      0.99984     3.26124    0.01044     4.27153
      C    3    0.21017      0.99955     1.76810    0.02218     2.78983
      N    4   -0.28123      0.99961     2.77026    0.01136     3.78123
      C    5    0.05074      0.99947     1.93498    0.01481     2.94926
      C    6   -0.20317      0.99944     2.19269    0.01103     3.20317
      S    7    0.17593      4.99945     2.80460    0.02003     7.82407
      C    8   -0.01935      0.99954     2.00649    0.01331     3.01935
      O    9   -0.16071      0.99990     3.15248    0.00832     4.16071
      O   10   -0.15892      0.99991     3.14964    0.00937     4.15892
      C   11   -0.10118      0.99964     2.09097    0.01057     3.10118
      H   12    0.09394      0.00000     0.40397    0.00209     0.40606
      H   13    0.09363      0.00000     0.40391    0.00246     0.40637
      H   14    0.09252      0.00000     0.40565    0.00183     0.40748
      H   15    0.11765      0.00000     0.37949    0.00286     0.38235
      H   16    0.10032      0.00000     0.39791    0.00176     0.39968
      H   17    0.09679      0.00000     0.40107    0.00215     0.40321
      H   18    0.08610      0.00000     0.41152    0.00239     0.41390
      H   19    0.08468      0.00000     0.41331    0.00200     0.41532
      H   20    0.09339      0.00000     0.40513    0.00148     0.40661
 =======================================================================
   * Total *   -0.00000     14.99594    30.84440    0.15966    46.00000

 Normal termination of Gaussian 16 at Tue Dec  8 21:31:33 2020.
