 Gaussian 16, Revision A.03,

 -----------------------------------------------------------
 # opt freq B3LYP/6-31G(d) empiricaldispersion=gd3bj scf=xqc
 -----------------------------------------------------------

 --------------------------------
 CID_127858247_JID_10502_neutraal
 --------------------------------
 Symbolic Z-matrix:
 Charge =  0 Multiplicity = 1

 SCF Done:  E(RB3LYP) =  -918.869217069     A.U. after   15 cycles
 SCF Done:  E(RB3LYP) =  -918.879054599     A.U. after   13 cycles
 SCF Done:  E(RB3LYP) =  -918.874745571     A.U. after   14 cycles
 SCF Done:  E(RB3LYP) =  -918.880685153     A.U. after   12 cycles
 SCF Done:  E(RB3LYP) =  -918.881574973     A.U. after   12 cycles
 SCF Done:  E(RB3LYP) =  -918.881879301     A.U. after   12 cycles
 SCF Done:  E(RB3LYP) =  -918.881921950     A.U. after   10 cycles
 SCF Done:  E(RB3LYP) =  -918.881942601     A.U. after   10 cycles
 SCF Done:  E(RB3LYP) =  -918.881949977     A.U. after   10 cycles
 SCF Done:  E(RB3LYP) =  -918.881954187     A.U. after    9 cycles
 SCF Done:  E(RB3LYP) =  -918.881954989     A.U. after    8 cycles
 SCF Done:  E(RB3LYP) =  -918.881955161     A.U. after    8 cycles
 Optimization completed.
    -- Stationary point found.
 Normal termination of Gaussian 16 at Sun Dec 13 16:50:42 2020.

 --------------------------------------------------------------------
 #N Geom=AllCheck Guess=TCheck SCRF=Check GenChk RB3LYP/6-31G(d) Freq
 --------------------------------------------------------------------

 Structure from the checkpoint file:  "JID_10502.chk"
 --------------------------------
 CID_127858247_JID_10502_neutraal
 --------------------------------
 Charge =  0 Multiplicity = 1

 SCF Done:  E(RB3LYP) =  -918.881955161     A.U. after    1 cycles

  Exact polarizability: 240.950   0.624 151.248   0.569  13.606 138.234
 Approx polarizability: 312.964 -10.342 251.153  -2.305  36.338 222.360

                      1                      2                      3
                      A                      A                      A
 Frequencies --     37.7105                40.4174                66.0212
 Red. masses --      5.0756                 5.1053                 3.4244
 Frc consts  --      0.0043                 0.0049                 0.0088
 IR Inten    --      3.3588                 1.2102                 1.2820

                      4                      5                      6
                      A                      A                      A
 Frequencies --     82.7390                97.0402               123.3770
 Red. masses --      4.0226                 4.2748                 1.4412
 Frc consts  --      0.0162                 0.0237                 0.0129
 IR Inten    --      2.0819                 2.1909                 1.2765

                      7                      8                      9
                      A                      A                      A
 Frequencies --    129.6471               135.0071               170.6362
 Red. masses --      2.2777                 2.0925                 5.3965
 Frc consts  --      0.0226                 0.0225                 0.0926
 IR Inten    --      1.5404                 0.3094                 2.0071

                     10                     11                     12
                      A                      A                      A
 Frequencies --    181.9418               204.1272               218.8609
 Red. masses --      5.2070                 4.1212                 3.0452
 Frc consts  --      0.1016                 0.1012                 0.0859
 IR Inten    --      1.8166                 2.7662                 0.3744

                     13                     14                     15
                      A                      A                      A
 Frequencies --    258.9639               277.9390               303.8836
 Red. masses --      4.0534                 4.8970                 2.9566
 Frc consts  --      0.1602                 0.2229                 0.1609
 IR Inten    --      2.4195                 0.5562                 4.2622

                     16                     17                     18
                      A                      A                      A
 Frequencies --    315.7144               333.9302               374.4453
 Red. masses --      3.4169                 3.6849                 2.3747
 Frc consts  --      0.2007                 0.2421                 0.1962
 IR Inten    --      3.7170                 2.1665                 0.4786

                     19                     20                     21
                      A                      A                      A
 Frequencies --    388.5472               394.0705               414.8070
 Red. masses --      2.5106                 2.9257                 2.9807
 Frc consts  --      0.2233                 0.2677                 0.3022
 IR Inten    --      1.7330                 2.0997                 6.1952

                     22                     23                     24
                      A                      A                      A
 Frequencies --    456.3074               483.6332               503.3628
 Red. masses --      3.3723                 2.5792                 3.9809
 Frc consts  --      0.4137                 0.3554                 0.5943
 IR Inten    --      1.4954                 3.6555                 6.7830

                     25                     26                     27
                      A                      A                      A
 Frequencies --    525.8799               565.1417               577.3037
 Red. masses --      3.0393                 6.2527                 3.7507
 Frc consts  --      0.4952                 1.1766                 0.7365
 IR Inten    --     17.5325                 4.2978                 9.9729

                     28                     29                     30
                      A                      A                      A
 Frequencies --    597.8175               619.1349               667.2705
 Red. masses --      4.7933                 3.8964                 2.0261
 Frc consts  --      1.0093                 0.8800                 0.5315
 IR Inten    --     15.8280                 7.2438                 3.9621

                     31                     32                     33
                      A                      A                      A
 Frequencies --    700.1686               714.4992               728.0859
 Red. masses --      2.4492                 2.0978                 3.0271
 Frc consts  --      0.7074                 0.6310                 0.9455
 IR Inten    --      4.0898                23.1762                13.4104

                     34                     35                     36
                      A                      A                      A
 Frequencies --    755.3630               762.0075               793.8941
 Red. masses --      4.4235                 2.8616                 2.5691
 Frc consts  --      1.4870                 0.9790                 0.9540
 IR Inten    --      5.7433                 2.4173                54.1335

                     37                     38                     39
                      A                      A                      A
 Frequencies --    810.2833               824.1816               851.9454
 Red. masses --      1.2933                 1.7532                 2.6432
 Frc consts  --      0.5003                 0.7016                 1.1303
 IR Inten    --      5.3082                 5.5372                 3.1150

                     40                     41                     42
                      A                      A                      A
 Frequencies --    881.7023               896.2536               923.1667
 Red. masses --      2.1840                 2.5230                 2.2844
 Frc consts  --      1.0003                 1.1941                 1.1470
 IR Inten    --      2.8342                11.2479                 3.5761

                     43                     44                     45
                      A                      A                      A
 Frequencies --    946.9321               954.6728               965.9931
 Red. masses --      1.9938                 2.2974                 1.6461
 Frc consts  --      1.0533                 1.2337                 0.9050
 IR Inten    --      0.4734                 1.2303                 4.4116

                     46                     47                     48
                      A                      A                      A
 Frequencies --    976.8439               994.0800               994.7650
 Red. masses --      2.1191                 2.3320                 2.1274
 Frc consts  --      1.1914                 1.3577                 1.2403
 IR Inten    --      3.2496                 0.6105                14.0077

                     49                     50                     51
                      A                      A                      A
 Frequencies --   1010.5909              1014.1776              1048.1783
 Red. masses --      2.5000                 2.7130                 2.0613
 Frc consts  --      1.5043                 1.6441                 1.3343
 IR Inten    --      2.2308                63.0823                 3.9494

                     52                     53                     54
                      A                      A                      A
 Frequencies --   1075.2701              1078.8217              1095.4886
 Red. masses --      1.5567                 1.5102                 2.0185
 Frc consts  --      1.0604                 1.0356                 1.4273
 IR Inten    --     11.6624                 5.1848                71.7385

                     55                     56                     57
                      A                      A                      A
 Frequencies --   1113.9297              1133.1687              1156.8380
 Red. masses --      2.9561                 2.1847                 1.8835
 Frc consts  --      2.1612                 1.6529                 1.4851
 IR Inten    --      9.7097                17.0730                17.7583

                     58                     59                     60
                      A                      A                      A
 Frequencies --   1165.9516              1178.4225              1210.8397
 Red. masses --      3.7723                 2.3928                 2.0628
 Frc consts  --      3.0214                 1.9578                 1.7819
 IR Inten    --    143.6902                13.8415                 5.4831

                     61                     62                     63
                      A                      A                      A
 Frequencies --   1219.5234              1223.9080              1232.7488
 Red. masses --      1.8181                 1.8631                 1.7283
 Frc consts  --      1.5931                 1.6443                 1.5474
 IR Inten    --     11.0021                 0.7753                 2.0746

                     64                     65                     66
                      A                      A                      A
 Frequencies --   1244.0467              1279.6323              1281.0549
 Red. masses --      2.0115                 1.4447                 1.3430
 Frc consts  --      1.8342                 1.3938                 1.2986
 IR Inten    --     12.6936                 4.8819                 1.0612

                     67                     68                     69
                      A                      A                      A
 Frequencies --   1291.8675              1295.9123              1314.6537
 Red. masses --      1.3825                 2.2527                 1.4757
 Frc consts  --      1.3595                 2.2289                 1.5027
 IR Inten    --      0.6484                59.4939                41.9035

                     70                     71                     72
                      A                      A                      A
 Frequencies --   1321.5893              1356.1172              1358.8998
 Red. masses --      1.4244                 1.6014                 1.3724
 Frc consts  --      1.4658                 1.7352                 1.4931
 IR Inten    --     36.5843                28.5397                26.8574

                     73                     74                     75
                      A                      A                      A
 Frequencies --   1363.1175              1383.9235              1409.5190
 Red. masses --      1.7477                 1.2618                 1.3237
 Frc consts  --      1.9133                 1.4238                 1.5495
 IR Inten    --      3.9693                 2.9130                 4.3834

                     76                     77                     78
                      A                      A                      A
 Frequencies --   1416.8519              1419.6946              1438.1666
 Red. masses --      1.9013                 1.4276                 1.2948
 Frc consts  --      2.2488                 1.6953                 1.5779
 IR Inten    --      5.1965                20.2042                 2.5824

                     79                     80                     81
                      A                      A                      A
 Frequencies --   1444.9502              1479.5864              1493.4111
 Red. masses --      1.2564                 2.5889                 2.1869
 Frc consts  --      1.5456                 3.3392                 2.8737
 IR Inten    --      0.0365                73.7903                94.5340

                     82                     83                     84
                      A                      A                      A
 Frequencies --   1504.3046              1506.4705              1509.2547
 Red. masses --      1.0928                 1.0880                 1.0423
 Frc consts  --      1.4570                 1.4548                 1.3988
 IR Inten    --     12.9927                 6.0190                 9.0157

                     85                     86                     87
                      A                      A                      A
 Frequencies --   1516.1033              1520.2370              1523.3414
 Red. masses --      1.0843                 1.1484                 1.0807
 Frc consts  --      1.4685                 1.5638                 1.4775
 IR Inten    --      5.9001                27.3626                 1.3785

                     88                     89                     90
                      A                      A                      A
 Frequencies --   1529.3079              1531.6820              1541.0072
 Red. masses --      1.3556                 1.0966                 1.1276
 Frc consts  --      1.8679                 1.5158                 1.5777
 IR Inten    --     34.8124                 4.2756                 2.5124

                     91                     92                     93
                      A                      A                      A
 Frequencies --   1624.5351              1676.0865              1719.3660
 Red. masses --      6.0350                 4.8623                10.3418
 Frc consts  --      9.3840                 8.0480                18.0128
 IR Inten    --    129.0805                85.8388               208.2819

                     94                     95                     96
                      A                      A                      A
 Frequencies --   1762.4319              2991.9649              3028.7275
 Red. masses --      8.3394                 1.0698                 1.0735
 Frc consts  --     15.2619                 5.6424                 5.8020
 IR Inten    --    594.2009                64.6690                37.5329

                     97                     98                     99
                      A                      A                      A
 Frequencies --   3047.4512              3057.4584              3058.0258
 Red. masses --      1.0395                 1.0585                 1.0644
 Frc consts  --      5.6877                 5.8300                 5.8646
 IR Inten    --     24.4827                34.2749                50.5413

                    100                    101                    102
                      A                      A                      A
 Frequencies --   3065.7387              3070.9337              3081.8708
 Red. masses --      1.0681                 1.0610                 1.0935
 Frc consts  --      5.9149                 5.8953                 6.1192
 IR Inten    --     43.5713                53.4300                49.9336

                    103                    104                    105
                      A                      A                      A
 Frequencies --   3095.0288              3099.4511              3104.2448
 Red. masses --      1.0610                 1.1012                 1.1066
 Frc consts  --      5.9881                 6.2329                 6.2827
 IR Inten    --     15.5631                11.4908                18.9869

                    106                    107                    108
                      A                      A                      A
 Frequencies --   3121.9759              3132.6594              3150.4557
 Red. masses --      1.1080                 1.1013                 1.1070
 Frc consts  --      6.3629                 6.3678                 6.4737
 IR Inten    --     35.1078                23.5543                16.1130

                    109                    110                    111
                      A                      A                      A
 Frequencies --   3156.3804              3158.9046              3162.7478
 Red. masses --      1.0989                 1.0964                 1.0893
 Frc consts  --      6.4504                 6.4459                 6.4196
 IR Inten    --      7.8660                 5.9731                26.9370

                    112                    113                    114
                      A                      A                      A
 Frequencies --   3207.0783              3236.5164              3579.3482
 Red. masses --      1.0900                 1.0934                 1.0772
 Frc consts  --      6.6051                 6.7479                 8.1311
 IR Inten    --      3.7734                 7.3130                43.3117

 - Thermochemistry -
 -------------------
 Temperature   298.150 Kelvin.  Pressure   1.00000 Atm.
 Atom     1 has atomic number  6 and mass  12.00000

 Molecular mass:   276.14739 amu.
 Principal axes and moments of inertia in atomic units:
                           1         2         3
     Eigenvalues --  2422.212248995.920989500.33473
           X            0.99996   0.00822  -0.00359
           Y           -0.00827   0.99987  -0.01394
           Z            0.00348   0.01397   0.99990
 This molecule is an asymmetric top.
 Rotational symmetry number  1.
 Warning -- assumption of classical behavior for rotation
           may cause significant error
 Rotational temperatures (Kelvin)      0.03576     0.00963     0.00912
 Rotational constants (GHZ):           0.74508     0.20062     0.18997
 Zero-point vibrational energy     895060.7 (Joules/Mol)
                                  213.92464 (Kcal/Mol)
 Warning -- explicit consideration of  29 degrees of freedom as
           vibrations may cause significant error
 Vibrational temperatures:     54.26    58.15    94.99   119.04   139.62
          (Kelvin)            177.51   186.53   194.25   245.51   261.77
                              293.69   314.89   372.59   399.89   437.22
                              454.24   480.45   538.74   559.03   566.98
                              596.81   656.52   695.84   724.23   756.62
                              813.11   830.61   860.13   890.80   960.05
                             1007.39  1028.00  1047.55  1086.80  1096.36
                             1142.24  1165.82  1185.81  1225.76  1268.57
                             1289.51  1328.23  1362.42  1373.56  1389.85
                             1405.46  1430.26  1431.24  1454.01  1459.18
                             1508.09  1547.07  1552.18  1576.16  1602.70
                             1630.38  1664.43  1677.54  1695.49  1742.13
                             1754.62  1760.93  1773.65  1789.91  1841.11
                             1843.15  1858.71  1864.53  1891.49  1901.47
                             1951.15  1955.15  1961.22  1991.16  2027.98
                             2038.53  2042.62  2069.20  2078.96  2128.79
                             2148.69  2164.36  2167.48  2171.48  2181.33
                             2187.28  2191.75  2200.33  2203.75  2217.17
                             2337.34  2411.51  2473.78  2535.75  4304.77
                             4357.66  4384.60  4399.00  4399.82  4410.91
                             4418.39  4434.12  4453.06  4459.42  4466.32
                             4491.83  4507.20  4532.80  4541.33  4544.96
                             4550.49  4614.27  4656.63  5149.88

 Zero-point correction=                           0.340911 (Hartree/Particle)
 Thermal correction to Energy=                    0.358950
 Thermal correction to Enthalpy=                  0.359894
 Thermal correction to Gibbs Free Energy=         0.294816
 Sum of electronic and zero-point Energies=           -918.541045
 Sum of electronic and thermal Energies=              -918.523005
 Sum of electronic and thermal Enthalpies=            -918.522061
 Sum of electronic and thermal Free Energies=         -918.587139

                     E (Thermal)             CV                S
                      KCal/Mol        Cal/Mol-Kelvin    Cal/Mol-Kelvin
 Total                  225.244             70.626            136.967
 Electronic               0.000              0.000              0.000
 Translational            0.889              2.981             42.746
 Rotational               0.889              2.981             33.692
 Vibrational            223.467             64.665             60.529
 Vibration     1          0.594              1.982              5.376
 Vibration     2          0.594              1.981              5.239
 Vibration     3          0.597              1.970              4.269
 Vibration     4          0.600              1.961              3.825
 Vibration     5          0.603              1.951              3.513
 Vibration     6          0.610              1.930              3.047
 Vibration     7          0.612              1.924              2.951
 Vibration     8          0.613              1.918              2.873
 Vibration     9          0.626              1.879              2.428
 Vibration    10          0.630              1.864              2.308
 Vibration    11          0.640              1.834              2.096
 Vibration    12          0.647              1.812              1.968
 Vibration    13          0.668              1.748              1.669
 Vibration    14          0.679              1.714              1.546
 Vibration    15          0.695              1.666              1.395
 Vibration    16          0.703              1.644              1.332
 Vibration    17          0.715              1.608              1.241
 Vibration    18          0.746              1.525              1.062
 Vibration    19          0.757              1.495              1.006
 Vibration    20          0.761              1.483              0.985
 Vibration    21          0.778              1.438              0.910
 Vibration    22          0.815              1.347              0.777
 Vibration    23          0.840              1.286              0.700
 Vibration    24          0.859              1.243              0.650
 Vibration    25          0.881              1.193              0.596
 Vibration    26          0.921              1.107              0.514
 Vibration    27          0.934              1.080              0.490
 Vibration    28          0.956              1.036              0.453
 Vibration    29          0.979              0.991              0.418

                           ! Non-Optimized Parameters !
 Normal termination of Gaussian 16 at Sun Dec 13 17:12:27 2020.

 ----------------------------------------------------------------------
 # B3LYP/6-311++G(d,p) empiricaldispersion=gd3bj scf=xqc pop=npa geom=c
 heck
 ----------------------------------------------------------------------

 ----------------------------------------
 CID_127858247_JID_10502_Energie_neutraal
 ----------------------------------------
 Structure from the checkpoint file:  "JID_10502.chk"
 Charge =  0 Multiplicity = 1

 SCF Done:  E(RB3LYP) =  -919.136460449     A.U. after   16 cycles
 Normal termination of Gaussian 16 at Sun Dec 13 17:21:21 2020.

 ----------------------------------------------------------------------
 # B3LYP/6-311++G(d,p) empiricaldispersion=gd3bj scf=xqc pop=npa geom=c
 heck
 ----------------------------------------------------------------------

 --------------------------------------
 CID_127858247_JID_10502_Energie_kation
 --------------------------------------
 Structure from the checkpoint file:  "JID_10502.chk"
 Charge =  1 Multiplicity = 2

 SCF Done:  E(UB3LYP) =  -918.846867779     A.U. after   33 cycles
 SCF Done:  E(UB3LYP) =  -918.846867779     a.u. after    1 cycles
 Normal termination of Gaussian 16 at Sun Dec 13 17:47:10 2020.
 Gaussian 16:  ES64L-G16RevA.03 25-Dec-2016

 ----------------------------------------------------------------------
 # B3LYP/6-311++G(d,p) empiricaldispersion=gd3bj scf=xqc pop=npa geom=c
 heck
 ----------------------------------------------------------------------

 -------------------------------------
 CID_127858247_JID_10502_Energie_anion
 -------------------------------------
 Structure from the checkpoint file:  "JID_10502.chk"
 Charge = -1 Multiplicity = 2

                         Standard orientation:
 ---------------------------------------------------------------------
 Center     Atomic      Atomic             Coordinates (Angstroms)
 Number     Number       Type             X           Y           Z
 ---------------------------------------------------------------------
      1          6           0        5.645840    0.480549    0.778883
      2          6           0        4.284903    0.061145    0.309600
      3          6           0        4.045238   -0.857199   -0.677391
      4          6           0        2.703793   -1.172943   -1.009273
      5          6           0        1.632281   -0.555956   -0.414101
      6          6           0        1.850393    0.401482    0.657761
      7          8           0        0.998523    0.987657    1.327116
      8          7           0        3.211325    0.642900    0.924400
      9          6           0        0.247004   -1.052943   -0.733704
     10          8           0        0.033144   -2.266373   -0.681395
     11          7           0       -0.713319   -0.146457   -1.079249
     12          6           0       -0.470928    1.266604   -1.332171
     13          6           0       -1.291294    2.190781   -0.433430
     14          8           0       -2.671961    2.108515   -0.762071
     15          6           0       -3.443042    1.190220   -0.001579
     16          6           0       -2.914906   -0.261218    0.054572
     17          6           0       -2.096781   -0.617429   -1.194955
     18          6           0       -2.236819   -0.634443    1.413127
     19          6           0       -3.591812   -1.194991    1.911405
     20          6           0       -4.073018   -1.237691    0.439905
     21          1           0        5.794944    1.559349    0.646054
     22          1           0        5.782404    0.255831    1.844023
     23          1           0        6.422242   -0.043451    0.217685
     24          1           0        4.873884   -1.340982   -1.179569
     25          1           0        2.504366   -1.936893   -1.755142
     26          1           0        3.359084    1.305249    1.678452
     27          1           0        0.592220    1.476123   -1.219136
     28          1           0       -0.743373    1.483676   -2.374906
     29          1           0       -0.986249    3.226287   -0.627049
     30          1           0       -1.099189    1.963235    0.618729
     31          1           0       -4.420453    1.199887   -0.496454
     32          1           0       -3.584957    1.572284    1.022673
     33          1           0       -2.540605   -0.181738   -2.097583
     34          1           0       -2.046789   -1.699834   -1.310762
     35          1           0       -1.499784   -1.428936    1.276479
     36          1           0       -1.768593    0.175363    1.978909
     37          1           0       -3.569115   -2.141457    2.459332
     38          1           0       -4.154015   -0.465771    2.504096
     39          1           0       -5.095305   -0.903119    0.229675
     40          1           0       -3.929527   -2.224407   -0.012663
 ---------------------------------------------------------------------

 SCF Done:  E(UB3LYP) =  -919.144091669     A.U. after   33 cycles
 SCF Done:  E(UB3LYP) =  -919.144288022     a.u. after    6 cycles

 The electronic state is 2-A.
 Alpha  occ. eigenvalues --  -19.02167 -18.94264 -18.93539 -14.21135 -14.20355
 Alpha  occ. eigenvalues --  -10.12746 -10.12026 -10.12012 -10.10320 -10.08619
 Alpha  occ. eigenvalues --  -10.08535 -10.08153 -10.07664 -10.07361 -10.06179
 Alpha  occ. eigenvalues --  -10.05728 -10.05618 -10.02152 -10.01555 -10.00964
 Alpha  occ. eigenvalues --   -0.93536  -0.89865  -0.88843  -0.80923  -0.80384
 Alpha  occ. eigenvalues --   -0.75480  -0.66294  -0.65855  -0.64291  -0.61128
 Alpha  occ. eigenvalues --   -0.59306  -0.56677  -0.56314  -0.52771  -0.49535
 Alpha  occ. eigenvalues --   -0.49000  -0.48069  -0.43867  -0.43505  -0.40809
 Alpha  occ. eigenvalues --   -0.39969  -0.38170  -0.36853  -0.36201  -0.35608
 Alpha  occ. eigenvalues --   -0.35402  -0.33930  -0.32669  -0.32058  -0.31900
 Alpha  occ. eigenvalues --   -0.31787  -0.29311  -0.29155  -0.28723  -0.28419
 Alpha  occ. eigenvalues --   -0.27929  -0.27482  -0.26683  -0.25196  -0.24693
 Alpha  occ. eigenvalues --   -0.24500  -0.23730  -0.22780  -0.22503  -0.21854
 Alpha  occ. eigenvalues --   -0.20534  -0.19217  -0.19058  -0.15936  -0.15712
 Alpha  occ. eigenvalues --   -0.12498  -0.11666  -0.11002  -0.07429   0.04804
 Alpha virt. eigenvalues --    0.06992   0.07482   0.08466   0.08959   0.09500
 Alpha virt. eigenvalues --    0.09746   0.10744   0.10982   0.11153   0.11382
 Alpha virt. eigenvalues --    0.11657   0.12472   0.13361   0.13468   0.13859

  Beta  occ. eigenvalues --  -19.02164 -18.94181 -18.93523 -14.21118 -14.20112
  Beta  occ. eigenvalues --  -10.12703 -10.12017 -10.12012 -10.10320 -10.08618
  Beta  occ. eigenvalues --  -10.08529 -10.08150 -10.07663 -10.07361 -10.05766
  Beta  occ. eigenvalues --  -10.05639 -10.05618 -10.02317 -10.01118 -10.00768
  Beta  occ. eigenvalues --   -0.93530  -0.89720  -0.88718  -0.80842  -0.79892
  Beta  occ. eigenvalues --   -0.75474  -0.66060  -0.65484  -0.63805  -0.61048
  Beta  occ. eigenvalues --   -0.59283  -0.56496  -0.56304  -0.52698  -0.49526
  Beta  occ. eigenvalues --   -0.48264  -0.47847  -0.43788  -0.43494  -0.40709
  Beta  occ. eigenvalues --   -0.39882  -0.38127  -0.36812  -0.35986  -0.35594
  Beta  occ. eigenvalues --   -0.35327  -0.33774  -0.32463  -0.31834  -0.31649
  Beta  occ. eigenvalues --   -0.31146  -0.29241  -0.29127  -0.28660  -0.28261
  Beta  occ. eigenvalues --   -0.27814  -0.27221  -0.26405  -0.25131  -0.24657
  Beta  occ. eigenvalues --   -0.24301  -0.23677  -0.22586  -0.22311  -0.21769
  Beta  occ. eigenvalues --   -0.20513  -0.19161  -0.18140  -0.15910  -0.14099
  Beta  occ. eigenvalues --   -0.12195  -0.11372  -0.10828  -0.06206
  Beta virt. eigenvalues --    0.06980   0.07642   0.08434   0.08927   0.09435
  Beta virt. eigenvalues --    0.09785   0.10445   0.10752   0.11005   0.11182
  Beta virt. eigenvalues --    0.11583   0.12341   0.12435   0.13322   0.13424

 Mulliken charges and spin densities:
               1          2
     1  C   -0.380676  -0.457137
     2  C   -0.427060   0.516299
     3  C    0.099716  -0.132566
     4  C    0.304159   0.370136
     5  C    0.046629   0.017244
     6  C   -0.429309   0.077462
     7  O   -0.388002   0.011658
     8  N   -0.228931   0.148642
     9  C   -0.146331  -0.025887
    10  O   -0.302963   0.022325
    11  N    0.277359   0.014743
    12  C   -0.018869  -0.019421
    13  C   -0.475684   0.007092
    14  O   -0.112339  -0.001670
    15  C   -0.545107   0.000383
    16  C    0.710251  -0.004170
    17  C   -0.722395  -0.002947
    18  C   -0.253136   0.003139
    19  C   -0.452867  -0.000565
    20  C   -0.410737  -0.000160
    21  H   -0.197484   0.356864
    22  H    0.156432  -0.016731
    23  H    0.074921   0.063754
    24  H    0.098015   0.024198
    25  H    0.147856  -0.009940
    26  H    0.257433   0.012981
    27  H    0.196288   0.016559
    28  H    0.163352   0.001097
    29  H    0.166725   0.001752
    30  H    0.213386   0.001191
    31  H    0.168513   0.000136
    32  H    0.170206   0.000041
    33  H    0.150612   0.000070
    34  H    0.211367   0.003904
    35  H    0.200992  -0.002092
    36  H    0.176435   0.000333
    37  H    0.142481   0.000018
    38  H    0.115856   0.000233
    39  H    0.118463   0.001443
    40  H    0.124440  -0.000415
 Sum of Mulliken charges =  -1.00000   1.00000

 Dipole moment (field-independent basis, Debye):
    X=             -6.5629    Y=              1.1896    Z=              0.2579  Tot=              6.6748
 Quadrupole moment (field-independent basis, Debye-Ang):
   XX=           -169.6078   YY=           -148.2412   ZZ=           -133.3281
   XY=             -0.8214   XZ=             -0.2122   YZ=             -2.3477

 Summary of Natural Population Analysis:

                                       Natural Population
                Natural  -----------------------------------------------
    Atom  No    Charge         Core      Valence    Rydberg      Total
 -----------------------------------------------------------------------
      C    1   -0.30355      0.99964     2.29911    0.00479     3.30355
      C    2    0.20623      0.99954     1.78395    0.01027     2.79377
      C    3   -0.19345      0.99951     2.18389    0.01005     3.19345
      C    4    0.03020      0.99954     1.96134    0.00892     2.96980
      C    5   -0.10678      0.99940     2.09519    0.01219     3.10678
      C    6    0.31619      0.99959     1.65984    0.02438     2.68381
      O    7   -0.36477      0.99988     3.35871    0.00618     4.36477
      N    8   -0.25692      0.99963     2.74856    0.00873     3.75692
      C    9    0.35681      0.99959     1.62033    0.02327     2.64319
      O   10   -0.33338      0.99988     3.32837    0.00514     4.33338
      N   11   -0.25676      0.99963     2.74505    0.01209     3.75676
      C   12   -0.08946      0.99960     2.08137    0.00848     3.08946
      C   13   -0.02211      0.99957     2.01204    0.01050     3.02211
      O   14   -0.30997      0.99989     3.29952    0.01056     4.30997
      C   15    0.00010      0.99951     1.98827    0.01211     2.99990
      C   16   -0.06050      0.99957     2.04820    0.01273     3.06050
      C   17   -0.08798      0.99956     2.07787    0.01055     3.08798
      C   18   -0.18909      0.99961     2.18147    0.00801     3.18909
      C   19   -0.19276      0.99966     2.18668    0.00642     3.19276
      C   20   -0.18317      0.99962     2.17677    0.00679     3.18317
      H   21    0.10597      0.00000     0.39107    0.00296     0.39403
      H   22    0.10086      0.00000     0.39811    0.00104     0.39914
      H   23    0.10145      0.00000     0.39792    0.00063     0.39855
      H   24    0.09552      0.00000     0.40363    0.00085     0.40448
      H   25    0.09208      0.00000     0.40652    0.00141     0.40792
      H   26    0.18809      0.00000     0.30943    0.00247     0.31191
      H   27    0.11738      0.00000     0.38116    0.00146     0.38262
      H   28    0.08585      0.00000     0.41301    0.00113     0.41415
      H   29    0.08479      0.00000     0.41418    0.00103     0.41521
      H   30    0.10231      0.00000     0.39656    0.00114     0.39769
      H   31    0.08524      0.00000     0.41375    0.00102     0.41476
      H   32    0.07812      0.00000     0.42079    0.00110     0.42188
      H   33    0.09402      0.00000     0.40493    0.00105     0.40598
      H   34    0.11607      0.00000     0.38257    0.00137     0.38393
      H   35    0.11464      0.00000     0.38432    0.00104     0.38536
      H   36    0.10536      0.00000     0.39370    0.00094     0.39464
      H   37    0.09322      0.00000     0.40573    0.00105     0.40678
      H   38    0.09034      0.00000     0.40844    0.00122     0.40966
      H   39    0.09036      0.00000     0.40858    0.00105     0.40964
      H   40    0.09946      0.00000     0.39957    0.00097     0.40054
 =======================================================================
   * Total *    0.00000     19.99242    53.77047    0.23711    74.00000

 Normal termination of Gaussian 16 at Sun Dec 13 19:50:55 2020.
