 Gaussian 16, Revision A.03,

 -----------------------------------------------------------
 # opt freq B3LYP/6-31G(d) empiricaldispersion=gd3bj scf=xqc
 -----------------------------------------------------------

 ------------------------------
 CID_45094372_JID_6403_neutraal
 ------------------------------
 Symbolic Z-matrix:
 Charge =  0 Multiplicity = 1

 SCF Done:  E(RB3LYP) =  -719.470537129     A.U. after   15 cycles
 SCF Done:  E(RB3LYP) =  -719.478564702     A.U. after   13 cycles
 SCF Done:  E(RB3LYP) =  -719.483543775     A.U. after   14 cycles
 SCF Done:  E(RB3LYP) =  -719.485601542     A.U. after   14 cycles
 SCF Done:  E(RB3LYP) =  -719.486404362     A.U. after   12 cycles
 SCF Done:  E(RB3LYP) =  -719.486623342     A.U. after   11 cycles
 SCF Done:  E(RB3LYP) =  -719.486713584     A.U. after   11 cycles
 SCF Done:  E(RB3LYP) =  -719.486738109     A.U. after   10 cycles
 SCF Done:  E(RB3LYP) =  -719.486741265     A.U. after   10 cycles
 SCF Done:  E(RB3LYP) =  -719.486741494     A.U. after    7 cycles
 Optimization completed.
    -- Stationary point found.
 Normal termination of Gaussian 16 at Thu Dec 10 22:29:37 2020.

 --------------------------------------------------------------------
 #N Geom=AllCheck Guess=TCheck SCRF=Check GenChk RB3LYP/6-31G(d) Freq
 --------------------------------------------------------------------

 Structure from the checkpoint file:  "JID_6403.chk"
 ------------------------------
 CID_45094372_JID_6403_neutraal
 ------------------------------
 Charge =  0 Multiplicity = 1

 SCF Done:  E(RB3LYP) =  -719.486741494     A.U. after    1 cycles

  Exact polarizability: 242.801   7.757 143.917   7.361  -2.203  62.025
 Approx polarizability: 368.258   4.127 268.846  17.800  -7.015  95.151

                      1                      2                      3
                      A                      A                      A
 Frequencies --     47.1607                77.7015               114.3659
 Red. masses --      4.0034                 3.0297                 5.5217
 Frc consts  --      0.0052                 0.0108                 0.0426
 IR Inten    --      2.7114                 0.6038                 0.0699

                      4                      5                      6
                      A                      A                      A
 Frequencies --    129.6047               152.8095               223.7548
 Red. masses --      4.5002                 2.6560                 4.2028
 Frc consts  --      0.0445                 0.0365                 0.1240
 IR Inten    --      0.4537                 3.2079                 0.5139

                      7                      8                      9
                      A                      A                      A
 Frequencies --    229.0947               284.8270               290.5908
 Red. masses --      1.5070                 5.1691                 4.9337
 Frc consts  --      0.0466                 0.2471                 0.2455
 IR Inten    --      0.5140                 0.1730                 0.0973

                     10                     11                     12
                      A                      A                      A
 Frequencies --    317.5382               345.5782               435.4040
 Red. masses --      3.2843                 4.6044                 3.2582
 Frc consts  --      0.1951                 0.3240                 0.3639
 IR Inten    --      2.2965                 2.7196                 5.2554

                     13                     14                     15
                      A                      A                      A
 Frequencies --    447.6861               476.3319               562.2322
 Red. masses --      4.0724                 5.2213                 3.6014
 Frc consts  --      0.4809                 0.6980                 0.6707
 IR Inten    --     10.0047                 2.6465                 4.4408

                     16                     17                     18
                      A                      A                      A
 Frequencies --    578.0099               599.4390               606.1861
 Red. masses --      7.9504                 7.1162                 4.6058
 Frc consts  --      1.5650                 1.5066                 0.9972
 IR Inten    --      2.6006                 7.2720                 5.2308

                     19                     20                     21
                      A                      A                      A
 Frequencies --    641.6674               672.9890               692.7327
 Red. masses --      6.4446                10.1671                 5.5696
 Frc consts  --      1.5634                 2.7131                 1.5747
 IR Inten    --      5.1227                 1.6669                 2.2959

                     22                     23                     24
                      A                      A                      A
 Frequencies --    750.6867               751.3068               766.1813
 Red. masses --      4.3774                 3.9916                 1.5277
 Frc consts  --      1.4534                 1.3275                 0.5284
 IR Inten    --      9.8908                 5.7671                56.7576

                     25                     26                     27
                      A                      A                      A
 Frequencies --    796.2135               820.8171               855.2571
 Red. masses --     10.5751                 1.2958                 4.0509
 Frc consts  --      3.9500                 0.5144                 1.7458
 IR Inten    --      5.9907                 1.3006                 5.3557

                     28                     29                     30
                      A                      A                      A
 Frequencies --    855.9196               891.0448               903.1599
 Red. masses --      1.4441                 4.0035                 8.9526
 Frc consts  --      0.6233                 1.8728                 4.3026
 IR Inten    --      2.1420                 2.2020                 8.5735

                     31                     32                     33
                      A                      A                      A
 Frequencies --    944.3512               949.3190               981.5189
 Red. masses --      1.2876                 1.4247                 4.2533
 Frc consts  --      0.6766                 0.7565                 2.4142
 IR Inten    --      0.4211                 2.9891                21.1408

                     34                     35                     36
                      A                      A                      A
 Frequencies --    988.6942              1023.7172              1056.0040
 Red. masses --      1.2587                 2.2700                 4.7097
 Frc consts  --      0.7249                 1.4016                 3.0944
 IR Inten    --      0.0956                 2.7955               102.0864

                     37                     38                     39
                      A                      A                      A
 Frequencies --   1124.1911              1134.3478              1168.0099
 Red. masses --      2.2684                 2.1291                 1.3138
 Frc consts  --      1.6891                 1.6141                 1.0560
 IR Inten    --      2.6185                69.4695                 5.2456

                     40                     41                     42
                      A                      A                      A
 Frequencies --   1193.0718              1210.1957              1239.7243
 Red. masses --      1.8711                 1.7474                 4.7187
 Frc consts  --      1.5692                 1.5079                 4.2729
 IR Inten    --     14.6548                47.2261                28.4487

                     43                     44                     45
                      A                      A                      A
 Frequencies --   1285.4176              1323.0298              1331.7978
 Red. masses --      2.2673                 3.7269                 1.4658
 Frc consts  --      2.2073                 3.8436                 1.5318
 IR Inten    --     31.5874                95.4621                45.0908

                     46                     47                     48
                      A                      A                      A
 Frequencies --   1349.6380              1369.0084              1381.0100
 Red. masses --      4.1729                 2.4478                 2.2505
 Frc consts  --      4.4784                 2.7029                 2.5288
 IR Inten    --     27.4340               342.2392                54.9283

                     49                     50                     51
                      A                      A                      A
 Frequencies --   1399.0171              1417.0758              1432.2004
 Red. masses --      2.1267                 1.6048                 2.2452
 Frc consts  --      2.4525                 1.8988                 2.7133
 IR Inten    --     23.5755                17.1084                26.3552

                     52                     53                     54
                      A                      A                      A
 Frequencies --   1443.0443              1501.8042              1503.9610
 Red. masses --      1.5215                 1.5884                 2.9416
 Frc consts  --      1.8668                 2.1107                 3.9202
 IR Inten    --     21.1227                77.3688                19.5545

                     55                     56                     57
                      A                      A                      A
 Frequencies --   1515.8324              1531.4800              1541.7532
 Red. masses --      1.0491                 1.3172                 1.4391
 Frc consts  --      1.4203                 1.8202                 2.0155
 IR Inten    --      3.9228                58.2605                28.6105

                     58                     59                     60
                      A                      A                      A
 Frequencies --   1551.0739              1580.5865              1615.2298
 Red. masses --      4.0228                 5.6416                 9.0163
 Frc consts  --      5.7022                 8.3040                13.8594
 IR Inten    --     14.0111                 0.6598               218.4808

                     61                     62                     63
                      A                      A                      A
 Frequencies --   1634.7025              1700.4303              3061.7462
 Red. masses --      8.2738                 6.3071                 1.0367
 Frc consts  --     13.0267                10.7448                 5.7259
 IR Inten    --    253.2168                60.1252                21.8569

                     64                     65                     66
                      A                      A                      A
 Frequencies --   3095.4141              3128.3767              3141.9800
 Red. masses --      1.0589                 1.1010                 1.1046
 Frc consts  --      5.9780                 6.3486                 6.4248
 IR Inten    --     34.8400                31.3371                 6.2107

                     67                     68                     69
                      A                      A                      A
 Frequencies --   3161.1757              3201.4550              3209.4020
 Red. masses --      1.1071                 1.0909                 1.0885
 Frc consts  --      6.5182                 6.5874                 6.6061
 IR Inten    --     31.1045                25.1260                 6.2758

                     70                     71                     72
                      A                      A                      A
 Frequencies --   3232.2211              3240.8428              3255.6808
 Red. masses --      1.0900                 1.0947                 1.0972
 Frc consts  --      6.7091                 6.7745                 6.8519
 IR Inten    --      4.6095                 3.8415                 3.3547

 - Thermochemistry -
 -------------------
 Temperature   298.150 Kelvin.  Pressure   1.00000 Atm.
 Atom     1 has atomic number  6 and mass  12.00000

 Molecular mass:   214.08546 amu.
 Principal axes and moments of inertia in atomic units:
                           1         2         3
     Eigenvalues --  1248.639835561.762446628.23848
           X            0.99998  -0.00451  -0.00455
           Y            0.00453   0.99999   0.00246
           Z            0.00454  -0.00248   0.99999
 This molecule is an asymmetric top.
 Rotational symmetry number  1.
 Warning -- assumption of classical behavior for rotation
           may cause significant error
 Rotational temperatures (Kelvin)      0.06937     0.01557     0.01307
 Rotational constants (GHZ):           1.44537     0.32449     0.27228
 Zero-point vibrational energy     535124.5 (Joules/Mol)
                                  127.89782 (Kcal/Mol)
 Warning -- explicit consideration of  18 degrees of freedom as
           vibrations may cause significant error
 Vibrational temperatures:     67.85   111.80   164.55   186.47   219.86
          (Kelvin)            321.93   329.62   409.80   418.10   456.87
                              497.21   626.45   644.12   685.34   808.93
                              831.63   862.46   872.17   923.22   968.28
                              996.69  1080.07  1080.96  1102.36  1145.57
                             1180.97  1230.52  1231.48  1282.01  1299.45
                             1358.71  1365.86  1412.19  1422.51  1472.90
                             1519.35  1617.46  1632.07  1680.51  1716.56
                             1741.20  1783.69  1849.43  1903.54  1916.16
                             1941.83  1969.70  1986.97  2012.87  2038.86
                             2060.62  2076.22  2160.76  2163.86  2180.94
                             2203.46  2218.24  2231.65  2274.11  2323.96
                             2351.97  2446.54  4405.17  4453.61  4501.04
                             4520.61  4548.23  4606.18  4617.61  4650.45
                             4662.85  4684.20

 Zero-point correction=                           0.203818 (Hartree/Particle)
 Thermal correction to Energy=                    0.215937
 Thermal correction to Enthalpy=                  0.216881
 Thermal correction to Gibbs Free Energy=         0.164919
 Sum of electronic and zero-point Energies=           -719.282923
 Sum of electronic and thermal Energies=              -719.270804
 Sum of electronic and thermal Enthalpies=            -719.269860
 Sum of electronic and thermal Free Energies=         -719.321823

                     E (Thermal)             CV                S
                      KCal/Mol        Cal/Mol-Kelvin    Cal/Mol-Kelvin
 Total                  135.503             47.888            109.365
 Electronic               0.000              0.000              0.000
 Translational            0.889              2.981             41.987
 Rotational               0.889              2.981             32.198
 Vibrational            133.725             41.926             35.179
 Vibration     1          0.595              1.979              4.933
 Vibration     2          0.599              1.964              3.948
 Vibration     3          0.607              1.938              3.193
 Vibration     4          0.612              1.924              2.952
 Vibration     5          0.619              1.900              2.637
 Vibration     6          0.649              1.805              1.928
 Vibration     7          0.652              1.797              1.886
 Vibration     8          0.683              1.702              1.505
 Vibration     9          0.687              1.691              1.471
 Vibration    10          0.704              1.640              1.323
 Vibration    11          0.724              1.584              1.186
 Vibration    12          0.796              1.393              0.841
 Vibration    13          0.807              1.366              0.803
 Vibration    14          0.833              1.303              0.720
 Vibration    15          0.918              1.113              0.519
 Vibration    16          0.935              1.079              0.489
 Vibration    17          0.958              1.033              0.451
 Vibration    18          0.965              1.019              0.439

 Optimization completed.
    -- Stationary point found.
 Normal termination of Gaussian 16 at Thu Dec 10 22:36:55 2020.

 ----------------------------------------------------------------------
 # B3LYP/6-311++G(d,p) empiricaldispersion=gd3bj scf=xqc pop=npa geom=c
 heck
 ----------------------------------------------------------------------

 --------------------------------------
 CID_45094372_JID_6403_Energie_neutraal
 --------------------------------------
 Structure from the checkpoint file:  "JID_6403.chk"
 Charge =  0 Multiplicity = 1

 SCF Done:  E(RB3LYP) =  -719.670896771     A.U. after   14 cycles
 Normal termination of Gaussian 16 at Thu Dec 10 22:39:37 2020.

 ----------------------------------------------------------------------
 # B3LYP/6-311++G(d,p) empiricaldispersion=gd3bj scf=xqc pop=npa geom=c
 heck
 ----------------------------------------------------------------------

 ------------------------------------
 CID_45094372_JID_6403_Energie_kation
 ------------------------------------
 Structure from the checkpoint file:  "JID_6403.chk"
 Charge =  1 Multiplicity = 2

 SCF Done:  E(UB3LYP) =  -719.387933348     A.U. after   20 cycles
 Normal termination of Gaussian 16 at Thu Dec 10 22:45:19 2020.
 Gaussian 16:  ES64L-G16RevA.03 25-Dec-2016

 ----------------------------------------------------------------------
 # B3LYP/6-311++G(d,p) empiricaldispersion=gd3bj scf=xqc pop=npa geom=c
 heck
 ----------------------------------------------------------------------

 -----------------------------------
 CID_45094372_JID_6403_Energie_anion
 -----------------------------------
 Structure from the checkpoint file:  "JID_6403.chk"
 Charge = -1 Multiplicity = 2

                         Standard orientation:
 ---------------------------------------------------------------------
 Center     Atomic      Atomic             Coordinates (Angstroms)
 Number     Number       Type             X           Y           Z
 ---------------------------------------------------------------------
      1          6           0        4.533869   -0.629841   -0.965934
      2          6           0        3.939926   -0.847148    0.416280
      3          8           0        2.519123   -1.107453    0.345311
      4          6           0        1.694352   -0.064709    0.232717
      5          7           0        2.155659    1.182416    0.207050
      6          6           0        1.278611    2.203853    0.103233
      7          7           0       -0.046985    2.130758    0.015114
      8          6           0       -0.475858    0.864772    0.041977
      9          6           0        0.300901   -0.304423    0.147680
     10          7           0       -0.465858   -1.443127    0.146356
     11          6           0       -1.712585   -0.998697    0.040725
     12          7           0       -1.782533    0.416690   -0.027590
     13          6           0       -2.957617    1.115338   -0.139216
     14          6           0       -4.128381    0.420834   -0.188457
     15          6           0       -4.117296   -1.007884   -0.123880
     16          6           0       -2.942452   -1.704351   -0.012158
     17          1           0        4.307364   -1.477727   -1.620113
     18          1           0        5.622866   -0.531961   -0.890033
     19          1           0        4.135182    0.283396   -1.414805
     20          1           0        4.343763   -1.745445    0.888696
     21          1           0        4.112971    0.015502    1.063777
     22          1           0        1.714901    3.199079    0.088604
     23          1           0       -2.860002    2.193086   -0.180537
     24          1           0       -5.064006    0.960360   -0.276618
     25          1           0       -5.060131   -1.544058   -0.164425
     26          1           0       -2.908698   -2.786236    0.038653
 ---------------------------------------------------------------------

 SCF Done:  E(UB3LYP) =  -719.686592962     A.U. after   22 cycles

 The electronic state is 2-A.
 Alpha  occ. eigenvalues --  -19.03082 -14.23311 -14.17001 -14.16892 -14.14810
 Alpha  occ. eigenvalues --  -10.12143 -10.11860 -10.09471 -10.09370 -10.09314
 Alpha  occ. eigenvalues --  -10.06547 -10.06127 -10.05992 -10.03670 -10.02719
 Alpha  occ. eigenvalues --  -10.02044  -0.95755  -0.89199  -0.83116  -0.76819
 Alpha  occ. eigenvalues --   -0.74205  -0.67940  -0.66635  -0.62024  -0.60326
 Alpha  occ. eigenvalues --   -0.55560  -0.52129  -0.50628  -0.48680  -0.46217
 Alpha  occ. eigenvalues --   -0.42546  -0.40561  -0.38139  -0.35674  -0.35580
 Alpha  occ. eigenvalues --   -0.34481  -0.33414  -0.32830  -0.31834  -0.30234
 Alpha  occ. eigenvalues --   -0.29821  -0.29204  -0.27536  -0.26411  -0.24722
 Alpha  occ. eigenvalues --   -0.23143  -0.22612  -0.22531  -0.20196  -0.18273
 Alpha  occ. eigenvalues --   -0.17936  -0.14742  -0.14280  -0.11962  -0.11439
 Alpha  occ. eigenvalues --   -0.07101   0.04131
 Alpha virt. eigenvalues --    0.07340   0.09055   0.09746   0.09869   0.10697
 Alpha virt. eigenvalues --    0.10817   0.11524   0.12288   0.12719   0.13435
 Alpha virt. eigenvalues --    0.13748   0.13902   0.15075   0.15157   0.15726

  Beta  occ. eigenvalues --  -19.02996 -14.23161 -14.17010 -14.16708 -14.14709
  Beta  occ. eigenvalues --  -10.11863 -10.11840 -10.09473 -10.09310 -10.09308
  Beta  occ. eigenvalues --  -10.06539 -10.06189 -10.05579 -10.03770 -10.02406
  Beta  occ. eigenvalues --  -10.01836  -0.95532  -0.88927  -0.82889  -0.76554
  Beta  occ. eigenvalues --   -0.73948  -0.67509  -0.66519  -0.61780  -0.59818
  Beta  occ. eigenvalues --   -0.55326  -0.51812  -0.50503  -0.48498  -0.45833
  Beta  occ. eigenvalues --   -0.42355  -0.40399  -0.37993  -0.35555  -0.35304
  Beta  occ. eigenvalues --   -0.34078  -0.33333  -0.32317  -0.31592  -0.30083
  Beta  occ. eigenvalues --   -0.29651  -0.29064  -0.27097  -0.26140  -0.24563
  Beta  occ. eigenvalues --   -0.22497  -0.22461  -0.22364  -0.19296  -0.17753
  Beta  occ. eigenvalues --   -0.17180  -0.14644  -0.13168  -0.11827  -0.10721
  Beta  occ. eigenvalues --   -0.05763
  Beta virt. eigenvalues --    0.07255   0.09008   0.09580   0.09763   0.09799
  Beta virt. eigenvalues --    0.10640   0.10764   0.12012   0.12282   0.12664
  Beta virt. eigenvalues --    0.13704   0.13835   0.14832   0.15302   0.15818

 Mulliken charges and spin densities:
               1          2
     1  C   -0.291589  -0.047038
     2  C   -0.231678   0.014190
     3  O   -0.064703   0.017543
     4  C   -0.096048   0.166377
     5  N   -0.180061  -0.002854
     6  C    0.041871   0.043833
     7  N   -0.206673   0.100768
     8  C   -0.229565  -0.012419
     9  C    0.366209  -0.042865
    10  N   -0.194834   0.047981
    11  C   -0.092721   0.027029
    12  N    0.099783   0.014951
    13  C   -0.216019   0.320690
    14  C   -0.247892  -0.035383
    15  C   -0.657300   0.255511
    16  C   -0.140944   0.131528
    17  H    0.132777   0.003701
    18  H    0.070671   0.034600
    19  H    0.148358   0.013344
    20  H    0.133196   0.007657
    21  H    0.161218   0.000459
    22  H    0.171501  -0.002934
    23  H    0.157960  -0.027120
    24  H    0.119999   0.005687
    25  H    0.108553  -0.020043
    26  H    0.137932  -0.015192
 Sum of Mulliken charges =  -1.00000   1.00000

 Dipole moment (field-independent basis, Debye):
    X=              3.6576    Y=              0.4575    Z=             -0.1764  Tot=              3.6903
 Quadrupole moment (field-independent basis, Debye-Ang):
   XX=           -124.2515   YY=           -113.9890   ZZ=           -101.8833
   XY=             -4.2150   XZ=              0.2869   YZ=              0.2619

 Summary of Natural Population Analysis:

                                       Natural Population
                Natural  -----------------------------------------------
    Atom  No    Charge         Core      Valence    Rydberg      Total
 -----------------------------------------------------------------------
      C    1   -0.30021      0.99967     2.29569    0.00485     3.30021
      C    2   -0.01414      0.99959     2.00451    0.01004     3.01414
      O    3   -0.26109      0.99985     3.25120    0.01004     4.26109
      C    4    0.32008      0.99944     1.66234    0.01814     2.67992
      N    5   -0.30395      0.99967     2.79559    0.00869     3.80395
      C    6    0.13502      0.99970     1.84571    0.01957     2.86498
      N    7   -0.24134      0.99967     2.73207    0.00960     3.74134
      C    8    0.17150      0.99948     1.81322    0.01580     2.82850
      C    9    0.00661      0.99942     1.97956    0.01442     2.99339
      N   10   -0.25500      0.99968     2.74477    0.01055     3.75500
      C   11    0.20103      0.99960     1.78449    0.01489     2.79897
      N   12   -0.18087      0.99958     2.67225    0.00904     3.68087
      C   13    0.09657      0.99957     1.89328    0.01059     2.90343
      C   14   -0.16203      0.99958     2.15332    0.00913     3.16203
      C   15   -0.03977      0.99958     2.03024    0.00995     3.03977
      C   16   -0.09624      0.99952     2.08753    0.00919     3.09624
      H   17    0.09769      0.00000     0.40098    0.00134     0.40231
      H   18    0.09186      0.00000     0.40644    0.00170     0.40814
      H   19    0.10876      0.00000     0.38933    0.00191     0.39124
      H   20    0.08271      0.00000     0.41623    0.00106     0.41729
      H   21    0.09350      0.00000     0.40521    0.00129     0.40650
      H   22    0.07215      0.00000     0.42659    0.00126     0.42785
      H   23    0.09707      0.00000     0.40162    0.00131     0.40293
      H   24    0.09522      0.00000     0.40387    0.00091     0.40478
      H   25    0.08697      0.00000     0.41202    0.00100     0.41303
      H   26    0.09789      0.00000     0.40054    0.00157     0.40211
 =======================================================================
   * Total *    0.00000     15.99360    39.80858    0.19782    56.00000

 Normal termination of Gaussian 16 at Thu Dec 10 22:51:39 2020.
