 Gaussian 16, Revision A.03,

 -----------------------------------------------------------
 # opt freq B3LYP/6-31G(d) empiricaldispersion=gd3bj scf=xqc
 -----------------------------------------------------------

 ------------------------------
 CID_84764401_JID_2503_neutraal
 ------------------------------
 Symbolic Z-matrix:
 Charge =  0 Multiplicity = 1

 SCF Done:  E(RB3LYP) =  -513.791542891     A.U. after   15 cycles
 SCF Done:  E(RB3LYP) =  -513.800586776     A.U. after   13 cycles
 SCF Done:  E(RB3LYP) =  -513.801914947     A.U. after   13 cycles
 SCF Done:  E(RB3LYP) =  -513.803677482     A.U. after   12 cycles
 SCF Done:  E(RB3LYP) =  -513.804211719     A.U. after   13 cycles
 SCF Done:  E(RB3LYP) =  -513.805109270     A.U. after   13 cycles
 SCF Done:  E(RB3LYP) =  -513.806746672     A.U. after   13 cycles
 SCF Done:  E(RB3LYP) =  -513.808472653     A.U. after   15 cycles
 SCF Done:  E(RB3LYP) =  -513.808668615     A.U. after   13 cycles
 SCF Done:  E(RB3LYP) =  -513.809741736     A.U. after   13 cycles
 SCF Done:  E(RB3LYP) =  -513.813041436     A.U. after   11 cycles
 SCF Done:  E(RB3LYP) =  -513.813047486     A.U. after   10 cycles
 SCF Done:  E(RB3LYP) =  -513.813048524     A.U. after    8 cycles
 SCF Done:  E(RB3LYP) =  -513.813048864     A.U. after    8 cycles
 SCF Done:  E(RB3LYP) =  -513.813048811     A.U. after    7 cycles
 Optimization completed.
    -- Stationary point found.

 1\1\GINC-NODE120\FOpt\RB3LYP\6-31G(d)\C9H11N3\VSC10255\09-Dec-2020\0\\
 # opt freq B3LYP/6-31G(d) empiricaldispersion=gd3bj scf=xqc\\CID_84764
 401_JID_2503_neutraal\\0,1\C,0.2466024224,0.2319501974,-0.3443628679\C
 ,-0.3134601661,-0.0163775046,-1.7439663739\N,0.5143846069,-0.938697734
 6,-2.5129673964\C,1.5427379043,-0.6572718961,-3.3695889668\C,2.0580848
 026,-1.8786003571,-3.774219182\C,1.2797223287,-2.8385944605,-3.0962436
 9\N,0.3475470598,-2.2673809399,-2.3329570506\C,1.94909374,0.7292483073
 ,-3.7197672812\C,3.4036943958,0.9921119558,-4.0920592155\C,2.892295421

 Normal termination of Gaussian 16 at Wed Dec  9 17:34:58 2020.

 --------------------------------------------------------------------
 #N Geom=AllCheck Guess=TCheck SCRF=Check GenChk RB3LYP/6-31G(d) Freq
 --------------------------------------------------------------------

 Structure from the checkpoint file:  "JID_2503.chk"
 ------------------------------
 CID_84764401_JID_2503_neutraal
 ------------------------------
 Charge =  0 Multiplicity = 1

 SCF Done:  E(RB3LYP) =  -513.813048811     A.U. after    1 cycles

  Exact polarizability: 112.465   5.621 110.913  -0.709   5.790  81.785
 Approx polarizability: 165.442   9.674 169.689   0.885  18.282 129.659

                      1                      2                      3
                      A                      A                      A
 Frequencies --     30.7899                68.0850               104.4327
 Red. masses --      3.4981                 3.0800                 7.3653
 Frc consts  --      0.0020                 0.0084                 0.0473
 IR Inten    --      1.4866                 1.5911                 4.7584

                      4                      5                      6
                      A                      A                      A
 Frequencies --    128.9759               148.8032               197.4131
 Red. masses --      3.9233                 3.3566                 3.3419
 Frc consts  --      0.0385                 0.0438                 0.0767
 IR Inten    --      1.5489                 1.9698                 1.4574

                      7                      8                      9
                      A                      A                      A
 Frequencies --    221.5771               234.2932               318.2412
 Red. masses --      1.6292                 1.6999                 3.4072
 Frc consts  --      0.0471                 0.0550                 0.2033
 IR Inten    --      1.8437                 0.1304                 0.5578

                     10                     11                     12
                      A                      A                      A
 Frequencies --    338.0943               425.0541               455.3962
 Red. masses --      3.0051                 3.7134                 5.3224
 Frc consts  --      0.2024                 0.3953                 0.6503
 IR Inten    --      0.5639                 6.1927                 2.0474

                     13                     14                     15
                      A                      A                      A
 Frequencies --    477.9520               571.0419               592.2102
 Red. masses --      4.0400                 6.1907                 5.0840
 Frc consts  --      0.5437                 1.1894                 1.0505
 IR Inten    --      6.2375                 6.0316                 2.0664

                     16                     17                     18
                      A                      A                      A
 Frequencies --    670.8394               694.0687               707.1516
 Red. masses --      5.2529                 3.5897                 5.1715
 Frc consts  --      1.3928                 1.0189                 1.5237
 IR Inten    --      1.8347                 6.2704                 5.5073

                     19                     20                     21
                      A                      A                      A
 Frequencies --    791.5383               797.5235               801.0034
 Red. masses --      1.2015                 1.1501                 1.1567
 Frc consts  --      0.4435                 0.4310                 0.4372
 IR Inten    --     17.5403                 8.9071                 0.4625

                     22                     23                     24
                      A                      A                      A
 Frequencies --    864.7545               876.5787               889.5436
 Red. masses --      2.0316                 1.3344                 7.3527
 Frc consts  --      0.8951                 0.6041                 3.4279
 IR Inten    --      1.0123                 1.9666                 3.4448

                     25                     26                     27
                      A                      A                      A
 Frequencies --    952.1319               969.6917               981.9837
 Red. masses --      4.7419                 2.5596                 1.3766
 Frc consts  --      2.5328                 1.4181                 0.7821
 IR Inten    --     16.3541                10.9466                 2.3943

                     28                     29                     30
                      A                      A                      A
 Frequencies --    989.9919              1059.6914              1076.9513
 Red. masses --      2.3128                 1.8393                 1.3427
 Frc consts  --      1.3355                 1.2169                 0.9175
 IR Inten    --      7.2853                14.8724                10.9704

                     31                     32                     33
                      A                      A                      A
 Frequencies --   1085.8481              1106.9423              1113.2681
 Red. masses --      1.5668                 1.3319                 1.9495
 Frc consts  --      1.0884                 0.9615                 1.4235
 IR Inten    --      2.8863                 3.3288                 5.1973

                     34                     35                     36
                      A                      A                      A
 Frequencies --   1154.0026              1209.9485              1221.4086
 Red. masses --      2.2997                 1.3304                 1.5029
 Frc consts  --      1.8044                 1.1476                 1.3210
 IR Inten    --      2.9768                 0.3310                 0.9194

                     37                     38                     39
                      A                      A                      A
 Frequencies --   1278.7207              1289.5550              1298.4505
 Red. masses --      2.2313                 3.0940                 4.0231
 Frc consts  --      2.1496                 3.0315                 3.9964
 IR Inten    --      4.7133                 9.7145                 1.5132

                     40                     41                     42
                      A                      A                      A
 Frequencies --   1363.3671              1387.9859              1411.1263
 Red. masses --      1.9967                 3.6382                 1.3276
 Frc consts  --      2.1868                 4.1296                 1.5575
 IR Inten    --     33.2000                11.0049                 6.6347

                     43                     44                     45
                      A                      A                      A
 Frequencies --   1436.7095              1453.6916              1487.2758
 Red. masses --      1.2754                 3.5616                 1.0965
 Frc consts  --      1.5511                 4.4345                 1.4290
 IR Inten    --      9.6185                38.2953                 6.0975

                     46                     47                     48
                      A                      A                      A
 Frequencies --   1504.2368              1518.1182              1520.8829
 Red. masses --      2.8362                 1.1225                 1.1281
 Frc consts  --      3.7812                 1.5242                 1.5375
 IR Inten    --     10.1822                 8.5837                 1.9267

                     49                     50                     51
                      A                      A                      A
 Frequencies --   1521.9845              1535.8576              1596.4081
 Red. masses --      1.3303                 1.0691                 6.0844
 Frc consts  --      1.8157                 1.4859                 9.1359
 IR Inten    --      3.0211                 2.9956                 5.0403

                     52                     53                     54
                      A                      A                      A
 Frequencies --   2355.2752              3062.3624              3103.0492
 Red. masses --     12.6626                 1.0349                 1.0614
 Frc consts  --     41.3863                 5.7184                 6.0215
 IR Inten    --     24.0165                17.8329                 8.6691

                     55                     56                     57
                      A                      A                      A
 Frequencies --   3130.2533              3139.3948              3159.1410
 Red. masses --      1.1017                 1.1027                 1.1065
 Frc consts  --      6.3599                 6.4033                 6.5062
 IR Inten    --     22.5664                15.1836                17.1039

                     58                     59                     60
                      A                      A                      A
 Frequencies --   3166.3359              3174.0725              3252.0285
 Red. masses --      1.0530                 1.0561                 1.1212
 Frc consts  --      6.2202                 6.2686                 6.9864
 IR Inten    --      5.1536                 3.1677                 0.1873

                     61                     62                     63
                      A                      A                      A
 Frequencies --   3258.9936              3265.1957              3281.2598
 Red. masses --      1.0932                 1.1178                 1.1010
 Frc consts  --      6.8410                 7.0216                 6.9844
 IR Inten    --      9.5178                 3.2732                 2.7350

 - Thermochemistry -
 -------------------
 Temperature   298.150 Kelvin.  Pressure   1.00000 Atm.
 Atom     1 has atomic number  6 and mass  12.00000

 Molecular mass:   161.09530 amu.
 Principal axes and moments of inertia in atomic units:
                           1         2         3
     Eigenvalues --  1435.405922173.914942619.93372
           X            0.99805  -0.05870  -0.02118
           Y            0.05787   0.99760  -0.03789
           Z            0.02336   0.03659   0.99906
 This molecule is an asymmetric top.
 Rotational symmetry number  1.
 Warning -- assumption of classical behavior for rotation
           may cause significant error
 Rotational temperatures (Kelvin)      0.06034     0.03984     0.03306
 Rotational constants (GHZ):           1.25730     0.83018     0.68885
 Zero-point vibrational energy     498118.8 (Joules/Mol)
                                  119.05324 (Kcal/Mol)
 Warning -- explicit consideration of  15 degrees of freedom as
           vibrations may cause significant error
 Vibrational temperatures:     44.30    97.96   150.26   185.57   214.09
          (Kelvin)            284.03   318.80   337.10   457.88   486.44
                              611.56   655.21   687.67   821.60   852.06
                              965.19   998.61  1017.43  1138.85  1147.46
                             1152.47  1244.19  1261.20  1279.85  1369.91
                             1395.17  1412.86  1424.38  1524.66  1549.49
                             1562.29  1592.64  1601.74  1660.35  1740.85
                             1757.33  1839.79  1855.38  1868.18  1961.58
                             1997.00  2030.30  2067.10  2091.54  2139.86
                             2164.26  2184.23  2188.21  2189.80  2209.76
                             2296.88  3388.72  4406.06  4464.60  4503.74
                             4516.89  4545.30  4555.65  4566.78  4678.94
                             4688.96  4697.89  4721.00

 Zero-point correction=                           0.189723 (Hartree/Particle)
 Thermal correction to Energy=                    0.200995
 Thermal correction to Enthalpy=                  0.201939
 Thermal correction to Gibbs Free Energy=         0.151760
 Sum of electronic and zero-point Energies=           -513.623325
 Sum of electronic and thermal Energies=              -513.612054
 Sum of electronic and thermal Enthalpies=            -513.611109
 Sum of electronic and thermal Free Energies=         -513.661289

                     E (Thermal)             CV                S
                      KCal/Mol        Cal/Mol-Kelvin    Cal/Mol-Kelvin
 Total                  126.126             41.848            105.612
 Electronic               0.000              0.000              0.000
 Translational            0.889              2.981             41.139
 Rotational               0.889              2.981             30.481
 Vibrational            124.349             35.886             33.992
 Vibration     1          0.594              1.984              5.778
 Vibration     2          0.598              1.969              4.208
 Vibration     3          0.605              1.946              3.370
 Vibration     4          0.611              1.924              2.961
 Vibration     5          0.618              1.904              2.687
 Vibration     6          0.637              1.843              2.157
 Vibration     7          0.648              1.808              1.946
 Vibration     8          0.654              1.788              1.846
 Vibration     9          0.705              1.639              1.319
 Vibration    10          0.718              1.599              1.221
 Vibration    11          0.787              1.416              0.875
 Vibration    12          0.814              1.349              0.780
 Vibration    13          0.834              1.299              0.716
 Vibration    14          0.927              1.094              0.502
 Vibration    15          0.950              1.048              0.463

 Optimization completed.
    -- Stationary point found.

 1\1\GINC-NODE120\Freq\RB3LYP\6-31G(d)\C9H11N3\VSC10255\09-Dec-2020\0\\
 #N Geom=AllCheck Guess=TCheck SCRF=Check GenChk RB3LYP/6-31G(d) Freq\\
 CID_84764401_JID_2503_neutraal\\0,1\C,0.2466024224,0.2319501974,-0.344
 3628679\C,-0.3134601661,-0.0163775046,-1.7439663739\N,0.5143846069,-0.
 9386977346,-2.5129673964\C,1.5427379043,-0.6572718961,-3.3695889668\C,
 2.0580848026,-1.8786003571,-3.774219182\C,1.2797223287,-2.8385944605,-
 3.09624369\N,0.3475470598,-2.2673809399,-2.3329570506\C,1.94909374,0.7
 292483073,-3.7197672812\C,3.4036943958,0.9921119558,-4.0920592155\C,2.

 Normal termination of Gaussian 16 at Wed Dec  9 17:40:38 2020.

 ----------------------------------------------------------------------
 # B3LYP/6-311++G(d,p) empiricaldispersion=gd3bj scf=xqc pop=npa geom=c
 heck
 ----------------------------------------------------------------------

 --------------------------------------
 CID_84764401_JID_2503_Energie_neutraal
 --------------------------------------
 Structure from the checkpoint file:  "JID_2503.chk"
 Charge =  0 Multiplicity = 1

 SCF Done:  E(RB3LYP) =  -513.949340806     A.U. after   14 cycles
 Normal termination of Gaussian 16 at Wed Dec  9 17:43:40 2020.

 ----------------------------------------------------------------------
 # B3LYP/6-311++G(d,p) empiricaldispersion=gd3bj scf=xqc pop=npa geom=c
 heck
 ----------------------------------------------------------------------

 ------------------------------------
 CID_84764401_JID_2503_Energie_kation
 ------------------------------------
 Structure from the checkpoint file:  "JID_2503.chk"
 Charge =  1 Multiplicity = 2

 SCF Done:  E(UB3LYP) =  -513.618671033     A.U. after   33 cycles
 SCF Done:  E(UB3LYP) =  -513.618671358     a.u. after    2 cycles
 Normal termination of Gaussian 16 at Wed Dec  9 17:57:26 2020.
 Gaussian 16:  ES64L-G16RevA.03 25-Dec-2016

 -----------------------------------
 CID_84764401_JID_2503_Energie_anion
 -----------------------------------
 Structure from the checkpoint file:  "JID_2503.chk"
 Charge = -1 Multiplicity = 2

                         Standard orientation:
 ---------------------------------------------------------------------
 Center     Atomic      Atomic             Coordinates (Angstroms)
 Number     Number       Type             X           Y           Z
 ---------------------------------------------------------------------
      1          6           0        1.450005   -2.240814    1.020046
      2          6           0        1.136226   -1.623921   -0.342016
      3          7           0        1.165825   -0.166105   -0.306526
      4          6           0        0.137749    0.707048   -0.080305
      5          6           0        0.699408    1.974001   -0.062426
      6          6           0        2.076174    1.758955   -0.275403
      7          7           0        2.355823    0.463455   -0.421404
      8          6           0       -1.270769    0.269373    0.105993
      9          6           0       -2.192950    1.123193    0.968626
     10          6           0       -1.737854   -0.199443    1.491306
     11          6           0       -1.878311   -0.395648   -1.027246
     12          7           0       -2.350382   -0.953837   -1.930874
     13          1           0        2.425973   -1.895236    1.373026
     14          1           0        1.471266   -3.333095    0.943375
     15          1           0        0.694074   -1.964756    1.762224
     16          1           0        1.879468   -1.925260   -1.083394
     17          1           0        0.155016   -1.936463   -0.706573
     18          1           0        0.178436    2.911731    0.063149
     19          1           0        2.872116    2.488836   -0.339466
     20          1           0       -1.752988    2.021347    1.387881
     21          1           0       -3.220158    1.224813    0.635692
     22          1           0       -2.446126   -1.020884    1.522653
     23          1           0       -0.974000   -0.212081    2.261617
 ---------------------------------------------------------------------

 SCF Done:  E(UB3LYP) =  -513.935799139     A.U. after   31 cycles

 The electronic state is 2-A.
 Alpha  occ. eigenvalues --  -14.29815 -14.23796 -14.22177 -10.14821 -10.12926
 Alpha  occ. eigenvalues --  -10.12495 -10.12340 -10.10233 -10.10203 -10.09869
 Alpha  occ. eigenvalues --  -10.07542 -10.07387  -0.96132  -0.82847  -0.79621
 Alpha  occ. eigenvalues --   -0.75720  -0.70194  -0.65137  -0.59395  -0.55788
 Alpha  occ. eigenvalues --   -0.53375  -0.50815  -0.49009  -0.45339  -0.41916
 Alpha  occ. eigenvalues --   -0.38255  -0.37375  -0.37024  -0.34497  -0.33423
 Alpha  occ. eigenvalues --   -0.31862  -0.29982  -0.29664  -0.29150  -0.28091
 Alpha  occ. eigenvalues --   -0.27750  -0.27330  -0.26289  -0.23051  -0.21456
 Alpha  occ. eigenvalues --   -0.19866  -0.16294  -0.15688   0.04485
 Alpha virt. eigenvalues --    0.06481   0.07113   0.08053   0.08406   0.09000
 Alpha virt. eigenvalues --    0.09718   0.10032   0.10614   0.11027   0.11729
 Alpha virt. eigenvalues --    0.11947   0.12448   0.13557   0.13914   0.14069

  Beta  occ. eigenvalues --  -14.29812 -14.23794 -14.22162 -10.14817 -10.12927
  Beta  occ. eigenvalues --  -10.12488 -10.12341 -10.10187 -10.10157 -10.09865
  Beta  occ. eigenvalues --  -10.07523 -10.07350  -0.96125  -0.82827  -0.79596
  Beta  occ. eigenvalues --   -0.75709  -0.70178  -0.65104  -0.59361  -0.55735
  Beta  occ. eigenvalues --   -0.53265  -0.50771  -0.48989  -0.45312  -0.41807
  Beta  occ. eigenvalues --   -0.38229  -0.37347  -0.36984  -0.34468  -0.33391
  Beta  occ. eigenvalues --   -0.31839  -0.29945  -0.29623  -0.29107  -0.28052
  Beta  occ. eigenvalues --   -0.27721  -0.27303  -0.26255  -0.22997  -0.21438
  Beta  occ. eigenvalues --   -0.19848  -0.16278  -0.15673
  Beta virt. eigenvalues --    0.06973   0.07495   0.07848   0.08550   0.09005
  Beta virt. eigenvalues --    0.09578   0.10365   0.10517   0.10777   0.11461
  Beta virt. eigenvalues --    0.12005   0.12405   0.12815   0.13975   0.14098

 Mulliken charges and spin densities:
               1          2
     1  C    1.106998  -1.542882
     2  C   -1.064353   0.797447
     3  N    0.356015   0.092490
     4  C   -0.031040  -0.654235
     5  C   -0.517058   0.811697
     6  C    0.482503  -0.803707
     7  N   -0.164252  -0.081559
     8  C   -1.797332   3.066409
     9  C    2.169884  -2.613813
    10  C    1.022637  -1.456731
    11  C    0.950165  -1.803394
    12  N   -0.292122   0.064120
    13  H    0.001214   0.155896
    14  H   -0.391185   0.528615
    15  H   -0.481758   0.631307
    16  H    0.016831   0.172152
    17  H    0.229774  -0.091881
    18  H   -0.798440   0.996960
    19  H   -0.140493   0.293110
    20  H   -0.400712   0.570220
    21  H   -0.562059   0.775054
    22  H   -0.538838   0.752894
    23  H   -0.156377   0.339830
 Sum of Mulliken charges =  -1.00000   1.00000

 Dipole moment (field-independent basis, Debye):
    X=              3.8425    Y=             -0.4345    Z=             -3.7570  Tot=              5.3916
 Quadrupole moment (field-independent basis, Debye-Ang):
   XX=           -126.5087   YY=           -122.3617   ZZ=           -116.6029
   XY=              2.7030   XZ=              1.8238   YZ=             -0.9138

 Summary of Natural Population Analysis:

                                       Natural Population
                Natural  -----------------------------------------------
    Atom  No    Charge         Core      Valence    Rydberg      Total
 -----------------------------------------------------------------------
      C    1   -0.28835      0.99966     2.28408    0.00462     3.28835
      C    2   -0.08460      0.99961     2.07462    0.01037     3.08460
      N    3   -0.10505      0.99961     2.59160    0.01384     3.60505
      C    4    0.08684      0.99949     1.89944    0.01422     2.91316
      C    5   -0.15075      0.99950     2.14247    0.00878     3.15075
      C    6   -0.01291      0.99963     1.99892    0.01436     3.01291
      N    7   -0.15260      0.99973     2.64140    0.01146     3.65260
      C    8   -0.12449      0.99945     2.11074    0.01430     3.12449
      C    9   -0.16683      0.99961     2.15655    0.01067     3.16683
      C   10   -0.16746      0.99961     2.15742    0.01044     3.16746
      C   11    0.16661      0.99961     1.81565    0.01813     2.83339
      N   12   -0.18109      0.99979     2.67053    0.01077     3.68109
      H   13    0.10394      0.00000     0.39485    0.00120     0.39606
      H   14    0.10199      0.00000     0.39670    0.00131     0.39801
      H   15    0.10215      0.00000     0.39618    0.00166     0.39785
      H   16    0.10357      0.00000     0.39506    0.00137     0.39643
      H   17    0.10445      0.00000     0.39413    0.00142     0.39555
      H   18    0.11367      0.00000     0.38487    0.00145     0.38633
      H   19    0.09747      0.00000     0.40169    0.00084     0.40253
      H   20    0.11551      0.00000     0.38095    0.00354     0.38449
      H   21    0.11232      0.00000     0.38552    0.00216     0.38768
      H   22    0.11222      0.00000     0.38509    0.00269     0.38778
      H   23    0.11337      0.00000     0.38389    0.00274     0.38663
 =======================================================================
   * Total *   -0.00000     11.99530    30.84235    0.16235    43.00000

 Normal termination of Gaussian 16 at Wed Dec  9 18:04:41 2020.
