 Gaussian 16, Revision A.03,

 -----------------------------------------------------------
 # opt freq B3LYP/6-31G(d) empiricaldispersion=gd3bj scf=xqc
 -----------------------------------------------------------

 -------------------------------
 CID_114499192_JID_8341_neutraal
 -------------------------------
 Symbolic Z-matrix:
 Charge =  0 Multiplicity = 1

 SCF Done:  E(RB3LYP) =  -784.241117857     A.U. after   14 cycles
 SCF Done:  E(RB3LYP) =  -784.246661834     A.U. after   12 cycles
 SCF Done:  E(RB3LYP) =  -784.246299254     A.U. after   14 cycles
 SCF Done:  E(RB3LYP) =  -784.249183577     A.U. after   12 cycles
 SCF Done:  E(RB3LYP) =  -784.251472952     A.U. after   13 cycles
 SCF Done:  E(RB3LYP) =  -784.252282592     A.U. after   12 cycles
 SCF Done:  E(RB3LYP) =  -784.252991461     A.U. after   11 cycles
 SCF Done:  E(RB3LYP) =  -784.253304648     A.U. after   12 cycles
 SCF Done:  E(RB3LYP) =  -784.253444131     A.U. after   10 cycles
 SCF Done:  E(RB3LYP) =  -784.253529395     A.U. after   11 cycles
 SCF Done:  E(RB3LYP) =  -784.253596700     A.U. after    9 cycles
 SCF Done:  E(RB3LYP) =  -784.253598414     A.U. after    9 cycles
 SCF Done:  E(RB3LYP) =  -784.253599797     A.U. after    8 cycles
 SCF Done:  E(RB3LYP) =  -784.253599876     A.U. after    7 cycles
 SCF Done:  E(RB3LYP) =  -784.253599871     A.U. after    7 cycles
 Optimization completed.
    -- Stationary point found.
 Normal termination of Gaussian 16 at Fri Dec 11 20:22:11 2020.

 --------------------------------------------------------------------
 #N Geom=AllCheck Guess=TCheck SCRF=Check GenChk RB3LYP/6-31G(d) Freq
 --------------------------------------------------------------------

 Structure from the checkpoint file:  "JID_8341.chk"
 -------------------------------
 CID_114499192_JID_8341_neutraal
 -------------------------------
 Charge =  0 Multiplicity = 1

 SCF Done:  E(RB3LYP) =  -784.253599871     A.U. after    1 cycles

  Exact polarizability: 188.725  -9.365 143.849  -2.830   0.815 154.046
 Approx polarizability: 248.860 -19.958 208.680   0.247   2.841 241.655

                      1                      2                      3
                      A                      A                      A
 Frequencies --     46.0198                50.4410                52.3175
 Red. masses --      3.8435                 4.1285                 3.7180
 Frc consts  --      0.0048                 0.0062                 0.0060
 IR Inten    --      0.3825                 1.2663                 0.5671

                      4                      5                      6
                      A                      A                      A
 Frequencies --     63.9565                95.8965               102.0449
 Red. masses --      3.1892                 2.1874                 3.4723
 Frc consts  --      0.0077                 0.0119                 0.0213
 IR Inten    --      0.1477                 0.5061                 1.3159

                      7                      8                      9
                      A                      A                      A
 Frequencies --    124.3007               138.4828               158.9949
 Red. masses --      3.1588                 2.5186                 2.0745
 Frc consts  --      0.0288                 0.0285                 0.0309
 IR Inten    --      1.7114                 0.0984                 0.5026

                     10                     11                     12
                      A                      A                      A
 Frequencies --    172.7533               207.1866               222.1191
 Red. masses --      3.3960                 1.5405                 2.4965
 Frc consts  --      0.0597                 0.0390                 0.0726
 IR Inten    --      1.1401                 1.2172                 0.7466

                     13                     14                     15
                      A                      A                      A
 Frequencies --    228.9108               245.1335               268.7465
 Red. masses --      1.8716                 1.5599                 1.9363
 Frc consts  --      0.0578                 0.0552                 0.0824
 IR Inten    --      2.2469                 0.5549                 2.1431

                     16                     17                     18
                      A                      A                      A
 Frequencies --    283.8734               321.4729               328.1004
 Red. masses --      1.4058                 2.4639                 2.3923
 Frc consts  --      0.0667                 0.1500                 0.1517
 IR Inten    --      0.4101                 2.0707                 1.5497

                     19                     20                     21
                      A                      A                      A
 Frequencies --    344.8285               346.2184               397.4443
 Red. masses --      3.3846                 3.0917                 2.3307
 Frc consts  --      0.2371                 0.2183                 0.2169
 IR Inten    --      0.7603                 4.1361                 1.8904

                     22                     23                     24
                      A                      A                      A
 Frequencies --    424.0899               440.6190               455.3114
 Red. masses --      1.8299                 2.4993                 2.1738
 Frc consts  --      0.1939                 0.2859                 0.2655
 IR Inten    --      0.7635                 2.2873                 1.8003

                     25                     26                     27
                      A                      A                      A
 Frequencies --    476.4988               515.3443               570.2311
 Red. masses --      3.6580                 2.5994                 2.8955
 Frc consts  --      0.4893                 0.4067                 0.5547
 IR Inten    --      6.5115                 2.9113                 0.9680

                     28                     29                     30
                      A                      A                      A
 Frequencies --    629.2764               650.6317               687.4888
 Red. masses --      4.5392                 2.3457                 3.2057
 Frc consts  --      1.0590                 0.5851                 0.8927
 IR Inten    --      6.3642                10.6337                 1.6953

                     31                     32                     33
                      A                      A                      A
 Frequencies --    689.4758               751.6708               784.6679
 Red. masses --      3.4178                 2.7262                 2.1661
 Frc consts  --      0.9573                 0.9075                 0.7858
 IR Inten    --     14.8682                10.8305                39.7264

                     34                     35                     36
                      A                      A                      A
 Frequencies --    799.4730               826.5236               838.1894
 Red. masses --      2.7103                 1.6418                 2.5165
 Frc consts  --      1.0206                 0.6608                 1.0417
 IR Inten    --     16.6123                17.3846                 5.5511

                     37                     38                     39
                      A                      A                      A
 Frequencies --    876.0066               877.2282               888.8143
 Red. masses --      2.1040                 2.2500                 1.3746
 Frc consts  --      0.9513                 1.0201                 0.6398
 IR Inten    --      8.1545                 3.2878                 5.0714

                     40                     41                     42
                      A                      A                      A
 Frequencies --    893.7295               917.0575               949.3097
 Red. masses --      1.6160                 1.4432                 1.9105
 Frc consts  --      0.7605                 0.7151                 1.0144
 IR Inten    --     20.7826                 2.1547                10.6039

                     43                     44                     45
                      A                      A                      A
 Frequencies --    967.8037               992.7930               998.6804
 Red. masses --      1.8465                 2.3984                 9.2509
 Frc consts  --      1.0190                 1.3928                 5.4361
 IR Inten    --      6.7706                 1.9437                 5.6034

                     46                     47                     48
                      A                      A                      A
 Frequencies --   1017.9561              1031.8170              1048.2705
 Red. masses --      1.9986                 1.5034                 2.2597
 Frc consts  --      1.2202                 0.9431                 1.4630
 IR Inten    --      2.2066                 2.0935                29.3579

                     49                     50                     51
                      A                      A                      A
 Frequencies --   1055.4789              1068.8087              1088.6293
 Red. masses --      2.0717                 1.9950                 1.7153
 Frc consts  --      1.3598                 1.3427                 1.1977
 IR Inten    --     22.2210                13.7362                 1.5656

                     52                     53                     54
                      A                      A                      A
 Frequencies --   1116.0611              1124.6181              1144.3099
 Red. masses --      2.2498                 2.0214                 1.7743
 Frc consts  --      1.6511                 1.5063                 1.3689
 IR Inten    --     39.9889                 1.5012                23.2538

                     55                     56                     57
                      A                      A                      A
 Frequencies --   1147.5323              1170.8692              1177.7157
 Red. masses --      2.2689                 2.0179                 1.6340
 Frc consts  --      1.7603                 1.6299                 1.3353
 IR Inten    --      1.6240                33.9215                 3.9939

                     58                     59                     60
                      A                      A                      A
 Frequencies --   1186.4236              1210.9541              1224.3035
 Red. masses --      1.8750                 2.1929                 2.1650
 Frc consts  --      1.5550                 1.8947                 1.9120
 IR Inten    --     42.9291                18.0175                30.2687

                     61                     62                     63
                      A                      A                      A
 Frequencies --   1241.2215              1246.4710              1258.7845
 Red. masses --      1.7027                 1.7308                 2.2583
 Frc consts  --      1.5456                 1.5844                 2.1083
 IR Inten    --      5.6745                 2.4459                13.2874

                     64                     65                     66
                      A                      A                      A
 Frequencies --   1279.2275              1307.4091              1318.3381
 Red. masses --      1.3408                 1.3178                 3.4316
 Frc consts  --      1.2927                 1.3271                 3.5140
 IR Inten    --      0.0592                 2.1300                24.9047

                     67                     68                     69
                      A                      A                      A
 Frequencies --   1331.8277              1346.5873              1350.3805
 Red. masses --      1.3983                 1.7119                 1.3182
 Frc consts  --      1.4613                 1.8289                 1.4163
 IR Inten    --      3.0282                 9.6424                 4.0729

                     70                     71                     72
                      A                      A                      A
 Frequencies --   1371.3671              1378.4325              1395.7703
 Red. masses --      1.6105                 1.3841                 1.5867
 Frc consts  --      1.7846                 1.5495                 1.8213
 IR Inten    --      0.9891                 5.1438                 0.8564

                     73                     74                     75
                      A                      A                      A
 Frequencies --   1401.4211              1403.2424              1404.1319
 Red. masses --      1.3707                 1.5729                 1.3377
 Frc consts  --      1.5861                 1.8248                 1.5539
 IR Inten    --      8.3594                59.1369                 5.3145

                     76                     77                     78
                      A                      A                      A
 Frequencies --   1408.3460              1413.1870              1420.5207
 Red. masses --      1.3564                 1.3085                 1.2548
 Frc consts  --      1.5851                 1.5396                 1.4918
 IR Inten    --     20.6399                10.0020                10.3456

                     79                     80                     81
                      A                      A                      A
 Frequencies --   1434.3223              1442.7339              1446.5661
 Red. masses --      2.4432                 1.6536                 1.3389
 Frc consts  --      2.9615                 2.0279                 1.6507
 IR Inten    --     18.9461                22.3902                11.2350

                     82                     83                     84
                      A                      A                      A
 Frequencies --   1452.0051              1482.6515              1485.4201
 Red. masses --      1.2796                 1.1632                 1.1226
 Frc consts  --      1.5894                 1.5065                 1.4594
 IR Inten    --      5.4956                 2.9735                13.5251

                     85                     86                     87
                      A                      A                      A
 Frequencies --   1502.8973              1504.3602              1510.6971
 Red. masses --      1.2703                 1.5665                 1.0837
 Frc consts  --      1.6905                 2.0887                 1.4572
 IR Inten    --      4.1817                20.2910                 0.8499

                     88                     89                     90
                      A                      A                      A
 Frequencies --   1510.9912              1515.7995              1517.8005
 Red. masses --      1.1496                 1.1758                 1.4235
 Frc consts  --      1.5464                 1.5917                 1.9321
 IR Inten    --      0.1069                21.3082                23.4544

                     91                     92                     93
                      A                      A                      A
 Frequencies --   1521.6692              1524.1157              1529.4120
 Red. masses --      1.0713                 1.0932                 1.0506
 Frc consts  --      1.4615                 1.4963                 1.4478
 IR Inten    --      4.0097                 0.2101                 9.3629

                     94                     95                     96
                      A                      A                      A
 Frequencies --   1532.3678              1542.5848              1547.0909
 Red. masses --      1.0695                 1.0922                 1.0618
 Frc consts  --      1.4797                 1.5313                 1.4973
 IR Inten    --      9.5301                 5.9893                19.4095

                     97                     98                     99
                      A                      A                      A
 Frequencies --   1553.5394              1557.9706              2967.6420
 Red. masses --      1.1449                 3.1760                 1.0723
 Frc consts  --      1.6281                 4.5420                 5.5643
 IR Inten    --      4.6069                17.0117                42.8870

                    100                    101                    102
                      A                      A                      A
 Frequencies --   2970.8449              2971.6972              3001.7207
 Red. masses --      1.0607                 1.0704                 1.0830
 Frc consts  --      5.5156                 5.5691                 5.7491
 IR Inten    --     71.8186                96.1914                42.3726

                    103                    104                    105
                      A                      A                      A
 Frequencies --   3030.0342              3036.2079              3046.9395
 Red. masses --      1.0650                 1.0844                 1.0609
 Frc consts  --      5.7612                 5.8896                 5.8027
 IR Inten    --     37.6653                57.2985                21.1348

                    106                    107                    108
                      A                      A                      A
 Frequencies --   3052.6803              3058.2968              3064.6894
 Red. masses --      1.0636                 1.0383                 1.0414
 Frc consts  --      5.8396                 5.7220                 5.7630
 IR Inten    --     62.3714                16.5173                14.8683

                    109                    110                    111
                      A                      A                      A
 Frequencies --   3071.1360              3072.4977              3078.8967
 Red. masses --      1.0755                 1.0891                 1.0900
 Frc consts  --      5.9766                 6.0576                 6.0878
 IR Inten    --     54.4537                39.7461                23.8497

                    112                    113                    114
                      A                      A                      A
 Frequencies --   3086.9779              3095.3625              3106.6309
 Red. masses --      1.0946                 1.0725                 1.0911
 Frc consts  --      6.1455                 6.0546                 6.2045
 IR Inten    --      5.4125                58.8997                30.8998

                    115                    116                    117
                      A                      A                      A
 Frequencies --   3112.6623              3114.9871              3120.0320
 Red. masses --      1.0987                 1.1024                 1.1012
 Frc consts  --      6.2718                 6.3021                 6.3159
 IR Inten    --     18.0251                38.2329                49.8434

                    118                    119                    120
                      A                      A                      A
 Frequencies --   3121.5570              3141.7467              3146.7360
 Red. masses --      1.1023                 1.1050                 1.1006
 Frc consts  --      6.3281                 6.4264                 6.4209
 IR Inten    --     18.7353                12.7573                26.9546

                    121                    122                    123
                      A                      A                      A
 Frequencies --   3156.8617              3272.3258              3491.4175
 Red. masses --      1.0983                 1.0970                 1.0733
 Frc consts  --      6.4490                 6.9210                 7.7088
 IR Inten    --     10.0973                 8.8401                 0.7545

 - Thermochemistry -
 -------------------
 Temperature   298.150 Kelvin.  Pressure   1.00000 Atm.
 Atom     1 has atomic number  6 and mass  12.00000

 Molecular mass:   251.21100 amu.
 Principal axes and moments of inertia in atomic units:
                           1         2         3
     Eigenvalues --  2674.007146718.153297010.78207
           X            0.99969  -0.01893  -0.01620
           Y            0.01790   0.99795  -0.06139
           Z            0.01733   0.06108   0.99798
 This molecule is an asymmetric top.
 Rotational symmetry number  1.
 Warning -- assumption of classical behavior for rotation
           may cause significant error
 Rotational temperatures (Kelvin)      0.03239     0.01289     0.01235
 Rotational constants (GHZ):           0.67492     0.26864     0.25742
 Zero-point vibrational energy    1020989.7 (Joules/Mol)
                                  244.02239 (Kcal/Mol)
 Warning -- explicit consideration of  27 degrees of freedom as
           vibrations may cause significant error
 Vibrational temperatures:     66.21    72.57    75.27    92.02   137.97
          (Kelvin)            146.82   178.84   199.25   228.76   248.55
                              298.10   319.58   329.35   352.69   386.67
                              408.43   462.53   472.06   496.13   498.13
                              571.83   610.17   633.95   655.09   685.58
                              741.47   820.44   905.39   936.11   989.14
                              992.00  1081.49  1128.96  1150.26  1189.18
                             1205.97  1260.38  1262.14  1278.81  1285.88
                             1319.44  1365.84  1392.45  1428.41  1436.88
                             1464.61  1484.55  1508.23  1518.60  1537.78
                             1566.29  1605.76  1618.07  1646.41  1651.04
                             1684.62  1694.47  1707.00  1742.29  1761.50
                             1785.84  1793.39  1811.11  1840.52  1881.07
                             1896.79  1916.20  1937.44  1942.90  1973.09
                             1983.26  2008.20  2016.33  2018.95  2020.23
                             2026.30  2033.26  2043.81  2063.67  2075.77
                             2081.29  2089.11  2133.20  2137.19  2162.33
                             2164.44  2173.56  2173.98  2180.90  2183.78
                             2189.34  2192.86  2200.48  2204.74  2219.44
                             2225.92  2235.20  2241.57  4269.77  4274.38
                             4275.61  4318.81  4359.54  4368.43  4383.87
                             4392.13  4400.21  4409.40  4418.68  4420.64
                             4429.85  4441.47  4453.54  4469.75  4478.43
                             4481.77  4489.03  4491.22  4520.27  4527.45
                             4542.02  4708.15  5023.37

 Zero-point correction=                           0.388874 (Hartree/Particle)
 Thermal correction to Energy=                    0.407313
 Thermal correction to Enthalpy=                  0.408257
 Thermal correction to Gibbs Free Energy=         0.342486
 Sum of electronic and zero-point Energies=           -783.864725
 Sum of electronic and thermal Energies=              -783.846287
 Sum of electronic and thermal Enthalpies=            -783.845343
 Sum of electronic and thermal Free Energies=         -783.911114

                     E (Thermal)             CV                S
                      KCal/Mol        Cal/Mol-Kelvin    Cal/Mol-Kelvin
 Total                  255.593             70.511            138.427
 Electronic               0.000              0.000              0.000
 Translational            0.889              2.981             42.464
 Rotational               0.889              2.981             33.198
 Vibrational            253.815             64.549             62.765
 Vibration     1          0.595              1.979              4.981
 Vibration     2          0.595              1.977              4.800
 Vibration     3          0.596              1.977              4.728
 Vibration     4          0.597              1.972              4.331
 Vibration     5          0.603              1.952              3.536
 Vibration     6          0.604              1.948              3.415
 Vibration     7          0.610              1.929              3.032
 Vibration     8          0.614              1.915              2.825
 Vibration     9          0.621              1.893              2.562
 Vibration    10          0.626              1.876              2.405
 Vibration    11          0.641              1.830              2.068
 Vibration    12          0.648              1.807              1.942
 Vibration    13          0.652              1.797              1.887
 Vibration    14          0.660              1.771              1.765
 Vibration    15          0.673              1.731              1.604
 Vibration    16          0.682              1.704              1.510
 Vibration    17          0.707              1.632              1.303
 Vibration    18          0.711              1.619              1.269
 Vibration    19          0.723              1.586              1.190
 Vibration    20          0.724              1.583              1.183
 Vibration    21          0.764              1.476              0.972
 Vibration    22          0.786              1.418              0.878
 Vibration    23          0.801              1.382              0.825
 Vibration    24          0.814              1.349              0.780
 Vibration    25          0.833              1.302              0.720
 Vibration    26          0.870              1.216              0.621
 Vibration    27          0.926              1.096              0.504

                           ! Non-Optimized Parameters !
 Normal termination of Gaussian 16 at Fri Dec 11 20:48:29 2020.

 ----------------------------------------------------------------------
 # B3LYP/6-311++G(d,p) empiricaldispersion=gd3bj scf=xqc pop=npa geom=c
 heck
 ----------------------------------------------------------------------

 ---------------------------------------
 CID_114499192_JID_8341_Energie_neutraal
 ---------------------------------------
 Structure from the checkpoint file:  "JID_8341.chk"
 Charge =  0 Multiplicity = 1

 SCF Done:  E(RB3LYP) =  -784.466135960     A.U. after   15 cycles
 Normal termination of Gaussian 16 at Fri Dec 11 21:00:54 2020.

 ----------------------------------------------------------------------
 # B3LYP/6-311++G(d,p) empiricaldispersion=gd3bj scf=xqc pop=npa geom=c
 heck
 ----------------------------------------------------------------------

 -------------------------------------
 CID_114499192_JID_8341_Energie_kation
 -------------------------------------
 Structure from the checkpoint file:  "JID_8341.chk"
 Charge =  1 Multiplicity = 2

 SCF Done:  E(UB3LYP) =  -784.196788136     A.U. after   24 cycles
 Normal termination of Gaussian 16 at Fri Dec 11 21:29:32 2020.
 Gaussian 16:  ES64L-G16RevA.03 25-Dec-2016

 ----------------------------------------------------------------------
 # B3LYP/6-311++G(d,p) empiricaldispersion=gd3bj scf=xqc pop=npa geom=c
 heck
 ----------------------------------------------------------------------

 ------------------------------------
 CID_114499192_JID_8341_Energie_anion
 ------------------------------------
 Structure from the checkpoint file:  "JID_8341.chk"
 Charge = -1 Multiplicity = 2

                         Standard orientation:
 ---------------------------------------------------------------------
 Center     Atomic      Atomic             Coordinates (Angstroms)
 Number     Number       Type             X           Y           Z
 ---------------------------------------------------------------------
      1          6           0       -3.193167    2.405928   -0.200912
      2          6           0       -3.162073    1.415316    0.963729
      3          6           0       -3.475910   -0.025398    0.547489
      4          7           0       -2.501170   -0.584276   -0.384021
      5          6           0       -1.325228   -1.223254   -0.149722
      6          7           0       -0.767719   -1.556356   -1.311624
      7          6           0       -1.646881   -1.074442   -2.231446
      8          7           0       -2.717906   -0.479035   -1.727790
      9          6           0       -0.758807   -1.538357    1.218843
     10          7           0        0.590737   -1.125627    1.513868
     11          6           0        1.705165   -1.820169    0.886344
     12          6           0        2.365509   -1.021951   -0.247622
     13          6           0        2.757597    0.387540    0.233400
     14          6           0        1.534958    1.130936    0.816333
     15          6           0        0.883542    0.244292    1.902338
     16          6           0        0.552453    1.611840   -0.256827
     17          7           0        3.428505    1.217180   -0.772748
     18          6           0        4.792364    0.802937   -1.082741
     19          1           0       -2.475556    2.127194   -0.977081
     20          1           0       -2.952102    3.417072    0.143739
     21          1           0       -4.185300    2.432135   -0.665645
     22          1           0       -2.180530    1.437380    1.453290
     23          1           0       -3.897342    1.704631    1.725894
     24          1           0       -3.522964   -0.680226    1.422059
     25          1           0       -4.440768   -0.078959    0.037579
     26          1           0       -1.500560   -1.170543   -3.298728
     27          1           0       -1.419412   -1.111233    1.981374
     28          1           0       -0.810604   -2.628870    1.341382
     29          1           0        2.466176   -2.022676    1.660193
     30          1           0        1.351772   -2.786903    0.516483
     31          1           0        1.667823   -0.958475   -1.088879
     32          1           0        3.256133   -1.561076   -0.594353
     33          1           0        3.478256    0.270507    1.057972
     34          1           0        1.922545    2.024175    1.325037
     35          1           0       -0.037995    0.710556    2.270723
     36          1           0        1.581801    0.208625    2.756253
     37          1           0       -0.295897    2.128401    0.204926
     38          1           0        1.041357    2.327333   -0.925894
     39          1           0        0.156514    0.792346   -0.861395
     40          1           0        2.875855    1.203128   -1.628028
     41          1           0        4.901488   -0.238025   -1.434851
     42          1           0        5.201368    1.463397   -1.854689
     43          1           0        5.413692    0.915596   -0.186398
 ---------------------------------------------------------------------

 SCF Done:  E(UB3LYP) =  -784.454146259     A.U. after   33 cycles
 SCF Done:  E(UB3LYP) =  -784.454146260     a.u. after    1 cycles

 The electronic state is 2-A.
 Alpha  occ. eigenvalues --  -14.30578 -14.24519 -14.21142 -14.21019 -14.20740
 Alpha  occ. eigenvalues --  -10.14703 -10.12777 -10.12322 -10.12232 -10.10230
 Alpha  occ. eigenvalues --  -10.10106 -10.09986 -10.09973 -10.08029 -10.07513
 Alpha  occ. eigenvalues --  -10.06593 -10.06369 -10.06053  -0.98589  -0.84133
 Alpha  occ. eigenvalues --   -0.81615  -0.81256  -0.75734  -0.70344  -0.68926
 Alpha  occ. eigenvalues --   -0.66975  -0.63297  -0.60769  -0.59772  -0.57423
 Alpha  occ. eigenvalues --   -0.53696  -0.52783  -0.52589  -0.51113  -0.47483
 Alpha  occ. eigenvalues --   -0.45197  -0.43303  -0.41247  -0.39421  -0.38266
 Alpha  occ. eigenvalues --   -0.37809  -0.37460  -0.36745  -0.35942  -0.35203
 Alpha  occ. eigenvalues --   -0.34587  -0.33494  -0.32974  -0.31664  -0.31509
 Alpha  occ. eigenvalues --   -0.30833  -0.29974  -0.29845  -0.29537  -0.27520
 Alpha  occ. eigenvalues --   -0.27094  -0.26819  -0.26177  -0.25657  -0.25439
 Alpha  occ. eigenvalues --   -0.24736  -0.23749  -0.22634  -0.22363  -0.19618
 Alpha  occ. eigenvalues --   -0.18974  -0.17241  -0.13601  -0.11239   0.04130
 Alpha virt. eigenvalues --    0.05530   0.06780   0.07277   0.07579   0.07989
 Alpha virt. eigenvalues --    0.08387   0.08560   0.09163   0.09655   0.10057
 Alpha virt. eigenvalues --    0.10233   0.10344   0.10948   0.11438   0.11842

  Beta  occ. eigenvalues --  -14.30575 -14.24502 -14.21141 -14.21014 -14.20734
  Beta  occ. eigenvalues --  -10.14686 -10.12773 -10.12299 -10.12197 -10.10225
  Beta  occ. eigenvalues --  -10.10095 -10.09969 -10.09951 -10.07994 -10.07507
  Beta  occ. eigenvalues --  -10.06579 -10.06362 -10.06046  -0.98570  -0.84118
  Beta  occ. eigenvalues --   -0.81601  -0.81238  -0.75701  -0.70320  -0.68885
  Beta  occ. eigenvalues --   -0.66957  -0.63258  -0.60723  -0.59750  -0.57386
  Beta  occ. eigenvalues --   -0.53673  -0.52737  -0.52560  -0.51078  -0.47432
  Beta  occ. eigenvalues --   -0.45167  -0.43250  -0.41218  -0.39373  -0.38240
  Beta  occ. eigenvalues --   -0.37775  -0.37434  -0.36721  -0.35920  -0.35182
  Beta  occ. eigenvalues --   -0.34541  -0.33458  -0.32951  -0.31627  -0.31488
  Beta  occ. eigenvalues --   -0.30808  -0.29945  -0.29824  -0.29513  -0.27500
  Beta  occ. eigenvalues --   -0.27069  -0.26779  -0.26127  -0.25627  -0.25408
  Beta  occ. eigenvalues --   -0.24718  -0.23720  -0.22616  -0.22345  -0.19579
  Beta  occ. eigenvalues --   -0.18960  -0.17163  -0.13586  -0.11208
  Beta virt. eigenvalues --    0.05881   0.06882   0.07051   0.07518   0.07922
  Beta virt. eigenvalues --    0.08392   0.08594   0.08887   0.09366   0.09977
  Beta virt. eigenvalues --    0.10334   0.10614   0.10836   0.11020   0.11616

 Mulliken charges and spin densities:
               1          2
     1  C    0.404535  -0.999547
     2  C   -0.436012   0.468986
     3  C    1.072724  -1.482538
     4  N    0.197690   0.088422
     5  C   -0.661615   0.583360
     6  N   -0.041455   0.030465
     7  C   -0.162542   0.216584
     8  N   -0.122708   0.032896
     9  C    0.341329  -1.427606
    10  N    0.038052   0.157547
    11  C    0.105904  -0.405862
    12  C   -0.038794   0.044973
    13  C   -0.981103  -0.252700
    14  C    0.029609   0.626499
    15  C    0.217968  -0.688708
    16  C   -0.352936  -0.443120
    17  N   -0.007131   0.064215
    18  C    0.415983  -0.713686
    19  H    0.136736   0.018374
    20  H   -0.167422   0.306828
    21  H    0.078589   0.054752
    22  H    0.336661  -0.243093
    23  H   -1.046993   1.260433
    24  H   -0.497472   0.674065
    25  H   -0.140952   0.331706
    26  H    0.082726   0.065542
    27  H   -0.159045   0.354037
    28  H   -0.059593   0.249206
    29  H   -0.066127   0.220781
    30  H    0.149801   0.003403
    31  H    0.208289  -0.019013
    32  H    0.026824   0.126071
    33  H    0.139335   0.005536
    34  H   -0.016932   0.233525
    35  H   -0.388030   0.518946
    36  H   -0.067670   0.249438
    37  H    0.291019  -0.097612
    38  H    0.143602  -0.012652
    39  H    0.157479   0.045226
    40  H    0.151888   0.053905
    41  H   -0.059072   0.183803
    42  H   -0.072824   0.204153
    43  H   -0.180315   0.312460
 Sum of Mulliken charges =  -1.00000   1.00000

 Dipole moment (field-independent basis, Debye):
    X=              3.8772    Y=             -1.8511    Z=             -4.9481  Tot=              6.5531
 Quadrupole moment (field-independent basis, Debye-Ang):
   XX=           -212.9360   YY=           -153.7868   ZZ=           -159.0211
   XY=              3.2502   XZ=             16.4494   YZ=             -2.6954

 Summary of Natural Population Analysis:

                                       Natural Population
                Natural  -----------------------------------------------
    Atom  No    Charge         Core      Valence    Rydberg      Total
 -----------------------------------------------------------------------
      C    1   -0.28780      0.99966     2.28250    0.00564     3.28780
      C    2   -0.19592      0.99963     2.18757    0.00872     3.19592
      C    3   -0.08380      0.99960     2.07147    0.01273     3.08380
      N    4   -0.11767      0.99960     2.60369    0.01438     3.61767
      C    5    0.19823      0.99958     1.78596    0.01623     2.80177
      N    6   -0.27695      0.99970     2.76825    0.00900     3.77695
      C    7    0.08623      0.99969     1.89627    0.01781     2.91377
      N    8   -0.15889      0.99973     2.64875    0.01040     3.65889
      C    9   -0.09853      0.99956     2.08585    0.01313     3.09853
      N   10   -0.28099      0.99972     2.76689    0.01439     3.78099
      C   11   -0.07742      0.99961     2.06728    0.01053     3.07742
      C   12   -0.21443      0.99960     2.20575    0.00909     3.21443
      C   13   -0.00561      0.99955     1.99306    0.01300     3.00561
      C   14   -0.11776      0.99958     2.10649    0.01169     3.11776
      C   15   -0.07785      0.99959     2.06592    0.01235     3.07785
      C   16   -0.29488      0.99963     2.28889    0.00636     3.29488
      N   17   -0.33849      0.99974     2.82747    0.01128     3.83849
      C   18   -0.17610      0.99966     2.16976    0.00668     3.17610
      H   19    0.10226      0.00000     0.39655    0.00119     0.39774
      H   20    0.09934      0.00000     0.39991    0.00075     0.40066
      H   21    0.09808      0.00000     0.40107    0.00085     0.40192
      H   22    0.09563      0.00000     0.40231    0.00206     0.40437
      H   23    0.10540      0.00000     0.39008    0.00453     0.39460
      H   24    0.10777      0.00000     0.38918    0.00305     0.39223
      H   25    0.10756      0.00000     0.39079    0.00166     0.39244
      H   26    0.09066      0.00000     0.40857    0.00077     0.40934
      H   27    0.10625      0.00000     0.39198    0.00176     0.39375
      H   28    0.10440      0.00000     0.39443    0.00117     0.39560
      H   29    0.08607      0.00000     0.41278    0.00115     0.41393
      H   30    0.09959      0.00000     0.39938    0.00102     0.40041
      H   31    0.10817      0.00000     0.39013    0.00171     0.39183
      H   32    0.09642      0.00000     0.40246    0.00112     0.40358
      H   33    0.08960      0.00000     0.40802    0.00237     0.41040
      H   34    0.09877      0.00000     0.39959    0.00165     0.40123
      H   35    0.09845      0.00000     0.39994    0.00161     0.40155
      H   36    0.09062      0.00000     0.40811    0.00127     0.40938
      H   37    0.10049      0.00000     0.39831    0.00120     0.39951
      H   38    0.10056      0.00000     0.39839    0.00104     0.39944
      H   39    0.10085      0.00000     0.39755    0.00160     0.39915
      H   40    0.16973      0.00000     0.32749    0.00278     0.33027
      H   41    0.07815      0.00000     0.42000    0.00185     0.42185
      H   42    0.09278      0.00000     0.40627    0.00095     0.40722
      H   43    0.09105      0.00000     0.40763    0.00132     0.40895
 =======================================================================
   * Total *    0.00000     17.99342    50.76272    0.24385    69.00000

 Normal termination of Gaussian 16 at Fri Dec 11 22:08:38 2020.
