 Gaussian 16, Revision A.03,

 -----------------------------------------------------------
 # opt freq B3LYP/6-31G(d) empiricaldispersion=gd3bj scf=xqc
 -----------------------------------------------------------

 -------------------------------
 CID_115773498_JID_2285_neutraal
 -------------------------------
 Symbolic Z-matrix:
 Charge =  0 Multiplicity = 1

 SCF Done:  E(RB3LYP) =  -873.938041241     A.U. after   15 cycles
 SCF Done:  E(RB3LYP) =  -873.941080391     A.U. after   13 cycles
 SCF Done:  E(RB3LYP) =  -873.939445301     A.U. after   15 cycles
 SCF Done:  E(RB3LYP) =  -873.941458827     A.U. after   13 cycles
 SCF Done:  E(RB3LYP) =  -873.943008827     A.U. after   15 cycles
 SCF Done:  E(RB3LYP) =  -873.942846297     A.U. after   13 cycles
 SCF Done:  E(RB3LYP) =  -873.943579021     A.U. after   12 cycles
 SCF Done:  E(RB3LYP) =  -873.943726382     A.U. after   12 cycles
 SCF Done:  E(RB3LYP) =  -873.943779458     A.U. after   11 cycles
 SCF Done:  E(RB3LYP) =  -873.943771035     A.U. after   11 cycles
 SCF Done:  E(RB3LYP) =  -873.943778156     A.U. after   12 cycles
 SCF Done:  E(RB3LYP) =  -873.943786721     A.U. after   10 cycles
 SCF Done:  E(RB3LYP) =  -873.943789371     A.U. after    9 cycles
 SCF Done:  E(RB3LYP) =  -873.943789866     A.U. after    8 cycles
 SCF Done:  E(RB3LYP) =  -873.943790355     A.U. after    8 cycles
 Optimization completed.
    -- Stationary point found.
 Normal termination of Gaussian 16 at Wed Dec  9 16:59:05 2020.

 --------------------------------------------------------------------
 #N Geom=AllCheck Guess=TCheck SCRF=Check GenChk RB3LYP/6-31G(d) Freq
 --------------------------------------------------------------------

 Structure from the checkpoint file:  "JID_2285.chk"
 -------------------------------
 CID_115773498_JID_2285_neutraal
 -------------------------------
 Charge =  0 Multiplicity = 1

 SCF Done:  E(RB3LYP) =  -873.943790355     A.U. after    1 cycles

  Exact polarizability:  97.142  -4.334 126.647  -9.063  -6.793 105.810
 Approx polarizability: 137.133 -12.130 227.533 -22.421 -18.639 168.949

                      1                      2                      3
                      A                      A                      A
 Frequencies --     51.4397                61.1232                75.5881
 Red. masses --      5.9832                 3.5867                 5.6191
 Frc consts  --      0.0093                 0.0079                 0.0189
 IR Inten    --      3.5936                 3.6596                 1.0554

                      4                      5                      6
                      A                      A                      A
 Frequencies --     98.5241               142.1119               165.3291
 Red. masses --      4.2137                 3.2800                 3.9394
 Frc consts  --      0.0241                 0.0390                 0.0634
 IR Inten    --      1.9640                 5.5195                 0.1444

                      7                      8                      9
                      A                      A                      A
 Frequencies --    175.0851               236.4788               262.4017
 Red. masses --      2.8077                 3.4672                 2.1465
 Frc consts  --      0.0507                 0.1142                 0.0871
 IR Inten    --      0.6080                 1.4516                 0.9365

                     10                     11                     12
                      A                      A                      A
 Frequencies --    277.1006               352.0656               368.0368
 Red. masses --      1.7309                 2.7288                 2.7144
 Frc consts  --      0.0783                 0.1993                 0.2166
 IR Inten    --      1.0113                 0.1567                 1.1620

                     13                     14                     15
                      A                      A                      A
 Frequencies --    444.4190               509.4859               552.9435
 Red. masses --      3.4152                 7.9744                 5.3540
 Frc consts  --      0.3974                 1.2196                 0.9645
 IR Inten    --      0.7288                13.7538                 1.4860

                     16                     17                     18
                      A                      A                      A
 Frequencies --    612.8728               631.3427               642.7152
 Red. masses --      6.4254                 4.2813                 3.6008
 Frc consts  --      1.4220                 1.0054                 0.8764
 IR Inten    --      2.8613                 3.0917                 1.0889

                     19                     20                     21
                      A                      A                      A
 Frequencies --    677.2924               704.5698               710.5441
 Red. masses --      5.6146                 3.4042                 6.2418
 Frc consts  --      1.5175                 0.9957                 1.8567
 IR Inten    --      2.4479                 4.7225                 7.4566

                     22                     23                     24
                      A                      A                      A
 Frequencies --    764.2927               782.1022               861.0408
 Red. masses --      1.2915                 1.1957                 1.3310
 Frc consts  --      0.4445                 0.4309                 0.5814
 IR Inten    --     28.6140                 5.0256                 5.4664

                     25                     26                     27
                      A                      A                      A
 Frequencies --    893.9300               942.0279               969.9550
 Red. masses --      1.9881                 5.2198                 2.1745
 Frc consts  --      0.9361                 2.7292                 1.2053
 IR Inten    --      9.2272                 8.6769                 0.6051

                     28                     29                     30
                      A                      A                      A
 Frequencies --    994.0317              1028.1557              1074.6344
 Red. masses --      1.8918                 2.0207                 1.5262
 Frc consts  --      1.1013                 1.2586                 1.0384
 IR Inten    --      4.7146                 1.5731                 2.1581

                     31                     32                     33
                      A                      A                      A
 Frequencies --   1088.3560              1104.6009              1151.1357
 Red. masses --      1.7778                 1.4232                 1.7328
 Frc consts  --      1.2407                 1.0231                 1.3528
 IR Inten    --     12.2663                 7.0896                 6.5179

                     34                     35                     36
                      A                      A                      A
 Frequencies --   1196.1100              1249.1407              1255.4380
 Red. masses --      2.0805                 2.2374                 1.3629
 Frc consts  --      1.7537                 2.0569                 1.2656
 IR Inten    --      3.9344                 4.7687                 2.4871

                     37                     38                     39
                      A                      A                      A
 Frequencies --   1294.0558              1318.3949              1330.4978
 Red. masses --      1.1863                 1.6740                 1.6251
 Frc consts  --      1.1705                 1.7144                 1.6950
 IR Inten    --      5.8629                10.8689                46.7379

                     40                     41                     42
                      A                      A                      A
 Frequencies --   1347.6464              1396.3801              1434.1518
 Red. masses --      1.5214                 1.4972                 2.6802
 Frc consts  --      1.6279                 1.7201                 3.2480
 IR Inten    --     10.4668                30.9052                 3.0128

                     43                     44                     45
                      A                      A                      A
 Frequencies --   1441.8329              1443.3556              1487.8904
 Red. masses --      2.4812                 1.4754                 1.2441
 Frc consts  --      3.0391                 1.8109                 1.6228
 IR Inten    --      7.5951                11.8098                16.5584

                     46                     47                     48
                      A                      A                      A
 Frequencies --   1494.3762              1509.6666              1520.5915
 Red. masses --      1.8395                 1.0901                 1.5409
 Frc consts  --      2.4203                 1.4638                 2.0992
 IR Inten    --     22.4276                 1.6805                23.7283

                     49                     50                     51
                      A                      A                      A
 Frequencies --   1524.6339              1535.3299              1543.7365
 Red. masses --      1.0512                 1.0471                 3.4398
 Frc consts  --      1.4397                 1.4542                 4.8299
 IR Inten    --      8.2496                 4.4028                 6.6677

                     52                     53                     54
                      A                      A                      A
 Frequencies --   2348.5034              3058.0168              3076.4036
 Red. masses --     12.6622                 1.0368                 1.0642
 Frc consts  --     41.1472                 5.7126                 5.9340
 IR Inten    --     43.7929                17.3949                14.1662

                     55                     56                     57
                      A                      A                      A
 Frequencies --   3081.3939              3091.7812              3122.2389
 Red. masses --      1.0654                 1.0622                 1.0997
 Frc consts  --      5.9599                 5.9824                 6.3159
 IR Inten    --     10.3260                14.7845                19.8031

                     58                     59                     60
                      A                      A                      A
 Frequencies --   3130.6458              3137.1237              3150.3634
 Red. masses --      1.1008                 1.1027                 1.1026
 Frc consts  --      6.3564                 6.3942                 6.4476
 IR Inten    --      8.2162                 0.9375                10.0126

                     61                     62                     63
                      A                      A                      A
 Frequencies --   3153.7405              3270.4923              3300.8978
 Red. masses --      1.1018                 1.0935                 1.1027
 Frc consts  --      6.4568                 6.8911                 7.0790
 IR Inten    --     12.7457                 4.7215                 0.4955

 - Thermochemistry -
 -------------------
 Temperature   298.150 Kelvin.  Pressure   1.00000 Atm.
 Atom     1 has atomic number  6 and mass  12.00000

 Molecular mass:   181.06737 amu.
 Principal axes and moments of inertia in atomic units:
                           1         2         3
     Eigenvalues --  1748.933542583.191322865.56197
           X            0.99760   0.06382   0.02690
           Y           -0.06494   0.99696   0.04303
           Z           -0.02407  -0.04467   0.99871
 This molecule is an asymmetric top.
 Rotational symmetry number  1.
 Warning -- assumption of classical behavior for rotation
           may cause significant error
 Rotational temperatures (Kelvin)      0.04952     0.03353     0.03023
 Rotational constants (GHZ):           1.03191     0.69865     0.62980
 Zero-point vibrational energy     488378.8 (Joules/Mol)
                                  116.72534 (Kcal/Mol)
 Warning -- explicit consideration of  16 degrees of freedom as
           vibrations may cause significant error
 Vibrational temperatures:     74.01    87.94   108.75   141.75   204.47
          (Kelvin)            237.87   251.91   340.24   377.54   398.69
                              506.54   529.52   639.42   733.04   795.56
                              881.79   908.36   924.72   974.47  1013.72
                             1022.31  1099.65  1125.27  1238.85  1286.17
                             1355.37  1395.55  1430.19  1479.29  1546.16
                             1565.90  1589.27  1656.23  1720.94  1797.23
                             1806.30  1861.86  1896.88  1914.29  1938.96
                             2009.08  2063.42  2074.48  2076.67  2140.74
                             2150.07  2172.07  2187.79  2193.61  2209.00
                             2221.09  3378.97  4399.80  4426.26  4433.44
                             4448.38  4492.21  4504.30  4513.62  4532.67
                             4537.53  4705.51  4749.26

 Zero-point correction=                           0.186014 (Hartree/Particle)
 Thermal correction to Energy=                    0.198151
 Thermal correction to Enthalpy=                  0.199095
 Thermal correction to Gibbs Free Energy=         0.146880
 Sum of electronic and zero-point Energies=           -873.757777
 Sum of electronic and thermal Energies=              -873.745639
 Sum of electronic and thermal Enthalpies=            -873.744695
 Sum of electronic and thermal Free Energies=         -873.796910

                     E (Thermal)             CV                S
                      KCal/Mol        Cal/Mol-Kelvin    Cal/Mol-Kelvin
 Total                  124.342             44.139            109.896
 Electronic               0.000              0.000              0.000
 Translational            0.889              2.981             41.488
 Rotational               0.889              2.981             30.938
 Vibrational            122.564             38.177             37.471
 Vibration     1          0.596              1.977              4.761
 Vibration     2          0.597              1.973              4.421
 Vibration     3          0.599              1.965              4.002
 Vibration     4          0.604              1.950              3.483
 Vibration     5          0.616              1.911              2.775
 Vibration     6          0.624              1.885              2.488
 Vibration     7          0.627              1.873              2.380
 Vibration     8          0.655              1.785              1.829
 Vibration     9          0.670              1.742              1.646
 Vibration    10          0.678              1.716              1.552
 Vibration    11          0.729              1.571              1.157
 Vibration    12          0.741              1.538              1.088
 Vibration    13          0.804              1.373              0.813
 Vibration    14          0.865              1.229              0.635
 Vibration    15          0.908              1.133              0.538
 Vibration    16          0.972              1.005              0.428

 Optimization completed.
    -- Stationary point found.
 Normal termination of Gaussian 16 at Wed Dec  9 17:05:13 2020.

 ----------------------------------------------------------------------
 # B3LYP/6-311++G(d,p) empiricaldispersion=gd3bj scf=xqc pop=npa geom=c
 heck
 ----------------------------------------------------------------------

 ---------------------------------------
 CID_115773498_JID_2285_Energie_neutraal
 ---------------------------------------
 Structure from the checkpoint file:  "JID_2285.chk"
 Charge =  0 Multiplicity = 1

 SCF Done:  E(RB3LYP) =  -874.099254461     A.U. after   15 cycles
 Normal termination of Gaussian 16 at Wed Dec  9 17:08:20 2020.

 ----------------------------------------------------------------------
 # B3LYP/6-311++G(d,p) empiricaldispersion=gd3bj scf=xqc pop=npa geom=c
 heck
 ----------------------------------------------------------------------

 -------------------------------------
 CID_115773498_JID_2285_Energie_kation
 -------------------------------------
 Structure from the checkpoint file:  "JID_2285.chk"
 Charge =  1 Multiplicity = 2

 SCF Done:  E(UB3LYP) =  -873.786502781     A.U. after   23 cycles
 Normal termination of Gaussian 16 at Wed Dec  9 17:14:22 2020.
 Gaussian 16:  ES64L-G16RevA.03 25-Dec-2016

 ----------------------------------------------------------------------
 # B3LYP/6-311++G(d,p) empiricaldispersion=gd3bj scf=xqc pop=npa geom=c
 heck
 ----------------------------------------------------------------------

 ------------------------------------
 CID_115773498_JID_2285_Energie_anion
 ------------------------------------
 Structure from the checkpoint file:  "JID_2285.chk"
 Charge = -1 Multiplicity = 2

                         Standard orientation:
 ---------------------------------------------------------------------
 Center     Atomic      Atomic             Coordinates (Angstroms)
 Number     Number       Type             X           Y           Z
 ---------------------------------------------------------------------
      1          6           0        1.679757    1.285691    1.744288
      2          6           0        1.639025   -0.188123    1.353117
      3         16           0        2.294621   -0.568033   -0.328192
      4          6           0        1.217230    0.418853   -1.428431
      5          6           0       -0.085916   -0.271128   -1.845874
      6          7           0       -0.930776   -0.630032   -0.710932
      7          6           0       -1.077888   -1.873659   -0.157269
      8          6           0       -1.872014   -1.703988    0.961043
      9          7           0       -2.210563   -0.389096    1.116487
     10          6           0       -1.630761    0.237846    0.099612
     11          6           0       -1.662018    1.632721   -0.160815
     12          7           0       -1.631062    2.769034   -0.411681
     13          1           0        2.689285    1.694879    1.640631
     14          1           0        1.364531    1.396157    2.788437
     15          1           0        0.998424    1.892506    1.140125
     16          1           0        2.299039   -0.772188    2.003331
     17          1           0        0.634503   -0.602286    1.463985
     18          1           0        1.008240    1.389574   -0.973239
     19          1           0        1.805564    0.610573   -2.331277
     20          1           0       -0.658644    0.391582   -2.503933
     21          1           0        0.126437   -1.192948   -2.390904
     22          1           0       -0.602233   -2.739448   -0.591246
     23          1           0       -2.216749   -2.458490    1.654022
 ---------------------------------------------------------------------

 SCF Done:  E(UB3LYP) =  -874.099135701     A.U. after   31 cycles

 The electronic state is 2-A.
 Alpha  occ. eigenvalues --  -88.73253 -14.24424 -14.17186 -14.17055 -10.11007
 Alpha  occ. eigenvalues --  -10.10630 -10.09464 -10.09301 -10.07695 -10.07188
 Alpha  occ. eigenvalues --  -10.06890 -10.06498  -7.81854  -5.78253  -5.77879
 Alpha  occ. eigenvalues --   -5.77228  -0.90290  -0.77497  -0.77084  -0.70533
 Alpha  occ. eigenvalues --   -0.66216  -0.63882  -0.59429  -0.54146  -0.50621
 Alpha  occ. eigenvalues --   -0.48362  -0.47570  -0.41619  -0.37123  -0.36893
 Alpha  occ. eigenvalues --   -0.34742  -0.34163  -0.32140  -0.31797  -0.30431
 Alpha  occ. eigenvalues --   -0.29376  -0.28369  -0.27568  -0.26573  -0.23870
 Alpha  occ. eigenvalues --   -0.23697  -0.22288  -0.20879  -0.19865  -0.16512
 Alpha  occ. eigenvalues --   -0.15763  -0.12501  -0.11366   0.04739
 Alpha virt. eigenvalues --    0.07612   0.08145   0.08588   0.10027   0.10403
 Alpha virt. eigenvalues --    0.10722   0.11385   0.12342   0.13152   0.14107
 Alpha virt. eigenvalues --    0.14300   0.14557   0.14776   0.15203   0.15795

  Beta  occ. eigenvalues --  -88.73251 -14.24185 -14.16881 -14.16816 -10.10847
  Beta  occ. eigenvalues --  -10.10610 -10.09462 -10.09264 -10.07560 -10.07151
  Beta  occ. eigenvalues --  -10.06967 -10.06496  -7.81853  -5.78251  -5.77878
  Beta  occ. eigenvalues --   -5.77227  -0.89933  -0.77100  -0.76639  -0.70479
  Beta  occ. eigenvalues --   -0.66097  -0.63547  -0.59329  -0.54004  -0.50247
  Beta  occ. eigenvalues --   -0.48196  -0.47514  -0.41419  -0.36922  -0.36705
  Beta  occ. eigenvalues --   -0.34536  -0.33976  -0.31983  -0.31694  -0.30324
  Beta  occ. eigenvalues --   -0.28967  -0.28274  -0.27419  -0.26530  -0.23793
  Beta  occ. eigenvalues --   -0.23185  -0.21142  -0.20700  -0.19810  -0.15515
  Beta  occ. eigenvalues --   -0.15251  -0.12357  -0.10413
  Beta virt. eigenvalues --    0.07699   0.08513   0.08777   0.09840   0.10505
  Beta virt. eigenvalues --    0.10768   0.11037   0.11566   0.12495   0.13204
  Beta virt. eigenvalues --    0.14308   0.14407   0.14758   0.15024   0.15482

 Mulliken charges and spin densities:
               1          2
     1  C   -0.524941  -0.077915
     2  C   -0.237877  -0.000524
     3  S    0.092849  -0.018877
     4  C    0.152401  -0.284322
     5  C    0.537196  -1.113604
     6  N    0.023227   0.166060
     7  C   -0.243633   0.217188
     8  C    0.164233  -0.150866
     9  N   -0.178502   0.127186
    10  C   -0.052122   0.860761
    11  C    0.077052  -1.143078
    12  N   -0.362692   0.204281
    13  H    0.100780   0.021624
    14  H    0.126063   0.001068
    15  H    0.044934   0.090810
    16  H    0.214949  -0.003268
    17  H    0.167947  -0.001149
    18  H    0.228233  -0.070673
    19  H   -0.524156   0.756496
    20  H   -0.179175   0.374466
    21  H   -0.572240   0.725470
    22  H   -0.154875   0.279662
    23  H    0.100345   0.039202
 Sum of Mulliken charges =  -1.00000   1.00000

 Dipole moment (field-independent basis, Debye):
    X=              3.4072    Y=             -2.6056    Z=              4.5210  Tot=              6.2320
 Quadrupole moment (field-independent basis, Debye-Ang):
   XX=           -115.9324   YY=           -113.4544   ZZ=           -111.1293
   XY=              6.8902   XZ=              8.7022   YZ=             -3.0251

 Summary of Natural Population Analysis:

                                       Natural Population
                Natural  -----------------------------------------------
    Atom  No    Charge         Core      Valence    Rydberg      Total
 -----------------------------------------------------------------------
      C    1   -0.29272      0.99965     2.28782    0.00525     3.29272
      C    2   -0.25029      0.99959     2.24263    0.00807     3.25029
      S    3    0.07958      4.99963     2.90227    0.01852     7.92042
      C    4   -0.26202      0.99957     2.25022    0.01223     3.26202
      C    5   -0.08850      0.99959     2.07510    0.01381     3.08850
      N    6   -0.17250      0.99962     2.65937    0.01351     3.67250
      C    7   -0.00232      0.99956     1.99047    0.01229     3.00232
      C    8   -0.06375      0.99959     2.04901    0.01515     3.06375
      N    9   -0.20907      0.99971     2.69909    0.01028     3.70907
      C   10    0.13502      0.99948     1.84892    0.01658     2.86498
      C   11    0.13099      0.99962     1.85273    0.01665     2.86901
      N   12   -0.14728      0.99979     2.63872    0.00877     3.64728
      H   13    0.09556      0.00000     0.40322    0.00122     0.40444
      H   14    0.09881      0.00000     0.40016    0.00103     0.40119
      H   15    0.10773      0.00000     0.39111    0.00115     0.39227
      H   16    0.09706      0.00000     0.40192    0.00102     0.40294
      H   17    0.11143      0.00000     0.38666    0.00191     0.38857
      H   18    0.11099      0.00000     0.38748    0.00153     0.38901
      H   19    0.11178      0.00000     0.38597    0.00225     0.38822
      H   20    0.10875      0.00000     0.38908    0.00217     0.39125
      H   21    0.10495      0.00000     0.39154    0.00350     0.39505
      H   22    0.10325      0.00000     0.39562    0.00113     0.39675
      H   23    0.09255      0.00000     0.40659    0.00086     0.40745
 =======================================================================
   * Total *    0.00000     15.99541    31.83572    0.16887    48.00000

 Normal termination of Gaussian 16 at Wed Dec  9 17:22:09 2020.
