 Gaussian 16, Revision A.03,

 -----------------------------------------------------------
 # opt freq B3LYP/6-31G(d) empiricaldispersion=gd3bj scf=xqc
 -----------------------------------------------------------

 ------------------------------
 CID_73237068_JID_6696_neutraal
 ------------------------------
 Symbolic Z-matrix:
 Charge =  0 Multiplicity = 1

 SCF Done:  E(RB3LYP) =  -1033.80183425     A.U. after   16 cycles
 SCF Done:  E(RB3LYP) =  -1033.81389796     A.U. after   13 cycles
 SCF Done:  E(RB3LYP) =  -1033.81597932     A.U. after   13 cycles
 SCF Done:  E(RB3LYP) =  -1033.81657955     A.U. after   13 cycles
 SCF Done:  E(RB3LYP) =  -1033.81679650     A.U. after   12 cycles
 SCF Done:  E(RB3LYP) =  -1033.81678485     A.U. after   12 cycles
 SCF Done:  E(RB3LYP) =  -1033.81684580     A.U. after   12 cycles
 SCF Done:  E(RB3LYP) =  -1033.81687433     A.U. after   12 cycles
 SCF Done:  E(RB3LYP) =  -1033.81689415     A.U. after   11 cycles
 SCF Done:  E(RB3LYP) =  -1033.81691117     A.U. after   12 cycles
 SCF Done:  E(RB3LYP) =  -1033.81692137     A.U. after    9 cycles
 SCF Done:  E(RB3LYP) =  -1033.81692216     A.U. after   11 cycles
 SCF Done:  E(RB3LYP) =  -1033.81692265     A.U. after   10 cycles
 SCF Done:  E(RB3LYP) =  -1033.81692290     A.U. after    9 cycles
 SCF Done:  E(RB3LYP) =  -1033.81692309     A.U. after    9 cycles
 SCF Done:  E(RB3LYP) =  -1033.81692310     A.U. after    8 cycles
 Optimization completed.
    -- Stationary point found.
 Normal termination of Gaussian 16 at Thu Dec 10 23:03:20 2020.

 --------------------------------------------------------------------
 #N Geom=AllCheck Guess=TCheck SCRF=Check GenChk RB3LYP/6-31G(d) Freq
 --------------------------------------------------------------------

 Structure from the checkpoint file:  "JID_6696.chk"
 ------------------------------
 CID_73237068_JID_6696_neutraal
 ------------------------------
 Charge =  0 Multiplicity = 1

 SCF Done:  E(RB3LYP) =  -1033.81692310     A.U. after    1 cycles

  Exact polarizability: 245.505   2.322 155.601  -8.563   5.004 108.348
 Approx polarizability: 333.623  -1.563 253.327 -28.707  11.835 181.830

                      1                      2                      3
                      A                      A                      A
 Frequencies --     18.0556                43.2991                55.4315
 Red. masses --      4.1343                 4.0212                 3.0471
 Frc consts  --      0.0008                 0.0044                 0.0055
 IR Inten    --      0.8922                 0.7534                 0.6016

                      4                      5                      6
                      A                      A                      A
 Frequencies --     62.0822               113.1636               131.9654
 Red. masses --      2.1075                 4.7120                 3.8310
 Frc consts  --      0.0048                 0.0356                 0.0393
 IR Inten    --      1.0715                 1.0619                 1.0466

                      7                      8                      9
                      A                      A                      A
 Frequencies --    196.7526               202.9259               215.5998
 Red. masses --      2.6651                 1.8650                 2.8391
 Frc consts  --      0.0608                 0.0452                 0.0778
 IR Inten    --      1.2255                 0.2091                 4.3115

                     10                     11                     12
                      A                      A                      A
 Frequencies --    227.7855               239.3249               250.9308
 Red. masses --      2.2112                 2.2599                 1.0853
 Frc consts  --      0.0676                 0.0763                 0.0403
 IR Inten    --      5.4450                 1.2615                 0.2013

                     13                     14                     15
                      A                      A                      A
 Frequencies --    280.6130               308.1863               325.5402
 Red. masses --      1.4121                 2.7358                 3.5523
 Frc consts  --      0.0655                 0.1531                 0.2218
 IR Inten    --      1.1918                 1.8238                 0.7105

                     16                     17                     18
                      A                      A                      A
 Frequencies --    366.3470               379.1387               412.3673
 Red. masses --      2.9417                 3.9371                 2.8486
 Frc consts  --      0.2326                 0.3334                 0.2854
 IR Inten    --      0.8919                 3.8951                 0.6129

                     19                     20                     21
                      A                      A                      A
 Frequencies --    445.7922               465.1315               478.6358
 Red. masses --      3.2174                 4.0270                 3.5470
 Frc consts  --      0.3767                 0.5133                 0.4788
 IR Inten    --      0.4625                16.0931                 7.7393

                     22                     23                     24
                      A                      A                      A
 Frequencies --    481.3525               553.0590               566.6151
 Red. masses --      3.9122                 6.2347                 4.1596
 Frc consts  --      0.5341                 1.1236                 0.7868
 IR Inten    --      1.1643                 0.6886                15.1988

                     25                     26                     27
                      A                      A                      A
 Frequencies --    573.3004               609.3126               669.9101
 Red. masses --      2.6647                 7.2471                 7.0066
 Frc consts  --      0.5160                 1.5852                 1.8526
 IR Inten    --      2.1091                 3.1759                 5.0067

                     28                     29                     30
                      A                      A                      A
 Frequencies --    719.4274               729.1216               775.8913
 Red. masses --      2.3693                 6.8823                 5.5942
 Frc consts  --      0.7225                 2.1557                 1.9842
 IR Inten    --     12.0231                85.8527                 9.6553

                     31                     32                     33
                      A                      A                      A
 Frequencies --    781.6073               798.8871               841.8610
 Red. masses --      1.3442                 3.0963                 1.8923
 Frc consts  --      0.4838                 1.1643                 0.7902
 IR Inten    --     40.2065                 4.3763                 3.3976

                     34                     35                     36
                      A                      A                      A
 Frequencies --    851.9655               897.6124               957.3670
 Red. masses --      3.2650                 1.4110                 1.6389
 Frc consts  --      1.3963                 0.6698                 0.8850
 IR Inten    --      0.8780                 0.2909                 1.3838

                     37                     38                     39
                      A                      A                      A
 Frequencies --    961.6136               963.8894               986.7079
 Red. masses --      1.3652                 1.5368                 1.2070
 Frc consts  --      0.7438                 0.8412                 0.6924
 IR Inten    --      0.6101                 0.5783                 0.0713

                     40                     41                     42
                      A                      A                      A
 Frequencies --    997.8326              1002.8179              1030.3251
 Red. masses --      1.2838                 2.7293                 2.0419
 Frc consts  --      0.7531                 1.6171                 1.2771
 IR Inten    --      0.0110                 2.0227                 0.6404

                     43                     44                     45
                      A                      A                      A
 Frequencies --   1045.1662              1048.1965              1051.3451
 Red. masses --      2.5309                 1.7505                 1.5284
 Frc consts  --      1.6289                 1.1332                 0.9953
 IR Inten    --      3.2694                 6.0124                 5.3644

                     46                     47                     48
                      A                      A                      A
 Frequencies --   1058.3444              1109.2414              1124.9592
 Red. masses --      2.4022                15.3899                 2.1018
 Frc consts  --      1.5853                11.1568                 1.5672
 IR Inten    --      2.8129               158.1849                 7.6702

                     49                     50                     51
                      A                      A                      A
 Frequencies --   1182.7455              1188.6078              1209.8979
 Red. masses --      1.1819                 1.2069                 1.9324
 Frc consts  --      0.9741                 1.0046                 1.6666
 IR Inten    --      0.1903                 7.2607                 0.7603

                     52                     53                     54
                      A                      A                      A
 Frequencies --   1220.1698              1246.7272              1258.9055
 Red. masses --      1.9781                 1.4912                 1.2290
 Frc consts  --      1.7352                 1.3656                 1.1476
 IR Inten    --     57.7228                 3.1213                 1.4868

                     55                     56                     57
                      A                      A                      A
 Frequencies --   1264.8511              1275.2133              1310.2186
 Red. masses --      2.5043                 2.7283                 1.5890
 Frc consts  --      2.3605                 2.6140                 1.6072
 IR Inten    --      0.9095                 1.8604                 0.8370

                     58                     59                     60
                      A                      A                      A
 Frequencies --   1322.5064              1341.0765              1387.1426
 Red. masses --      2.9140                 1.7155                 4.2225
 Frc consts  --      3.0028                 1.8178                 4.7869
 IR Inten    --     40.2783                 3.0113                19.5885

                     61                     62                     63
                      A                      A                      A
 Frequencies --   1422.3747              1424.0388              1451.4295
 Red. masses --      1.2356                 1.2357                 1.2159
 Frc consts  --      1.4729                 1.4765                 1.5091
 IR Inten    --     11.8777                 4.6459                 5.8845

                     64                     65                     66
                      A                      A                      A
 Frequencies --   1485.1953              1502.8714              1512.9997
 Red. masses --      1.0935                 1.0454                 2.0969
 Frc consts  --      1.4211                 1.3911                 2.8282
 IR Inten    --      0.7043                 0.0249                 2.8882

                     67                     68                     69
                      A                      A                      A
 Frequencies --   1515.0460              1520.0600              1521.5964
 Red. masses --      1.5318                 1.0557                 1.0486
 Frc consts  --      2.0716                 1.4372                 1.4304
 IR Inten    --     16.5440                 2.1828                 1.0593

                     70                     71                     72
                      A                      A                      A
 Frequencies --   1527.0206              1527.0561              1532.6230
 Red. masses --      1.6040                 1.0912                 1.0497
 Frc consts  --      2.2037                 1.4993                 1.4527
 IR Inten    --      1.3247                 5.1091                 6.1564

                     73                     74                     75
                      A                      A                      A
 Frequencies --   1551.0366              1644.1286              1658.0611
 Red. masses --      1.0527                 6.4507                 6.8109
 Frc consts  --      1.4921                10.2737                11.0321
 IR Inten    --     15.2090                 6.6054               153.7607

                     76                     77                     78
                      A                      A                      A
 Frequencies --   1687.2999              3042.3684              3047.5352
 Red. masses --     10.4248                 1.0373                 1.0366
 Frc consts  --     17.4865                 5.6566                 5.6720
 IR Inten    --    244.8983                14.7050                28.3832

                     79                     80                     81
                      A                      A                      A
 Frequencies --   3055.1018              3057.1462              3081.5575
 Red. masses --      1.0400                 1.0604                 1.0699
 Frc consts  --      5.7194                 5.8390                 5.9860
 IR Inten    --     38.1232                26.8654                 7.6429

                     82                     83                     84
                      A                      A                      A
 Frequencies --   3088.0851              3102.0074              3110.6111
 Red. masses --      1.0962                 1.1011                 1.1018
 Frc consts  --      6.1590                 6.2424                 6.2811
 IR Inten    --     12.2517                15.0440                36.8999

                     85                     86                     87
                      A                      A                      A
 Frequencies --   3121.8910              3125.3516              3136.9822
 Red. masses --      1.1027                 1.0969                 1.1002
 Frc consts  --      6.3322                 6.3125                 6.3789
 IR Inten    --      7.4815                 9.5355                18.7892

                     88                     89                     90
                      A                      A                      A
 Frequencies --   3139.4713              3155.9770              3184.7207
 Red. masses --      1.1011                 1.1022                 1.0865
 Frc consts  --      6.3941                 6.4680                 6.4928
 IR Inten    --     10.9946                14.2378                 2.8226

                     91                     92                     93
                      A                      A                      A
 Frequencies --   3196.6451              3208.3869              3222.1117
 Red. masses --      1.0902                 1.0938                 1.0950
 Frc consts  --      6.5635                 6.6340                 6.6980
 IR Inten    --     15.0427                27.1989                10.3921

 - Thermochemistry -
 -------------------
 Temperature   298.150 Kelvin.  Pressure   1.00000 Atm.
 Atom     1 has atomic number  6 and mass  12.00000

 Molecular mass:   235.10309 amu.
 Principal axes and moments of inertia in atomic units:
                           1         2         3
     Eigenvalues --  1715.437577009.673407494.73705
           X            0.99988  -0.00954   0.01241
           Y            0.00927   0.99972   0.02159
           Z           -0.01261  -0.02147   0.99969
 This molecule is an asymmetric top.
 Rotational symmetry number  1.
 Warning -- assumption of classical behavior for rotation
           may cause significant error
 Rotational temperatures (Kelvin)      0.05049     0.01236     0.01156
 Rotational constants (GHZ):           1.05206     0.25746     0.24080
 Zero-point vibrational energy     724779.4 (Joules/Mol)
                                  173.22643 (Kcal/Mol)
 Warning -- explicit consideration of  26 degrees of freedom as
           vibrations may cause significant error
 Vibrational temperatures:     25.98    62.30    79.75    89.32   162.82
          (Kelvin)            189.87   283.08   291.97   310.20   327.73
                              344.34   361.03   403.74   443.41   468.38
                              527.09   545.50   593.30   641.40   669.22
                              688.65   692.56   795.73   815.23   824.85
                              876.66   963.85  1035.10  1049.04  1116.33
                             1124.56  1149.42  1211.25  1225.79  1291.46
                             1377.44  1383.55  1386.82  1419.65  1435.66
                             1442.83  1482.41  1503.76  1508.12  1512.65
                             1522.72  1595.95  1618.57  1701.71  1710.14
                             1740.77  1755.55  1793.76  1811.28  1819.84
                             1834.75  1885.11  1902.79  1929.51  1995.79
                             2046.48  2048.87  2088.28  2136.86  2162.30
                             2176.87  2179.81  2187.03  2189.24  2197.04
                             2197.09  2205.10  2231.60  2365.53  2385.58
                             2427.65  4377.29  4384.72  4395.61  4398.55
                             4433.67  4443.07  4463.10  4475.48  4491.70
                             4496.68  4513.42  4517.00  4540.75  4582.10
                             4599.26  4616.15  4635.90

 Zero-point correction=                           0.276054 (Hartree/Particle)
 Thermal correction to Energy=                    0.292169
 Thermal correction to Enthalpy=                  0.293113
 Thermal correction to Gibbs Free Energy=         0.231430
 Sum of electronic and zero-point Energies=          -1033.540869
 Sum of electronic and thermal Energies=             -1033.524754
 Sum of electronic and thermal Enthalpies=           -1033.523810
 Sum of electronic and thermal Free Energies=        -1033.585493

                     E (Thermal)             CV                S
                      KCal/Mol        Cal/Mol-Kelvin    Cal/Mol-Kelvin
 Total                  183.339             61.538            129.824
 Electronic               0.000              0.000              0.000
 Translational            0.889              2.981             42.266
 Rotational               0.889              2.981             32.866
 Vibrational            181.561             55.576             54.692
 Vibration     1          0.593              1.986              6.837
 Vibration     2          0.595              1.980              5.102
 Vibration     3          0.596              1.975              4.614
 Vibration     4          0.597              1.972              4.390
 Vibration     5          0.607              1.939              3.214
 Vibration     6          0.612              1.921              2.917
 Vibration     7          0.636              1.844              2.163
 Vibration     8          0.639              1.836              2.106
 Vibration     9          0.645              1.817              1.996
 Vibration    10          0.651              1.799              1.896
 Vibration    11          0.657              1.780              1.808
 Vibration    12          0.663              1.761              1.724
 Vibration    13          0.680              1.709              1.530
 Vibration    14          0.698              1.658              1.372
 Vibration    15          0.710              1.624              1.282
 Vibration    16          0.739              1.541              1.095
 Vibration    17          0.749              1.515              1.043
 Vibration    18          0.776              1.443              0.918
 Vibration    19          0.805              1.370              0.809
 Vibration    20          0.823              1.327              0.751
 Vibration    21          0.835              1.297              0.714
 Vibration    22          0.838              1.291              0.706
 Vibration    23          0.908              1.133              0.538
 Vibration    24          0.923              1.103              0.511
 Vibration    25          0.930              1.089              0.498
 Vibration    26          0.968              1.012              0.434

 Optimization completed.
    -- Stationary point found.
 Normal termination of Gaussian 16 at Thu Dec 10 23:13:59 2020.

 ----------------------------------------------------------------------
 # B3LYP/6-311++G(d,p) empiricaldispersion=gd3bj scf=xqc pop=npa geom=c
 heck
 ----------------------------------------------------------------------

 --------------------------------------
 CID_73237068_JID_6696_Energie_neutraal
 --------------------------------------
 Structure from the checkpoint file:  "JID_6696.chk"
 Charge =  0 Multiplicity = 1

 SCF Done:  E(RB3LYP) =  -1034.01359524     A.U. after   17 cycles
 Normal termination of Gaussian 16 at Thu Dec 10 23:20:19 2020.

 ----------------------------------------------------------------------
 # B3LYP/6-311++G(d,p) empiricaldispersion=gd3bj scf=xqc pop=npa geom=c
 heck
 ----------------------------------------------------------------------

 ------------------------------------
 CID_73237068_JID_6696_Energie_kation
 ------------------------------------
 Structure from the checkpoint file:  "JID_6696.chk"
 Charge =  1 Multiplicity = 2

 SCF Done:  E(UB3LYP) =  -1033.72598023     A.U. after   26 cycles
 Normal termination of Gaussian 16 at Thu Dec 10 23:33:19 2020.
 Gaussian 16:  ES64L-G16RevA.03 25-Dec-2016

 ----------------------------------------------------------------------
 # B3LYP/6-311++G(d,p) empiricaldispersion=gd3bj scf=xqc pop=npa geom=c
 heck
 ----------------------------------------------------------------------

 -----------------------------------
 CID_73237068_JID_6696_Energie_anion
 -----------------------------------
 Structure from the checkpoint file:  "JID_6696.chk"
 Charge = -1 Multiplicity = 2

                         Standard orientation:
 ---------------------------------------------------------------------
 Center     Atomic      Atomic             Coordinates (Angstroms)
 Number     Number       Type             X           Y           Z
 ---------------------------------------------------------------------
      1          6           0        4.301133    0.201947    0.613375
      2          6           0        2.884001   -0.381952    0.623867
      3          6           0        2.895607   -1.862653    0.252051
      4          6           0        2.176110   -0.106311    1.949845
      5         16           0        1.983728    0.572626   -0.726373
      6          8           0        2.587166    0.137196   -2.032564
      7          7           0        0.472338   -0.312038   -0.565435
      8          6           0       -0.559736    0.385851   -0.253110
      9          6           0       -0.692702    1.878950    0.069562
     10          6           0       -2.207886    2.134357    0.279933
     11          6           0       -2.845537    0.767010    0.171777
     12          6           0       -4.184322    0.411265    0.325020
     13          6           0       -4.548155   -0.926924    0.164023
     14          6           0       -3.591492   -1.904540   -0.150404
     15          6           0       -2.254388   -1.554012   -0.305595
     16          6           0       -1.895686   -0.213258   -0.139437
     17          1           0        4.915574   -0.313292    1.360787
     18          1           0        4.298698    1.271329    0.855906
     19          1           0        4.766390    0.070807   -0.367862
     20          1           0        3.550622   -2.410407    0.940465
     21          1           0        1.891317   -2.289255    0.301922
     22          1           0        3.272726   -1.989435   -0.767135
     23          1           0        2.100318    0.970064    2.149454
     24          1           0        1.171680   -0.538365    1.964751
     25          1           0        2.749337   -0.553153    2.770732
     26          1           0       -0.115371    2.115247    0.969133
     27          1           0       -0.268209    2.482986   -0.738038
     28          1           0       -2.411671    2.598848    1.251461
     29          1           0       -2.609441    2.814183   -0.481030
     30          1           0       -4.934950    1.159616    0.565376
     31          1           0       -5.588499   -1.216808    0.283117
     32          1           0       -3.900332   -2.938504   -0.272602
     33          1           0       -1.493225   -2.287580   -0.551361
 ---------------------------------------------------------------------

 SCF Done:  E(UB3LYP) =  -1034.03129373     A.U. after   25 cycles

 The electronic state is 2-A.
 Alpha  occ. eigenvalues --  -88.81155 -18.94560 -14.14564 -10.08696 -10.06118
 Alpha  occ. eigenvalues --  -10.05825 -10.05410 -10.05366 -10.04716 -10.04438
 Alpha  occ. eigenvalues --  -10.03900 -10.03631 -10.03213 -10.02676 -10.02140
 Alpha  occ. eigenvalues --  -10.02088  -7.88624  -5.84884  -5.84760  -5.84272
 Alpha  occ. eigenvalues --   -0.88172  -0.76869  -0.72309  -0.70722  -0.66847
 Alpha  occ. eigenvalues --   -0.61225  -0.58854  -0.58496  -0.58048  -0.55405
 Alpha  occ. eigenvalues --   -0.51704  -0.47875  -0.44756  -0.42911  -0.39925
 Alpha  occ. eigenvalues --   -0.36673  -0.35083  -0.34092  -0.33701  -0.33296
 Alpha  occ. eigenvalues --   -0.32844  -0.31480  -0.29838  -0.29296  -0.28815
 Alpha  occ. eigenvalues --   -0.27558  -0.27060  -0.26261  -0.25981  -0.25153
 Alpha  occ. eigenvalues --   -0.24012  -0.23395  -0.23104  -0.23056  -0.22787
 Alpha  occ. eigenvalues --   -0.21058  -0.20023  -0.18050  -0.15668  -0.12395
 Alpha  occ. eigenvalues --   -0.11824  -0.10857  -0.08330   0.03771
 Alpha virt. eigenvalues --    0.07466   0.08485   0.09141   0.09828   0.10021
 Alpha virt. eigenvalues --    0.10469   0.10829   0.11556   0.11913   0.12476
 Alpha virt. eigenvalues --    0.12677   0.13647   0.13914   0.14075   0.14476

  Beta  occ. eigenvalues --  -88.81156 -18.94516 -14.14201 -10.08663 -10.06114
  Beta  occ. eigenvalues --  -10.05820 -10.05409 -10.04952 -10.04757 -10.04437
  Beta  occ. eigenvalues --  -10.03810 -10.03749 -10.03195 -10.02344 -10.02080
  Beta  occ. eigenvalues --  -10.01825  -7.88624  -5.84879  -5.84760  -5.84277
  Beta  occ. eigenvalues --   -0.88023  -0.76185  -0.72024  -0.70572  -0.66582
  Beta  occ. eigenvalues --   -0.60745  -0.58831  -0.58321  -0.58033  -0.55038
  Beta  occ. eigenvalues --   -0.51505  -0.47414  -0.44558  -0.42724  -0.39684
  Beta  occ. eigenvalues --   -0.36516  -0.34886  -0.33876  -0.33640  -0.33058
  Beta  occ. eigenvalues --   -0.32709  -0.31258  -0.29740  -0.29174  -0.28720
  Beta  occ. eigenvalues --   -0.27411  -0.26949  -0.26216  -0.25621  -0.24911
  Beta  occ. eigenvalues --   -0.23887  -0.23141  -0.22967  -0.22730  -0.22233
  Beta  occ. eigenvalues --   -0.20896  -0.19895  -0.16530  -0.15104  -0.12188
  Beta  occ. eigenvalues --   -0.10873  -0.09426  -0.08022
  Beta virt. eigenvalues --    0.07427   0.08427   0.09051   0.09490   0.09861
  Beta virt. eigenvalues --    0.10208   0.10465   0.10967   0.11528   0.11903
  Beta virt. eigenvalues --    0.12628   0.12761   0.13703   0.13930   0.14056

 Mulliken charges and spin densities:
               1          2
     1  C   -0.473320  -0.001003
     2  C    0.102241  -0.003799
     3  C   -0.543190  -0.013523
     4  C   -0.624964   0.002590
     5  S    0.626358   0.078217
     6  O   -0.402385  -0.010364
     7  N    0.097012   0.201568
     8  C   -0.500027   0.242369
     9  C    0.193059  -0.024169
    10  C   -1.408557  -0.044917
    11  C    0.268856   0.105448
    12  C   -0.455535   0.000217
    13  C   -0.272152   0.258691
    14  C   -0.378280  -0.075848
    15  C   -0.247770   0.269131
    16  C    0.832106  -0.083608
    17  H    0.114496   0.006026
    18  H    0.126931   0.000127
    19  H    0.165849   0.000792
    20  H    0.103251   0.000770
    21  H    0.179074   0.003418
    22  H    0.159301   0.001100
    23  H    0.136618   0.012527
    24  H    0.166639   0.003573
    25  H    0.128264   0.001113
    26  H    0.031443   0.067300
    27  H    0.146766   0.027504
    28  H    0.137653   0.009188
    29  H    0.144076   0.001075
    30  H    0.097096  -0.003453
    31  H    0.100487  -0.021448
    32  H    0.119421   0.006767
    33  H    0.129183  -0.017381
 Sum of Mulliken charges =  -1.00000   1.00000

 Dipole moment (field-independent basis, Debye):
    X=              1.8816    Y=              1.6895    Z=              4.5137  Tot=              5.1738
 Quadrupole moment (field-independent basis, Debye-Ang):
   XX=           -151.9244   YY=           -113.9421   ZZ=           -125.1708
   XY=             -4.9913   XZ=             11.0548   YZ=             -0.1802

 Summary of Natural Population Analysis:

                                       Natural Population
                Natural  -----------------------------------------------
    Atom  No    Charge         Core      Valence    Rydberg      Total
 -----------------------------------------------------------------------
      C    1   -0.29500      0.99962     2.28888    0.00651     3.29500
      C    2   -0.11535      0.99959     2.09974    0.01602     3.11535
      C    3   -0.29863      0.99961     2.29177    0.00725     3.29863
      C    4   -0.29592      0.99961     2.29014    0.00617     3.29592
      S    5    0.64097      4.99935     2.29657    0.06311     7.35903
      O    6   -0.48556      0.99993     3.47826    0.00738     4.48556
      N    7   -0.29693      0.99962     2.78358    0.01373     3.79693
      C    8    0.21041      0.99956     1.77174    0.01829     2.78959
      C    9   -0.22171      0.99961     2.21309    0.00901     3.22171
      C   10   -0.19406      0.99962     2.18824    0.00620     3.19406
      C   11    0.02195      0.99948     1.97092    0.00764     2.97805
      C   12   -0.12012      0.99952     2.11118    0.00942     3.12012
      C   13   -0.03645      0.99958     2.02738    0.00949     3.03645
      C   14   -0.13874      0.99958     2.13007    0.00909     3.13874
      C   15   -0.02559      0.99953     2.01764    0.00842     3.02559
      C   16   -0.04494      0.99942     2.03583    0.00969     3.04494
      H   17    0.09453      0.00000     0.40448    0.00099     0.40547
      H   18    0.09824      0.00000     0.40081    0.00095     0.40176
      H   19    0.10966      0.00000     0.38940    0.00094     0.39034
      H   20    0.08984      0.00000     0.40918    0.00099     0.41016
      H   21    0.11488      0.00000     0.38436    0.00076     0.38512
      H   22    0.11222      0.00000     0.38681    0.00097     0.38778
      H   23    0.09843      0.00000     0.40024    0.00133     0.40157
      H   24    0.11467      0.00000     0.38458    0.00074     0.38533
      H   25    0.09500      0.00000     0.40399    0.00100     0.40500
      H   26    0.10466      0.00000     0.39391    0.00142     0.39534
      H   27    0.10808      0.00000     0.39108    0.00084     0.39192
      H   28    0.09522      0.00000     0.40369    0.00109     0.40478
      H   29    0.09656      0.00000     0.40237    0.00107     0.40344
      H   30    0.08898      0.00000     0.40948    0.00154     0.41102
      H   31    0.08472      0.00000     0.41422    0.00106     0.41528
      H   32    0.09049      0.00000     0.40849    0.00102     0.40951
      H   33    0.09950      0.00000     0.39914    0.00136     0.40050
 =======================================================================
   * Total *   -0.00000     19.99323    42.78126    0.22552    63.00000

 Normal termination of Gaussian 16 at Thu Dec 10 23:45:48 2020.
