 Gaussian 16, Revision A.03,

 -----------------------------------------------------------
 # opt freq B3LYP/6-31G(d) empiricaldispersion=gd3bj scf=xqc
 -----------------------------------------------------------

 ------------------------------
 CID_83173827_JID_7358_neutraal
 ------------------------------
 Symbolic Z-matrix:
 Charge =  0 Multiplicity = 1

 SCF Done:  E(RB3LYP) =  -1069.31862396     A.U. after   15 cycles
 SCF Done:  E(RB3LYP) =  -1069.32206100     A.U. after   13 cycles
 SCF Done:  E(RB3LYP) =  -1069.32241115     A.U. after   12 cycles
 SCF Done:  E(RB3LYP) =  -1069.32247896     A.U. after   12 cycles
 SCF Done:  E(RB3LYP) =  -1069.32252403     A.U. after   11 cycles
 SCF Done:  E(RB3LYP) =  -1069.32255751     A.U. after   11 cycles
 SCF Done:  E(RB3LYP) =  -1069.32257409     A.U. after   11 cycles
 SCF Done:  E(RB3LYP) =  -1069.32259034     A.U. after   10 cycles
 SCF Done:  E(RB3LYP) =  -1069.32262100     A.U. after   11 cycles
 SCF Done:  E(RB3LYP) =  -1069.32263139     A.U. after   10 cycles
 SCF Done:  E(RB3LYP) =  -1069.32264689     A.U. after   10 cycles
 SCF Done:  E(RB3LYP) =  -1069.32266120     A.U. after   11 cycles
 SCF Done:  E(RB3LYP) =  -1069.32266348     A.U. after   10 cycles
 SCF Done:  E(RB3LYP) =  -1069.32266502     A.U. after    9 cycles
 Optimization completed.
    -- Stationary point found.
 Normal termination of Gaussian 16 at Fri Dec 11 12:06:12 2020.

 --------------------------------------------------------------------
 #N Geom=AllCheck Guess=TCheck SCRF=Check GenChk RB3LYP/6-31G(d) Freq
 --------------------------------------------------------------------

 Structure from the checkpoint file:  "JID_7358.chk"
 ------------------------------
 CID_83173827_JID_7358_neutraal
 ------------------------------
 Charge =  0 Multiplicity = 1

 SCF Done:  E(RB3LYP) =  -1069.32266502     A.U. after    1 cycles

  Exact polarizability: 198.123 -12.818 151.123   6.536   6.325 139.302
 Approx polarizability: 255.984 -30.632 237.753  13.579  21.913 227.998

                      1                      2                      3
                      A                      A                      A
 Frequencies --     14.9901                21.3141                42.9703
 Red. masses --      3.6993                 3.7005                 3.3411
 Frc consts  --      0.0005                 0.0010                 0.0036
 IR Inten    --      0.5321                 0.8158                 1.1279

                      4                      5                      6
                      A                      A                      A
 Frequencies --     51.2341                81.0568                95.8583
 Red. masses --      4.1006                 2.7004                 4.5366
 Frc consts  --      0.0063                 0.0105                 0.0246
 IR Inten    --      0.4655                 0.4441                 0.6185

                      7                      8                      9
                      A                      A                      A
 Frequencies --     98.9655               142.5476               163.4329
 Red. masses --      3.7498                 7.7831                 4.3653
 Frc consts  --      0.0216                 0.0932                 0.0687
 IR Inten    --      1.8663                 8.8798                 2.3876

                     10                     11                     12
                      A                      A                      A
 Frequencies --    186.7753               223.4531               247.9785
 Red. masses --      3.1227                 1.2494                 3.1265
 Frc consts  --      0.0642                 0.0368                 0.1133
 IR Inten    --      1.6054                 0.4166                 1.7044

                     13                     14                     15
                      A                      A                      A
 Frequencies --    258.9911               276.6981               281.4537
 Red. masses --      1.7114                 2.6606                 1.4575
 Frc consts  --      0.0676                 0.1200                 0.0680
 IR Inten    --      0.2266                 0.9129                 0.2829

                     16                     17                     18
                      A                      A                      A
 Frequencies --    303.6140               333.5350               373.7833
 Red. masses --      3.1943                 2.7458                 2.3879
 Frc consts  --      0.1735                 0.1800                 0.1966
 IR Inten    --      3.2376                 0.0112                 4.0446

                     19                     20                     21
                      A                      A                      A
 Frequencies --    385.1466               408.5752               446.8954
 Red. masses --      3.8848                 3.3918                 5.3607
 Frc consts  --      0.3395                 0.3336                 0.6308
 IR Inten    --      0.7547                 2.3713                 1.9564

                     22                     23                     24
                      A                      A                      A
 Frequencies --    493.0297               510.0778               523.9733
 Red. masses --      5.9168                 2.8735                 3.7896
 Frc consts  --      0.8474                 0.4405                 0.6130
 IR Inten    --      2.9107                 3.3883                 1.3313

                     25                     26                     27
                      A                      A                      A
 Frequencies --    592.1258               614.5013               652.0667
 Red. masses --      4.4404                 5.2368                 5.4205
 Frc consts  --      0.9173                 1.1651                 1.3579
 IR Inten    --      3.9686                 1.6469                 3.6869

                     28                     29                     30
                      A                      A                      A
 Frequencies --    682.4202               703.7792               718.8723
 Red. masses --      3.7669                 3.2214                 3.6789
 Frc consts  --      1.0336                 0.9401                 1.1201
 IR Inten    --      2.5893                 2.0113                 6.5243

                     31                     32                     33
                      A                      A                      A
 Frequencies --    759.9058               771.2220               799.5649
 Red. masses --      1.2625                 3.6267                 1.2660
 Frc consts  --      0.4295                 1.2709                 0.4769
 IR Inten    --     33.0898                11.7427                 2.0104

                     34                     35                     36
                      A                      A                      A
 Frequencies --    808.8873               843.4205               858.0135
 Red. masses --      2.7027                 1.3837                 1.9719
 Frc consts  --      1.0419                 0.5799                 0.8553
 IR Inten    --      3.6893                 1.7181                 3.4043

                     37                     38                     39
                      A                      A                      A
 Frequencies --    879.6270               906.0457               943.6264
 Red. masses --      1.4297                 2.2889                 1.9409
 Frc consts  --      0.6517                 1.1071                 1.0182
 IR Inten    --      3.8061                 0.5055                 1.6762

                     40                     41                     42
                      A                      A                      A
 Frequencies --    974.3097               981.6525               996.4601
 Red. masses --      1.5781                 2.0332                 1.6780
 Frc consts  --      0.8826                 1.1544                 0.9816
 IR Inten    --      3.7934                 5.2913                 4.0771

                     43                     44                     45
                      A                      A                      A
 Frequencies --    999.8249              1025.3146              1036.9205
 Red. masses --      2.1580                 2.9925                 2.3001
 Frc consts  --      1.2710                 1.8535                 1.4571
 IR Inten    --      5.7960                12.4779                 0.7531

                     46                     47                     48
                      A                      A                      A
 Frequencies --   1044.6593              1051.6832              1077.5778
 Red. masses --      3.3529                 2.4605                 1.3685
 Frc consts  --      2.1558                 1.6034                 0.9363
 IR Inten    --      1.6796                 0.4646                 1.9531

                     49                     50                     51
                      A                      A                      A
 Frequencies --   1084.5605              1101.3832              1113.7046
 Red. masses --      1.3238                 2.8154                 1.6930
 Frc consts  --      0.9175                 2.0122                 1.2372
 IR Inten    --     24.4571                 6.3072                 2.8295

                     52                     53                     54
                      A                      A                      A
 Frequencies --   1165.9062              1188.4991              1199.3784
 Red. masses --      2.1972                 1.7089                 2.0290
 Frc consts  --      1.7598                 1.4222                 1.7197
 IR Inten    --      3.2011                 6.5849                 1.3368

                     55                     56                     57
                      A                      A                      A
 Frequencies --   1209.5376              1232.2094              1262.2672
 Red. masses --      1.4947                 1.8207                 1.4435
 Frc consts  --      1.2884                 1.6288                 1.3551
 IR Inten    --      2.8170                38.3333                10.7421

                     58                     59                     60
                      A                      A                      A
 Frequencies --   1273.8930              1286.8946              1306.5351
 Red. masses --      2.4848                 1.3163                 1.2413
 Frc consts  --      2.3758                 1.2844                 1.2485
 IR Inten    --      1.2936                17.3274                 2.7029

                     61                     62                     63
                      A                      A                      A
 Frequencies --   1316.7625              1354.1439              1361.6417
 Red. masses --      1.3000                 1.5134                 1.3952
 Frc consts  --      1.3281                 1.6350                 1.5241
 IR Inten    --      9.4141                23.0477                 8.3874

                     64                     65                     66
                      A                      A                      A
 Frequencies --   1371.4891              1388.1491              1390.2536
 Red. masses --      1.4058                 1.3412                 1.5504
 Frc consts  --      1.5580                 1.5227                 1.7656
 IR Inten    --     13.6689                 2.8566                16.4190

                     67                     68                     69
                      A                      A                      A
 Frequencies --   1404.4662              1422.8479              1438.0031
 Red. masses --      1.6765                 4.2323                 1.3817
 Frc consts  --      1.9484                 5.0483                 1.6833
 IR Inten    --     14.4815                16.7007                14.4590

                     70                     71                     72
                      A                      A                      A
 Frequencies --   1444.5323              1465.5021              1503.2579
 Red. masses --      1.2528                 2.3822                 1.1509
 Frc consts  --      1.5402                 3.0144                 1.5324
 IR Inten    --      4.1188                 3.1337                 4.3368

                     73                     74                     75
                      A                      A                      A
 Frequencies --   1511.8587              1514.6428              1515.5963
 Red. masses --      1.0882                 1.0632                 1.0829
 Frc consts  --      1.4655                 1.4371                 1.4656
 IR Inten    --      2.9429                 0.6675                 6.1716

                     76                     77                     78
                      A                      A                      A
 Frequencies --   1522.1828              1528.9107              1531.6107
 Red. masses --      1.7982                 1.3839                 1.1078
 Frc consts  --      2.4548                 1.9060                 1.5311
 IR Inten    --     11.9963                 2.3457                 0.4375

                     79                     80                     81
                      A                      A                      A
 Frequencies --   1534.4309              1535.0117              1540.5875
 Red. masses --      1.0700                 1.0992                 1.0585
 Frc consts  --      1.4844                 1.5260                 1.4801
 IR Inten    --      5.0728                 5.7469                 2.5542

                     82                     83                     84
                      A                      A                      A
 Frequencies --   1569.3815              2350.6539              3043.9104
 Red. masses --      5.3714                12.7017                 1.0644
 Frc consts  --      7.7947                41.3514                 5.8108
 IR Inten    --     31.4956                14.1210                 9.8028

                     85                     86                     87
                      A                      A                      A
 Frequencies --   3050.2349              3060.2035              3064.8786
 Red. masses --      1.0376                 1.0395                 1.0593
 Frc consts  --      5.6877                 5.7355                 5.8629
 IR Inten    --     30.8460                12.5339                23.9686

                     88                     89                     90
                      A                      A                      A
 Frequencies --   3070.4413              3078.2005              3082.5115
 Red. masses --      1.0599                 1.0629                 1.0836
 Frc consts  --      5.8874                 5.9337                 6.0665
 IR Inten    --     12.4325                22.9803                 8.3125

                     91                     92                     93
                      A                      A                      A
 Frequencies --   3083.5042              3094.4668              3108.1783
 Red. masses --      1.0613                 1.0984                 1.1025
 Frc consts  --      5.9456                 6.1970                 6.2752
 IR Inten    --      9.7644                 1.6768                18.7358

                     94                     95                     96
                      A                      A                      A
 Frequencies --   3115.4250              3117.3262              3124.7907
 Red. masses --      1.1047                 1.1017                 1.1019
 Frc consts  --      6.3175                 6.3076                 6.3392
 IR Inten    --      5.5532                37.2136                35.1569

                     97                     98                     99
                      A                      A                      A
 Frequencies --   3129.2893              3134.7117              3141.4740
 Red. masses --      1.1003                 1.1049                 1.1069
 Frc consts  --      6.3481                 6.3972                 6.4359
 IR Inten    --     29.9141                 7.7913                13.9550

                    100                    101                    102
                      A                      A                      A
 Frequencies --   3146.8621              3280.0203              3297.5101
 Red. masses --      1.1016                 1.0908                 1.1044
 Frc consts  --      6.4275                 6.9144                 7.0753
 IR Inten    --     23.9693                 1.3405                 0.6530

 - Thermochemistry -
 -------------------
 Temperature   298.150 Kelvin.  Pressure   1.00000 Atm.
 Atom     1 has atomic number  6 and mass  12.00000

 Molecular mass:   249.12997 amu.
 Principal axes and moments of inertia in atomic units:
                           1         2         3
     Eigenvalues --  2023.606978843.170649260.23997
           X            0.99996   0.00913  -0.00115
           Y           -0.00917   0.99894  -0.04509
           Z            0.00073   0.04510   0.99898
 This molecule is an asymmetric top.
 Rotational symmetry number  1.
 Warning -- assumption of classical behavior for rotation
           may cause significant error
 Rotational temperatures (Kelvin)      0.04280     0.00979     0.00935
 Rotational constants (GHZ):           0.89184     0.20408     0.19489
 Zero-point vibrational energy     806602.8 (Joules/Mol)
                                  192.78269 (Kcal/Mol)
 Warning -- explicit consideration of  26 degrees of freedom as
           vibrations may cause significant error
 Vibrational temperatures:     21.57    30.67    61.82    73.71   116.62
          (Kelvin)            137.92   142.39   205.09   235.14   268.73
                              321.50   356.79   372.63   398.11   404.95
                              436.83   479.88   537.79   554.14   587.85
                              642.98   709.36   733.89   753.88   851.94
                              884.13   938.18   981.85  1012.58  1034.30
                             1093.33  1109.62  1150.40  1163.81  1213.49
                             1234.49  1265.59  1303.60  1357.67  1401.81
                             1412.38  1433.68  1438.53  1475.20  1491.90
                             1503.03  1513.14  1550.39  1560.44  1584.64
                             1602.37  1677.48  1709.99  1725.64  1740.25
                             1772.87  1816.12  1832.85  1851.55  1879.81
                             1894.53  1948.31  1959.10  1973.27  1997.24
                             2000.26  2020.71  2047.16  2068.97  2078.36
                             2108.53  2162.85  2175.23  2179.23  2180.61
                             2190.08  2199.76  2203.65  2207.70  2208.54
                             2216.56  2257.99  3382.07  4379.51  4388.61
                             4402.95  4409.68  4417.68  4428.84  4435.05
                             4436.47  4452.25  4471.98  4482.40  4485.14
                             4495.88  4502.35  4510.15  4519.88  4527.63
                             4719.22  4744.38

 Zero-point correction=                           0.307219 (Hartree/Particle)
 Thermal correction to Energy=                    0.324761
 Thermal correction to Enthalpy=                  0.325705
 Thermal correction to Gibbs Free Energy=         0.259125
 Sum of electronic and zero-point Energies=          -1069.015446
 Sum of electronic and thermal Energies=             -1068.997904
 Sum of electronic and thermal Enthalpies=           -1068.996960
 Sum of electronic and thermal Free Energies=        -1069.063540

                     E (Thermal)             CV                S
                      KCal/Mol        Cal/Mol-Kelvin    Cal/Mol-Kelvin
 Total                  203.791             65.379            140.131
 Electronic               0.000              0.000              0.000
 Translational            0.889              2.981             42.439
 Rotational               0.889              2.981             33.471
 Vibrational            202.013             59.417             64.221
 Vibration     1          0.593              1.986              7.207
 Vibration     2          0.593              1.985              6.508
 Vibration     3          0.595              1.980              5.117
 Vibration     4          0.595              1.977              4.769
 Vibration     5          0.600              1.962              3.865
 Vibration     6          0.603              1.952              3.537
 Vibration     7          0.604              1.950              3.475
 Vibration     8          0.616              1.911              2.769
 Vibration     9          0.623              1.887              2.510
 Vibration    10          0.632              1.858              2.260
 Vibration    11          0.649              1.805              1.931
 Vibration    12          0.662              1.766              1.745
 Vibration    13          0.668              1.748              1.669
 Vibration    14          0.678              1.717              1.554
 Vibration    15          0.681              1.708              1.525
 Vibration    16          0.695              1.667              1.397
 Vibration    17          0.715              1.609              1.243
 Vibration    18          0.745              1.526              1.064
 Vibration    19          0.754              1.502              1.019
 Vibration    20          0.773              1.452              0.932
 Vibration    21          0.806              1.368              0.805
 Vibration    22          0.849              1.265              0.676
 Vibration    23          0.865              1.228              0.633
 Vibration    24          0.879              1.197              0.601
 Vibration    25          0.950              1.049              0.463
 Vibration    26          0.974              1.001              0.425

                           ! Non-Optimized Parameters !
 Normal termination of Gaussian 16 at Fri Dec 11 12:20:50 2020.

 ----------------------------------------------------------------------
 # B3LYP/6-311++G(d,p) empiricaldispersion=gd3bj scf=xqc pop=npa geom=c
 heck
 ----------------------------------------------------------------------

 --------------------------------------
 CID_83173827_JID_7358_Energie_neutraal
 --------------------------------------
 Structure from the checkpoint file:  "JID_7358.chk"
 Charge =  0 Multiplicity = 1

 SCF Done:  E(RB3LYP) =  -1069.52803859     A.U. after   15 cycles
 Normal termination of Gaussian 16 at Fri Dec 11 12:28:46 2020.

 ----------------------------------------------------------------------
 # B3LYP/6-311++G(d,p) empiricaldispersion=gd3bj scf=xqc pop=npa geom=c
 heck
 ----------------------------------------------------------------------

 ------------------------------------
 CID_83173827_JID_7358_Energie_kation
 ------------------------------------
 Structure from the checkpoint file:  "JID_7358.chk"
 Charge =  1 Multiplicity = 2

 SCF Done:  E(UB3LYP) =  -1069.22925087     A.U. after   24 cycles
 Normal termination of Gaussian 16 at Fri Dec 11 12:49:09 2020.
 Gaussian 16:  ES64L-G16RevA.03 25-Dec-2016

 ----------------------------------------------------------------------
 # B3LYP/6-311++G(d,p) empiricaldispersion=gd3bj scf=xqc pop=npa geom=c
 heck
 ----------------------------------------------------------------------

 -----------------------------------
 CID_83173827_JID_7358_Energie_anion
 -----------------------------------
 Structure from the checkpoint file:  "JID_7358.chk"
 Charge = -1 Multiplicity = 2

                         Standard orientation:
 ---------------------------------------------------------------------
 Center     Atomic      Atomic             Coordinates (Angstroms)
 Number     Number       Type             X           Y           Z
 ---------------------------------------------------------------------
      1          6           0       -5.498525   -1.100073   -0.789334
      2          6           0       -4.237117   -0.888073    0.050462
      3          6           0       -3.312266    0.213748   -0.494540
      4          6           0       -3.943661    1.605293   -0.482835
      5          7           0       -2.047877    0.209869    0.246724
      6          6           0       -1.727857    0.865458    1.395813
      7          6           0       -0.481616    0.411213    1.782893
      8          6           0       -0.122386   -0.542533    0.802273
      9          7           0       -1.084618   -0.663639   -0.122382
     10          6           0        1.131201   -1.350901    0.681236
     11          6           0        2.304472   -0.620618   -0.037500
     12          6           0        1.934623   -0.094623   -1.445297
     13          6           0        2.887724    1.052302   -1.776922
     14          6           0        2.870501    1.985999   -0.563942
     15         16           0        2.877455    0.886815    0.917845
     16          6           0        3.438526   -1.547506   -0.136993
     17          7           0        4.321145   -2.296909   -0.232127
     18          1           0       -6.157446   -0.225384   -0.769847
     19          1           0       -6.073151   -1.952823   -0.413460
     20          1           0       -5.244997   -1.306466   -1.836336
     21          1           0       -4.506399   -0.640129    1.085990
     22          1           0       -3.654144   -1.814926    0.087867
     23          1           0       -3.028243   -0.044714   -1.519799
     24          1           0       -4.313314    1.871137    0.514126
     25          1           0       -3.223137    2.364948   -0.800755
     26          1           0       -4.795058    1.634644   -1.167716
     27          1           0       -2.391143    1.591987    1.840097
     28          1           0        0.100218    0.732744    2.632998
     29          1           0        1.476796   -1.667419    1.670333
     30          1           0        0.912169   -2.258575    0.108505
     31          1           0        1.983173   -0.909050   -2.175021
     32          1           0        0.901215    0.261299   -1.410066
     33          1           0        2.581049    1.582581   -2.685602
     34          1           0        3.901078    0.667143   -1.936252
     35          1           0        1.965306    2.600607   -0.548856
     36          1           0        3.744476    2.639987   -0.519105
 ---------------------------------------------------------------------

 SCF Done:  E(UB3LYP) =  -1069.51995415     A.U. after   32 cycles

 The electronic state is 2-A.
 Alpha  occ. eigenvalues --  -88.76192 -14.29884 -14.24027 -14.23225 -10.17097
 Alpha  occ. eigenvalues --  -10.13091 -10.12979 -10.11795 -10.11685 -10.11269
 Alpha  occ. eigenvalues --  -10.11128 -10.10294 -10.09924 -10.08324 -10.07809
 Alpha  occ. eigenvalues --  -10.07495 -10.07456  -7.84816  -5.81230  -5.80861
 Alpha  occ. eigenvalues --   -5.80145  -0.96267  -0.83305  -0.78792  -0.76913
 Alpha  occ. eigenvalues --   -0.71401  -0.70043  -0.68063  -0.65019  -0.64276
 Alpha  occ. eigenvalues --   -0.60912  -0.56880  -0.54350  -0.52433  -0.50914
 Alpha  occ. eigenvalues --   -0.48496  -0.46751  -0.43367  -0.42391  -0.40095
 Alpha  occ. eigenvalues --   -0.38863  -0.38363  -0.37327  -0.36629  -0.35256
 Alpha  occ. eigenvalues --   -0.34052  -0.33205  -0.32930  -0.31764  -0.30817
 Alpha  occ. eigenvalues --   -0.30380  -0.29506  -0.28595  -0.28275  -0.28205
 Alpha  occ. eigenvalues --   -0.27981  -0.27760  -0.26964  -0.25409  -0.24993
 Alpha  occ. eigenvalues --   -0.24873  -0.24650  -0.23011  -0.21028  -0.16692
 Alpha  occ. eigenvalues --   -0.16176  -0.14705   0.03741
 Alpha virt. eigenvalues --    0.05494   0.06572   0.06870   0.06937   0.07553
 Alpha virt. eigenvalues --    0.08110   0.08271   0.08758   0.09202   0.09447
 Alpha virt. eigenvalues --    0.09823   0.10149   0.10535   0.10691   0.11036

  Beta  occ. eigenvalues --  -88.76187 -14.29885 -14.24023 -14.23220 -10.17095
  Beta  occ. eigenvalues --  -10.13091 -10.12970 -10.11758 -10.11664 -10.11267
  Beta  occ. eigenvalues --  -10.11128 -10.10286 -10.09903 -10.08311 -10.07807
  Beta  occ. eigenvalues --  -10.07443 -10.07420  -7.84812  -5.81216  -5.80858
  Beta  occ. eigenvalues --   -5.80143  -0.96261  -0.83296  -0.78775  -0.76895
  Beta  occ. eigenvalues --   -0.71376  -0.70023  -0.68039  -0.64976  -0.64230
  Beta  occ. eigenvalues --   -0.60877  -0.56819  -0.54329  -0.52384  -0.50833
  Beta  occ. eigenvalues --   -0.48460  -0.46719  -0.43337  -0.42370  -0.40062
  Beta  occ. eigenvalues --   -0.38835  -0.38328  -0.37302  -0.36599  -0.35234
  Beta  occ. eigenvalues --   -0.34025  -0.33172  -0.32903  -0.31735  -0.30778
  Beta  occ. eigenvalues --   -0.30341  -0.29481  -0.28571  -0.28238  -0.28160
  Beta  occ. eigenvalues --   -0.27952  -0.27718  -0.26937  -0.25375  -0.24957
  Beta  occ. eigenvalues --   -0.24835  -0.24624  -0.22984  -0.21020  -0.16672
  Beta  occ. eigenvalues --   -0.16169  -0.14687
  Beta virt. eigenvalues --    0.05948   0.06372   0.06781   0.07129   0.07523
  Beta virt. eigenvalues --    0.07881   0.08439   0.08626   0.08969   0.09392
  Beta virt. eigenvalues --    0.09758   0.10059   0.10471   0.10729   0.10969

 Mulliken charges and spin densities:
               1          2
     1  C    0.680021  -1.378419
     2  C   -0.363782   0.428365
     3  C   -1.667252   1.300064
     4  C    1.830943  -2.345589
     5  N    0.390659  -0.051457
     6  C   -0.052264  -0.310703
     7  C    0.580192  -0.317247
     8  C   -0.296275  -0.571732
     9  N    0.027951   0.145572
    10  C   -0.184141  -0.045691
    11  C    1.368909   0.202767
    12  C   -0.491474  -0.139824
    13  C   -0.544229   0.195849
    14  C    0.476257  -1.259402
    15  S   -0.248657   0.314577
    16  C   -0.683800  -0.116648
    17  N   -0.254723   0.011282
    18  H   -0.175564   0.327312
    19  H   -0.181179   0.320528
    20  H   -0.142127   0.284464
    21  H   -0.123389   0.273965
    22  H    0.176427   0.000151
    23  H   -0.107288   0.279049
    24  H   -0.249546   0.406040
    25  H   -0.237421   0.402570
    26  H   -0.472402   0.638495
    27  H   -0.454963   0.606518
    28  H   -0.013185   0.170203
    29  H    0.203165  -0.003781
    30  H    0.184902   0.008538
    31  H    0.061761   0.124141
    32  H    0.355020  -0.076794
    33  H   -0.440985   0.626843
    34  H    0.203379  -0.029765
    35  H    0.013379   0.193851
    36  H   -0.168318   0.385905
 Sum of Mulliken charges =  -1.00000   1.00000

 Dipole moment (field-independent basis, Debye):
    X=              4.2728    Y=             -3.1098    Z=              2.2501  Tot=              5.7437
 Quadrupole moment (field-independent basis, Debye-Ang):
   XX=           -231.6027   YY=           -162.4582   ZZ=           -145.2193
   XY=             14.3407   XZ=             -2.1242   YZ=              2.9409

 Summary of Natural Population Analysis:

                                       Natural Population
                Natural  -----------------------------------------------
    Atom  No    Charge         Core      Valence    Rydberg      Total
 -----------------------------------------------------------------------
      C    1   -0.28750      0.99967     2.28325    0.00458     3.28750
      C    2   -0.19108      0.99961     2.18329    0.00818     3.19108
      C    3   -0.00134      0.99958     1.98919    0.01258     3.00134
      C    4   -0.29342      0.99965     2.28774    0.00603     3.29342
      N    5   -0.10472      0.99965     2.59020    0.01488     3.60472
      C    6   -0.00263      0.99955     1.99201    0.01107     3.00263
      C    7   -0.15523      0.99951     2.14667    0.00905     3.15523
      C    8    0.06219      0.99958     1.92215    0.01609     2.93781
      N    9   -0.15811      0.99970     2.64824    0.01017     3.65811
      C   10   -0.19816      0.99955     2.18754    0.01107     3.19816
      C   11   -0.12773      0.99946     2.11502    0.01325     3.12773
      C   12   -0.19066      0.99958     2.18049    0.01059     3.19066
      C   13   -0.19715      0.99962     2.18764    0.00989     3.19715
      C   14   -0.24051      0.99960     2.23112    0.00979     3.24051
      S   15    0.10630      4.99961     2.87835    0.01574     7.89370
      C   16    0.15298      0.99959     1.82487    0.02256     2.84702
      N   17   -0.18282      0.99979     2.67207    0.01096     3.68282
      H   18    0.10048      0.00000     0.39829    0.00123     0.39952
      H   19    0.10078      0.00000     0.39835    0.00087     0.39922
      H   20    0.09706      0.00000     0.40187    0.00107     0.40294
      H   21    0.09648      0.00000     0.40231    0.00120     0.40352
      H   22    0.10243      0.00000     0.39640    0.00117     0.39757
      H   23    0.10392      0.00000     0.39385    0.00223     0.39608
      H   24    0.10006      0.00000     0.39791    0.00203     0.39994
      H   25    0.10866      0.00000     0.38946    0.00188     0.39134
      H   26    0.10862      0.00000     0.38997    0.00141     0.39138
      H   27    0.10896      0.00000     0.38969    0.00135     0.39104
      H   28    0.11169      0.00000     0.38739    0.00092     0.38831
      H   29    0.10851      0.00000     0.39056    0.00092     0.39149
      H   30    0.11426      0.00000     0.38458    0.00117     0.38574
      H   31    0.10888      0.00000     0.38986    0.00126     0.39112
      H   32    0.11708      0.00000     0.38118    0.00173     0.38292
      H   33    0.10983      0.00000     0.38889    0.00128     0.39017
      H   34    0.09991      0.00000     0.39872    0.00137     0.40009
      H   35    0.10504      0.00000     0.39293    0.00203     0.39496
      H   36    0.10694      0.00000     0.39176    0.00129     0.39306
 =======================================================================
   * Total *   -0.00000     20.99328    45.78382    0.22290    67.00000

 Normal termination of Gaussian 16 at Fri Dec 11 13:13:08 2020.
