 Gaussian 16, Revision A.03,

 -----------------------------------------------------------
 # opt freq B3LYP/6-31G(d) empiricaldispersion=gd3bj scf=xqc
 -----------------------------------------------------------

 -----------------------------
 CID_4059531_JID_6742_neutraal
 -----------------------------
 Symbolic Z-matrix:
 Charge =  0 Multiplicity = 1

 SCF Done:  E(RB3LYP) =  -1033.85502332     A.U. after   15 cycles
 SCF Done:  E(RB3LYP) =  -1033.86120901     A.U. after   13 cycles
 SCF Done:  E(RB3LYP) =  -1033.86290322     A.U. after   13 cycles
 SCF Done:  E(RB3LYP) =  -1033.86414911     A.U. after   13 cycles
 SCF Done:  E(RB3LYP) =  -1033.86521451     A.U. after   13 cycles
 SCF Done:  E(RB3LYP) =  -1033.86695594     A.U. after   14 cycles
 SCF Done:  E(RB3LYP) =  -1033.86802102     A.U. after   13 cycles
 SCF Done:  E(RB3LYP) =  -1033.86855846     A.U. after   12 cycles
 SCF Done:  E(RB3LYP) =  -1033.86867532     A.U. after   12 cycles
 SCF Done:  E(RB3LYP) =  -1033.86870149     A.U. after   12 cycles
 SCF Done:  E(RB3LYP) =  -1033.86874257     A.U. after   11 cycles
 SCF Done:  E(RB3LYP) =  -1033.86874638     A.U. after   10 cycles
 SCF Done:  E(RB3LYP) =  -1033.86874680     A.U. after    8 cycles
 SCF Done:  E(RB3LYP) =  -1033.86874695     A.U. after    8 cycles
 Optimization completed.
    -- Stationary point found.
 Normal termination of Gaussian 16 at Thu Dec 10 23:10:35 2020.

 --------------------------------------------------------------------
 #N Geom=AllCheck Guess=TCheck SCRF=Check GenChk RB3LYP/6-31G(d) Freq
 --------------------------------------------------------------------

 Structure from the checkpoint file:  "JID_6742.chk"
 -----------------------------
 CID_4059531_JID_6742_neutraal
 -----------------------------
 Charge =  0 Multiplicity = 1

 SCF Done:  E(RB3LYP) =  -1033.86874695     A.U. after    1 cycles

  Exact polarizability: 227.310  11.654 159.825  13.768  -1.852  98.770
 Approx polarizability: 307.465  20.114 286.155  27.102  -3.998 147.194

                      1                      2                      3
                      A                      A                      A
 Frequencies --     28.7614                41.7892                48.1379
 Red. masses --      4.6066                 3.5692                 3.8324
 Frc consts  --      0.0022                 0.0037                 0.0052
 IR Inten    --      0.4013                 0.1430                 0.4563

                      4                      5                      6
                      A                      A                      A
 Frequencies --     79.7808               111.2936               140.2767
 Red. masses --      2.9879                 4.0709                 4.5945
 Frc consts  --      0.0112                 0.0297                 0.0533
 IR Inten    --      0.1151                 1.3409                 0.3875

                      7                      8                      9
                      A                      A                      A
 Frequencies --    163.7079               194.5009               199.5107
 Red. masses --      1.6525                 3.5033                 2.4037
 Frc consts  --      0.0261                 0.0781                 0.0564
 IR Inten    --      0.1916                 1.0017                 0.2916

                     10                     11                     12
                      A                      A                      A
 Frequencies --    225.6312               243.9452               273.6540
 Red. masses --      4.1083                 1.1854                 1.4444
 Frc consts  --      0.1232                 0.0416                 0.0637
 IR Inten    --      3.7436                 0.7163                 0.0564

                     13                     14                     15
                      A                      A                      A
 Frequencies --    318.4650               346.3574               379.4055
 Red. masses --      5.0342                 2.5695                 4.0164
 Frc consts  --      0.3008                 0.1816                 0.3406
 IR Inten    --      0.5823                 1.3658                 0.5452

                     16                     17                     18
                      A                      A                      A
 Frequencies --    397.3151               423.6480               438.6633
 Red. masses --      3.6420                 2.3816                 3.4218
 Frc consts  --      0.3387                 0.2518                 0.3879
 IR Inten    --      2.6725                 1.7849                 4.8729

                     19                     20                     21
                      A                      A                      A
 Frequencies --    458.7740               507.2427               516.1086
 Red. masses --      3.7143                 4.5468                 6.1525
 Frc consts  --      0.4606                 0.6893                 0.9656
 IR Inten    --      2.7067                 4.3919                 1.7081

                     22                     23                     24
                      A                      A                      A
 Frequencies --    559.3298               573.3082               618.7814
 Red. masses --      4.5168                 3.6159                 9.0826
 Frc consts  --      0.8326                 0.7002                 2.0490
 IR Inten    --      1.4746                 5.3879                 2.8958

                     25                     26                     27
                      A                      A                      A
 Frequencies --    651.8372               715.5762               732.8395
 Red. masses --      7.8880                 6.7540                 3.1058
 Frc consts  --      1.9747                 2.0376                 0.9828
 IR Inten    --     11.1599                 4.9785                 6.5563

                     28                     29                     30
                      A                      A                      A
 Frequencies --    739.0563               765.9043               768.2836
 Red. masses --      1.3788                 1.4802                 6.3832
 Frc consts  --      0.4437                 0.5116                 2.2199
 IR Inten    --      6.7599                45.2863                 9.6365

                     31                     32                     33
                      A                      A                      A
 Frequencies --    811.0316               830.7818               866.1979
 Red. masses --      1.7255                 2.6555                 1.3550
 Frc consts  --      0.6687                 1.0798                 0.5990
 IR Inten    --     10.9242                 2.3909                 0.5081

                     34                     35                     36
                      A                      A                      A
 Frequencies --    884.4742               920.2527               928.3856
 Red. masses --      1.7929                 4.9363                 1.7970
 Frc consts  --      0.8264                 2.4630                 0.9125
 IR Inten    --     21.7709                10.3931                10.3484

                     37                     38                     39
                      A                      A                      A
 Frequencies --    934.6754               941.6260               976.8430
 Red. masses --      1.3530                 1.7509                 1.2458
 Frc consts  --      0.6964                 0.9147                 0.7004
 IR Inten    --      1.7373                 5.4237                 0.0044

                     40                     41                     42
                      A                      A                      A
 Frequencies --    991.5289              1043.3933              1051.1149
 Red. masses --      1.7271                 1.9119                 2.2109
 Frc consts  --      1.0004                 1.2263                 1.4392
 IR Inten    --      5.2573                26.8594                14.9109

                     43                     44                     45
                      A                      A                      A
 Frequencies --   1053.7559              1083.4622              1101.2013
 Red. masses --      1.3833                 4.2549                 2.0917
 Frc consts  --      0.9050                 2.9428                 1.4944
 IR Inten    --      4.4908                25.0151                21.6020

                     46                     47                     48
                      A                      A                      A
 Frequencies --   1152.7979              1154.8620              1173.4856
 Red. masses --      1.8988                 1.4741                 2.1643
 Frc consts  --      1.4867                 1.1584                 1.7560
 IR Inten    --    104.6379                 0.8461                 1.8465

                     49                     50                     51
                      A                      A                      A
 Frequencies --   1178.3255              1193.0730              1254.8611
 Red. masses --      1.9993                 1.1443                 5.0135
 Frc consts  --      1.6355                 0.9597                 4.6514
 IR Inten    --      7.2756                 6.7652               519.7844

                     52                     53                     54
                      A                      A                      A
 Frequencies --   1263.9190              1281.7930              1289.2405
 Red. masses --      1.4347                 2.2221                 1.4618
 Frc consts  --      1.3504                 2.1511                 1.4316
 IR Inten    --     24.8654                47.8514                 2.9181

                     55                     56                     57
                      A                      A                      A
 Frequencies --   1322.8744              1334.1664              1366.1123
 Red. masses --      1.9988                 1.2203                 4.5370
 Frc consts  --      2.0609                 1.2798                 4.9888
 IR Inten    --      0.6850                 5.0917                 5.8725

                     58                     59                     60
                      A                      A                      A
 Frequencies --   1369.7434              1396.2650              1403.0322
 Red. masses --      1.3921                 1.4184                 1.3172
 Frc consts  --      1.5388                 1.6293                 1.5277
 IR Inten    --      6.3876                 4.9833                 5.0530

                     61                     62                     63
                      A                      A                      A
 Frequencies --   1414.4520              1429.3857              1440.3872
 Red. masses --      1.3353                 1.3977                 1.3000
 Frc consts  --      1.5740                 1.6825                 1.5890
 IR Inten    --     13.1949                10.5784                22.2264

                     64                     65                     66
                      A                      A                      A
 Frequencies --   1445.9718              1490.7044              1507.1038
 Red. masses --      1.2601                 2.5403                 2.2725
 Frc consts  --      1.5523                 3.3260                 3.0412
 IR Inten    --     12.2534                63.7873                14.6253

                     67                     68                     69
                      A                      A                      A
 Frequencies --   1509.5633              1521.1223              1526.0180
 Red. masses --      1.1204                 1.0576                 1.0581
 Frc consts  --      1.5043                 1.4418                 1.4518
 IR Inten    --      8.4846                 7.0543                 5.4333

                     70                     71                     72
                      A                      A                      A
 Frequencies --   1529.5399              1534.7038              1540.0482
 Red. masses --      1.0728                 1.0591                 1.0732
 Frc consts  --      1.4787                 1.4698                 1.4997
 IR Inten    --      2.7409                 4.4281                 6.2402

                     73                     74                     75
                      A                      A                      A
 Frequencies --   1547.2524              1609.9147              1623.6112
 Red. masses --      1.0749                 7.4712                 5.6030
 Frc consts  --      1.5162                11.4090                 8.7023
 IR Inten    --      0.8514               393.7439                20.5908

                     76                     77                     78
                      A                      A                      A
 Frequencies --   1666.9463              3034.4269              3037.8318
 Red. masses --      6.9832                 1.0632                 1.0640
 Frc consts  --     11.4327                 5.7677                 5.7853
 IR Inten    --     82.7592                20.5974                21.3871

                     79                     80                     81
                      A                      A                      A
 Frequencies --   3046.5630              3061.8781              3065.6519
 Red. masses --      1.0372                 1.0751                 1.0930
 Frc consts  --      5.6721                 5.9386                 6.0521
 IR Inten    --     18.5911                 1.2143                34.3294

                     82                     83                     84
                      A                      A                      A
 Frequencies --   3069.2854              3080.2195              3098.6136
 Red. masses --      1.0415                 1.0916                 1.0860
 Frc consts  --      5.7810                 6.1020                 6.1434
 IR Inten    --     12.9974                70.8812                24.0783

                     85                     86                     87
                      A                      A                      A
 Frequencies --   3111.5839              3117.3432              3131.5288
 Red. masses --      1.1017                 1.1016                 1.0983
 Frc consts  --      6.2843                 6.3074                 6.3455
 IR Inten    --     48.5640                58.4341                18.5983

                     88                     89                     90
                      A                      A                      A
 Frequencies --   3131.8998              3170.9071              3190.0636
 Red. masses --      1.1011                 1.1010                 1.0855
 Frc consts  --      6.3634                 6.5223                 6.5086
 IR Inten    --     23.1045                11.8758                 1.1186

                     91                     92                     93
                      A                      A                      A
 Frequencies --   3201.5524              3212.3597              3219.5876
 Red. masses --      1.0896                 1.0941                 1.0962
 Frc consts  --      6.5802                 6.6518                 6.6946
 IR Inten    --     10.3901                24.5971                14.4149

 - Thermochemistry -
 -------------------
 Temperature   298.150 Kelvin.  Pressure   1.00000 Atm.
 Atom     1 has atomic number  6 and mass  12.00000

 Molecular mass:   235.10309 amu.
 Principal axes and moments of inertia in atomic units:
                           1         2         3
     Eigenvalues --  1569.294948361.239909071.59970
           X            1.00000   0.00133  -0.00278
           Y           -0.00138   0.99986  -0.01668
           Z            0.00276   0.01668   0.99986
 This molecule is an asymmetric top.
 Rotational symmetry number  1.
 Warning -- assumption of classical behavior for rotation
           may cause significant error
 Rotational temperatures (Kelvin)      0.05519     0.01036     0.00955
 Rotational constants (GHZ):           1.15003     0.21585     0.19894
 Zero-point vibrational energy     732911.2 (Joules/Mol)
                                  175.16998 (Kcal/Mol)
 Warning -- explicit consideration of  24 degrees of freedom as
           vibrations may cause significant error
 Vibrational temperatures:     41.38    60.13    69.26   114.79   160.13
          (Kelvin)            201.83   235.54   279.84   287.05   324.63
                              350.98   393.73   458.20   498.33   545.88
                              571.65   609.54   631.14   660.07   729.81
                              742.57   804.75   824.86   890.29   937.85
                             1029.55  1054.39  1063.34  1101.97  1105.39
                             1166.89  1195.31  1246.27  1272.56  1324.04
                             1335.74  1344.79  1354.79  1405.46  1426.59
                             1501.21  1512.32  1516.12  1558.86  1584.38
                             1658.62  1661.59  1688.38  1695.35  1716.57
                             1805.47  1818.50  1844.21  1854.93  1903.32
                             1919.57  1965.53  1970.76  2008.91  2018.65
                             2035.08  2056.57  2072.40  2080.43  2144.79
                             2168.39  2171.92  2188.56  2195.60  2200.67
                             2208.10  2215.79  2226.15  2316.31  2336.01
                             2398.36  4365.86  4370.76  4383.32  4405.36
                             4410.79  4416.02  4431.75  4458.21  4476.88
                             4485.16  4505.57  4506.11  4562.23  4589.79
                             4606.32  4621.87  4632.27

 Zero-point correction=                           0.279151 (Hartree/Particle)
 Thermal correction to Energy=                    0.294649
 Thermal correction to Enthalpy=                  0.295593
 Thermal correction to Gibbs Free Energy=         0.235167
 Sum of electronic and zero-point Energies=          -1033.589596
 Sum of electronic and thermal Energies=             -1033.574098
 Sum of electronic and thermal Enthalpies=           -1033.573154
 Sum of electronic and thermal Free Energies=        -1033.633580

                     E (Thermal)             CV                S
                      KCal/Mol        Cal/Mol-Kelvin    Cal/Mol-Kelvin
 Total                  184.895             59.376            127.178
 Electronic               0.000              0.000              0.000
 Translational            0.889              2.981             42.266
 Rotational               0.889              2.981             33.142
 Vibrational            183.118             53.415             51.769
 Vibration     1          0.593              1.984              5.913
 Vibration     2          0.594              1.980              5.172
 Vibration     3          0.595              1.978              4.892
 Vibration     4          0.600              1.963              3.896
 Vibration     5          0.607              1.940              3.246
 Vibration     6          0.615              1.913              2.800
 Vibration     7          0.623              1.887              2.507
 Vibration     8          0.635              1.848              2.185
 Vibration     9          0.638              1.841              2.138
 Vibration    10          0.650              1.802              1.913
 Vibration    11          0.659              1.773              1.774
 Vibration    12          0.676              1.722              1.573
 Vibration    13          0.705              1.638              1.318
 Vibration    14          0.724              1.583              1.183
 Vibration    15          0.749              1.514              1.042
 Vibration    16          0.764              1.476              0.973
 Vibration    17          0.786              1.419              0.880
 Vibration    18          0.799              1.386              0.831
 Vibration    19          0.817              1.341              0.770
 Vibration    20          0.862              1.234              0.640
 Vibration    21          0.871              1.214              0.619
 Vibration    22          0.915              1.119              0.525
 Vibration    23          0.930              1.089              0.498
 Vibration    24          0.979              0.992              0.418

 Optimization completed.
    -- Stationary point found.
 Normal termination of Gaussian 16 at Thu Dec 10 23:21:15 2020.

 ----------------------------------------------------------------------
 # B3LYP/6-311++G(d,p) empiricaldispersion=gd3bj scf=xqc pop=npa geom=c
 heck
 ----------------------------------------------------------------------

 -------------------------------------
 CID_4059531_JID_6742_Energie_neutraal
 -------------------------------------
 Structure from the checkpoint file:  "JID_6742.chk"
 Charge =  0 Multiplicity = 1

 SCF Done:  E(RB3LYP) =  -1034.06290557     A.U. after   16 cycles
 Normal termination of Gaussian 16 at Thu Dec 10 23:27:16 2020.

 ----------------------------------------------------------------------
 # B3LYP/6-311++G(d,p) empiricaldispersion=gd3bj scf=xqc pop=npa geom=c
 heck
 ----------------------------------------------------------------------

 -----------------------------------
 CID_4059531_JID_6742_Energie_kation
 -----------------------------------
 Structure from the checkpoint file:  "JID_6742.chk"
 Charge =  1 Multiplicity = 2

 SCF Done:  E(UB3LYP) =  -1033.77005684     A.U. after   28 cycles
 Normal termination of Gaussian 16 at Thu Dec 10 23:42:10 2020.
 Gaussian 16:  ES64L-G16RevA.03 25-Dec-2016

 ----------------------------------------------------------------------
 # B3LYP/6-311++G(d,p) empiricaldispersion=gd3bj scf=xqc pop=npa geom=c
 heck
 ----------------------------------------------------------------------

 ----------------------------------
 CID_4059531_JID_6742_Energie_anion
 ----------------------------------
 Structure from the checkpoint file:  "JID_6742.chk"
 Charge = -1 Multiplicity = 2

                         Standard orientation:
 ---------------------------------------------------------------------
 Center     Atomic      Atomic             Coordinates (Angstroms)
 Number     Number       Type             X           Y           Z
 ---------------------------------------------------------------------
      1          6           0       -5.174567   -0.570793    1.231343
      2          6           0       -4.911588    0.509777    0.178341
      3          6           0       -3.643075    1.338156    0.437988
      4          6           0       -2.333118    0.538336    0.533941
      5          6           0       -2.043302   -0.316041   -0.701020
      6          6           0       -1.861751    0.459857   -1.999556
      7          8           0       -0.906247   -1.211358   -0.450938
      8          6           0        0.309950   -0.716070   -0.262294
      9          7           0        0.685136    0.520104   -0.266281
     10          6           0        2.052678    0.615093   -0.029078
     11          6           0        2.776456    1.809859    0.031553
     12          6           0        4.145998    1.761309    0.277524
     13          6           0        4.801962    0.536336    0.463678
     14          6           0        4.097643   -0.666261    0.407013
     15          6           0        2.727837   -0.615887    0.160903
     16         16           0        1.575092   -1.941803    0.031821
     17          1           0       -4.389040   -1.334787    1.236533
     18          1           0       -6.126814   -1.079414    1.045649
     19          1           0       -5.217750   -0.135971    2.237484
     20          1           0       -4.861795    0.046189   -0.816476
     21          1           0       -5.768023    1.195284    0.142625
     22          1           0       -3.547396    2.102062   -0.344110
     23          1           0       -3.767270    1.886788    1.381111
     24          1           0       -1.499028    1.227403    0.689310
     25          1           0       -2.364691   -0.129226    1.403182
     26          1           0       -2.844173   -1.048148   -0.832260
     27          1           0       -1.105864    1.239585   -1.891909
     28          1           0       -1.561690   -0.217434   -2.805282
     29          1           0       -2.813144    0.921782   -2.282899
     30          1           0        2.257931    2.751968   -0.114067
     31          1           0        4.713966    2.685742    0.325810
     32          1           0        5.870867    0.519769    0.654418
     33          1           0        4.605722   -1.614637    0.551202
 ---------------------------------------------------------------------

 SCF Done:  E(UB3LYP) =  -1034.04850920     A.U. after   33 cycles
 SCF Done:  E(UB3LYP) =  -1034.04926176     a.u. after    8 cycles

 The electronic state is 2-A.
 Alpha  occ. eigenvalues --  -88.78984 -19.08576 -14.22142 -10.20685 -10.15204
 Alpha  occ. eigenvalues --  -10.12325 -10.12059 -10.09476 -10.08799 -10.08730
 Alpha  occ. eigenvalues --  -10.08616 -10.07909 -10.07836 -10.07605 -10.07597
 Alpha  occ. eigenvalues --  -10.06962  -7.87603  -5.83909  -5.83591  -5.83108
 Alpha  occ. eigenvalues --   -1.00905  -0.87189  -0.76405  -0.73397  -0.71232
 Alpha  occ. eigenvalues --   -0.68550  -0.65703  -0.63855  -0.62641  -0.58282
 Alpha  occ. eigenvalues --   -0.55242  -0.52347  -0.51149  -0.48782  -0.45810
 Alpha  occ. eigenvalues --   -0.43466  -0.41200  -0.40201  -0.38523  -0.38024
 Alpha  occ. eigenvalues --   -0.36831  -0.35780  -0.35278  -0.34046  -0.33639
 Alpha  occ. eigenvalues --   -0.32006  -0.31117  -0.30602  -0.30206  -0.29502
 Alpha  occ. eigenvalues --   -0.29166  -0.27738  -0.26675  -0.25886  -0.25451
 Alpha  occ. eigenvalues --   -0.24052  -0.23991  -0.23275  -0.21992  -0.21649
 Alpha  occ. eigenvalues --   -0.19550  -0.15026  -0.13934   0.04029
 Alpha virt. eigenvalues --    0.05073   0.06073   0.06772   0.06819   0.07075
 Alpha virt. eigenvalues --    0.07183   0.07662   0.08090   0.09344   0.09660
 Alpha virt. eigenvalues --    0.09985   0.10342   0.10778   0.10983   0.11336

  Beta  occ. eigenvalues --  -88.78976 -19.08571 -14.22148 -10.20628 -10.15197
  Beta  occ. eigenvalues --  -10.12309 -10.12051 -10.09452 -10.08790 -10.08713
  Beta  occ. eigenvalues --  -10.08583 -10.07894 -10.07832 -10.07586 -10.07570
  Beta  occ. eigenvalues --  -10.06934  -7.87596  -5.83891  -5.83587  -5.83100
  Beta  occ. eigenvalues --   -1.00877  -0.87158  -0.76363  -0.73370  -0.71191
  Beta  occ. eigenvalues --   -0.68512  -0.65645  -0.63803  -0.62604  -0.58241
  Beta  occ. eigenvalues --   -0.55191  -0.52285  -0.51101  -0.48715  -0.45760
  Beta  occ. eigenvalues --   -0.43432  -0.41161  -0.40142  -0.38476  -0.37949
  Beta  occ. eigenvalues --   -0.36794  -0.35736  -0.35232  -0.34007  -0.33581
  Beta  occ. eigenvalues --   -0.31968  -0.31063  -0.30568  -0.30174  -0.29473
  Beta  occ. eigenvalues --   -0.29119  -0.27695  -0.26620  -0.25854  -0.25396
  Beta  occ. eigenvalues --   -0.24017  -0.23946  -0.23242  -0.21948  -0.21605
  Beta  occ. eigenvalues --   -0.19541  -0.14960  -0.13832
  Beta virt. eigenvalues --    0.05999   0.06151   0.06357   0.06909   0.07360
  Beta virt. eigenvalues --    0.07466   0.07571   0.08083   0.08549   0.09621
  Beta virt. eigenvalues --    0.10032   0.10269   0.10583   0.10876   0.11329

 Mulliken charges and spin densities:
               1          2
     1  C    0.758073  -1.399796
     2  C   -0.592633   0.480547
     3  C    0.202984  -0.537778
     4  C    0.817232  -0.823078
     5  C   -1.377532   0.919429
     6  C    0.438808  -0.844381
     7  O    0.044707  -0.001847
     8  C    0.416892  -0.260228
     9  N    0.339639  -0.027006
    10  C   -0.954294  -0.152092
    11  C   -1.309613   1.196950
    12  C    0.253535  -0.497079
    13  C    1.307025  -1.548539
    14  C   -0.364833   0.298992
    15  C    1.707316  -0.853210
    16  S   -0.339445  -0.112451
    17  H    0.002717   0.142917
    18  H   -0.417269   0.564470
    19  H    0.035067   0.100237
    20  H   -0.064321   0.185829
    21  H   -0.698960   0.881209
    22  H    0.003435   0.150732
    23  H   -0.086441   0.252369
    24  H    0.171917   0.019419
    25  H    0.133789   0.031644
    26  H   -0.038954   0.279299
    27  H    0.023412   0.169599
    28  H    0.049945   0.083769
    29  H   -0.109917   0.281301
    30  H   -0.067594   0.222327
    31  H   -0.275632   0.447685
    32  H   -0.432369   0.596769
    33  H   -0.576685   0.751991
 Sum of Mulliken charges =  -1.00000   1.00000

 Dipole moment (field-independent basis, Debye):
    X=              1.8862    Y=             -1.7238    Z=             -0.5389  Tot=              2.6115
 Quadrupole moment (field-independent basis, Debye-Ang):
   XX=           -255.1244   YY=           -140.8804   ZZ=           -133.3768
   XY=              2.5442   XZ=             -2.1257   YZ=              0.6195

 Summary of Natural Population Analysis:

                                       Natural Population
                Natural  -----------------------------------------------
    Atom  No    Charge         Core      Valence    Rydberg      Total
 -----------------------------------------------------------------------
      C    1   -0.28824      0.99967     2.28228    0.00629     3.28824
      C    2   -0.19354      0.99964     2.18525    0.00865     3.19354
      C    3   -0.18890      0.99963     2.18026    0.00901     3.18890
      C    4   -0.20895      0.99960     2.20169    0.00767     3.20895
      C    5    0.06926      0.99952     1.91762    0.01359     2.93074
      C    6   -0.30566      0.99964     2.30043    0.00559     3.30566
      O    7   -0.27569      0.99984     3.26617    0.00969     4.27569
      C    8    0.23343      0.99955     1.74383    0.02319     2.76657
      N    9   -0.28112      0.99960     2.77159    0.00992     3.78112
      C   10    0.06355      0.99943     1.92446    0.01256     2.93645
      C   11   -0.09868      0.99952     2.09041    0.00876     3.09868
      C   12   -0.10495      0.99957     2.09469    0.01068     3.10495
      C   13   -0.10128      0.99957     2.09151    0.01020     3.10128
      C   14   -0.10685      0.99950     2.09594    0.01141     3.10685
      C   15   -0.10339      0.99939     2.09264    0.01135     3.10339
      S   16    0.16549      4.99944     2.81662    0.01845     7.83451
      H   17    0.09410      0.00000     0.40491    0.00099     0.40590
      H   18    0.10174      0.00000     0.39714    0.00113     0.39826
      H   19    0.09589      0.00000     0.40317    0.00094     0.40411
      H   20    0.09208      0.00000     0.40647    0.00145     0.40792
      H   21    0.10003      0.00000     0.39795    0.00202     0.39997
      H   22    0.09853      0.00000     0.40030    0.00117     0.40147
      H   23    0.09820      0.00000     0.40085    0.00095     0.40180
      H   24    0.11258      0.00000     0.38572    0.00170     0.38742
      H   25    0.10021      0.00000     0.39858    0.00121     0.39979
      H   26    0.09394      0.00000     0.40434    0.00172     0.40606
      H   27    0.11225      0.00000     0.38631    0.00144     0.38775
      H   28    0.10316      0.00000     0.39600    0.00084     0.39684
      H   29    0.10606      0.00000     0.39303    0.00091     0.39394
      H   30    0.10580      0.00000     0.39278    0.00142     0.39420
      H   31    0.10186      0.00000     0.39708    0.00106     0.39814
      H   32    0.10334      0.00000     0.39481    0.00185     0.39666
      H   33    0.10575      0.00000     0.39264    0.00161     0.39425
 =======================================================================
   * Total *   -0.00000     19.99310    42.80748    0.19942    63.00000

 Normal termination of Gaussian 16 at Fri Dec 11 02:10:34 2020.
