 Gaussian 16, Revision A.03,

 -----------------------------------------------------------
 # opt freq B3LYP/6-31G(d) empiricaldispersion=gd3bj scf=xqc
 -----------------------------------------------------------

 ------------------------------
 CID_89028705_JID_3764_neutraal
 ------------------------------
 Symbolic Z-matrix:
 Charge =  0 Multiplicity = 1

 SCF Done:  E(RB3LYP) =  -597.703372934     A.U. after   15 cycles
 SCF Done:  E(RB3LYP) =  -597.704886869     A.U. after   13 cycles
 SCF Done:  E(RB3LYP) =  -597.700919650     A.U. after   14 cycles
 SCF Done:  E(RB3LYP) =  -597.706804528     A.U. after   13 cycles
 SCF Done:  E(RB3LYP) =  -597.708594385     A.U. after   13 cycles
 SCF Done:  E(RB3LYP) =  -597.709967016     A.U. after   13 cycles
 SCF Done:  E(RB3LYP) =  -597.710106830     A.U. after   12 cycles
 SCF Done:  E(RB3LYP) =  -597.710055693     A.U. after   13 cycles
 SCF Done:  E(RB3LYP) =  -597.710347605     A.U. after   11 cycles
 SCF Done:  E(RB3LYP) =  -597.710414193     A.U. after   11 cycles
 SCF Done:  E(RB3LYP) =  -597.710453786     A.U. after    9 cycles
 SCF Done:  E(RB3LYP) =  -597.710454345     A.U. after    8 cycles
 SCF Done:  E(RB3LYP) =  -597.710454486     A.U. after    7 cycles
 SCF Done:  E(RB3LYP) =  -597.710454514     A.U. after    6 cycles
 SCF Done:  E(RB3LYP) =  -597.710454540     A.U. after    6 cycles
 Optimization completed.
    -- Stationary point found.
 Normal termination of Gaussian 16 at Mon Dec 14 13:13:24 2020.

 --------------------------------------------------------------------
 #N Geom=AllCheck Guess=TCheck SCRF=Check GenChk RB3LYP/6-31G(d) Freq
 --------------------------------------------------------------------

 Structure from the checkpoint file:  "JID_3764.chk"
 ------------------------------
 CID_89028705_JID_3764_neutraal
 ------------------------------
 Charge =  0 Multiplicity = 1

 SCF Done:  E(RB3LYP) =  -597.710454540     A.U. after    1 cycles

  Exact polarizability: 125.759   1.568 119.447   4.425  -3.035 104.633
 Approx polarizability: 154.956   1.991 165.636  10.665 -15.644 172.800

                      1                      2                      3
                      A                      A                      A
 Frequencies --     36.6577                46.5341                60.5311
 Red. masses --      2.7823                 3.1728                 3.1403
 Frc consts  --      0.0022                 0.0040                 0.0068
 IR Inten    --      0.3363                 0.5813                 1.3861

                      4                      5                      6
                      A                      A                      A
 Frequencies --     74.1535                98.8336               133.4801
 Red. masses --      4.3128                 2.7720                 3.3024
 Frc consts  --      0.0140                 0.0160                 0.0347
 IR Inten    --      4.4849                 4.3450                 1.5562

                      7                      8                      9
                      A                      A                      A
 Frequencies --    140.5179               171.4597               191.0939
 Red. masses --      1.9372                 1.2079                 1.7488
 Frc consts  --      0.0225                 0.0209                 0.0376
 IR Inten    --      0.6850                 0.4316                 0.2467

                     10                     11                     12
                      A                      A                      A
 Frequencies --    192.7707               226.0889               254.5637
 Red. masses --      2.2595                 2.3877                 1.3161
 Frc consts  --      0.0495                 0.0719                 0.0502
 IR Inten    --      1.1317                 2.9277                 0.6330

                     13                     14                     15
                      A                      A                      A
 Frequencies --    274.3097               281.3992               313.0321
 Red. masses --      1.4318                 2.1099                 2.8742
 Frc consts  --      0.0635                 0.0984                 0.1659
 IR Inten    --      0.1744                 1.4451                 2.3196

                     16                     17                     18
                      A                      A                      A
 Frequencies --    355.5863               375.8651               416.2775
 Red. masses --      2.4522                 2.1212                 2.3603
 Frc consts  --      0.1827                 0.1766                 0.2410
 IR Inten    --      2.5512                 6.5852                 4.0732

                     19                     20                     21
                      A                      A                      A
 Frequencies --    443.4101               460.6518               484.6633
 Red. masses --      2.3653                 2.7991                 2.3093
 Frc consts  --      0.2740                 0.3500                 0.3196
 IR Inten    --      1.0632                 2.3071                 2.6026

                     22                     23                     24
                      A                      A                      A
 Frequencies --    518.5772               537.7039               595.5011
 Red. masses --      2.7745                 2.5767                 2.7806
 Frc consts  --      0.4396                 0.4389                 0.5810
 IR Inten    --     15.4292                 6.3568                 3.7955

                     25                     26                     27
                      A                      A                      A
 Frequencies --    701.6500               745.9468               761.2258
 Red. masses --      3.4187                 1.1962                 2.9170
 Frc consts  --      0.9916                 0.3922                 0.9959
 IR Inten    --      0.2036                 0.1659                 6.3208

                     28                     29                     30
                      A                      A                      A
 Frequencies --    810.5639               856.5810               867.0055
 Red. masses --      3.5868                 1.4570                 2.5021
 Frc consts  --      1.3884                 0.6298                 1.1081
 IR Inten    --      7.7780                56.3745                35.8216

                     31                     32                     33
                      A                      A                      A
 Frequencies --    896.1255               919.2047               965.5821
 Red. masses --      2.1701                 2.3912                 1.8163
 Frc consts  --      1.0268                 1.1904                 0.9977
 IR Inten    --      5.2620                 4.6239                13.3384

                     34                     35                     36
                      A                      A                      A
 Frequencies --    993.1837               999.2413              1032.1574
 Red. masses --      1.7837                 2.3433                 1.7767
 Frc consts  --      1.0367                 1.3786                 1.1152
 IR Inten    --     17.3578                 6.7444                 6.2284

                     37                     38                     39
                      A                      A                      A
 Frequencies --   1065.8547              1068.3340              1076.1709
 Red. masses --      1.8256                 2.2534                 1.6556
 Frc consts  --      1.2220                 1.5153                 1.1297
 IR Inten    --      7.5096                56.3958                13.1024

                     40                     41                     42
                      A                      A                      A
 Frequencies --   1090.2481              1116.6996              1124.3476
 Red. masses --      1.4875                 2.3606                 2.2067
 Frc consts  --      1.0418                 1.7344                 1.6436
 IR Inten    --      1.5502                83.6504                 1.6701

                     43                     44                     45
                      A                      A                      A
 Frequencies --   1137.6530              1201.9211              1209.5593
 Red. masses --      1.3030                 1.5536                 2.1151
 Frc consts  --      0.9936                 1.3223                 1.8232
 IR Inten    --     10.8642                 6.9681                70.0188

                     46                     47                     48
                      A                      A                      A
 Frequencies --   1235.9570              1277.2534              1291.7580
 Red. masses --      2.2107                 1.3867                 1.4576
 Frc consts  --      1.9897                 1.3329                 1.4331
 IR Inten    --     24.6823                20.2590                39.8108

                     49                     50                     51
                      A                      A                      A
 Frequencies --   1315.1432              1318.0511              1351.4441
 Red. masses --      2.7245                 2.2468                 1.4037
 Frc consts  --      2.7764                 2.2997                 1.5105
 IR Inten    --    141.2010                 4.7988                40.1332

                     52                     53                     54
                      A                      A                      A
 Frequencies --   1395.5706              1411.2742              1432.1505
 Red. masses --      1.2943                 1.4322                 1.1871
 Frc consts  --      1.4852                 1.6806                 1.4346
 IR Inten    --     10.9167                45.9351                10.3923

                     55                     56                     57
                      A                      A                      A
 Frequencies --   1444.5202              1447.5112              1469.1061
 Red. masses --      1.3977                 1.3481                 1.1583
 Frc consts  --      1.7183                 1.6643                 1.4729
 IR Inten    --     10.1112                12.3263                 2.6740

                     58                     59                     60
                      A                      A                      A
 Frequencies --   1476.3903              1489.6033              1495.0220
 Red. masses --      1.1855                 1.0800                 1.0975
 Frc consts  --      1.5225                 1.4119                 1.4453
 IR Inten    --      8.1200                12.0332                 0.4484

                     61                     62                     63
                      A                      A                      A
 Frequencies --   1497.4802              1502.2891              1506.3944
 Red. masses --      1.1301                 1.0454                 1.0504
 Frc consts  --      1.4931                 1.3901                 1.4043
 IR Inten    --      2.0453                 6.6990                 5.6807

                     64                     65                     66
                      A                      A                      A
 Frequencies --   1511.6880              1513.2993              1524.1596
 Red. masses --      1.1187                 1.0573                 1.0628
 Frc consts  --      1.5062                 1.4266                 1.4547
 IR Inten    --      4.1589                 9.8092                 6.2956

                     67                     68                     69
                      A                      A                      A
 Frequencies --   1528.1317              1533.1183              1545.5575
 Red. masses --      1.0649                 1.0489                 1.0537
 Frc consts  --      1.4652                 1.4526                 1.4829
 IR Inten    --     11.9863                 9.3676                13.0192

                     70                     71                     72
                      A                      A                      A
 Frequencies --   1723.0471              1803.9642              2933.6660
 Red. masses --      5.0471                 9.9642                 1.0613
 Frc consts  --      8.8285                19.1050                 5.3817
 IR Inten    --     99.6933               113.7618                37.2741

                     73                     74                     75
                      A                      A                      A
 Frequencies --   2943.0765              3018.1883              3046.8432
 Red. masses --      1.0624                 1.0709                 1.0591
 Frc consts  --      5.4217                 5.7476                 5.7928
 IR Inten    --    120.0914                32.9343                 1.3855

                     76                     77                     78
                      A                      A                      A
 Frequencies --   3050.5330              3052.7611              3076.6644
 Red. masses --      1.0451                 1.0378                 1.0702
 Frc consts  --      5.7299                 5.6983                 5.9687
 IR Inten    --      6.3984                20.3321                36.3482

                     79                     80                     81
                      A                      A                      A
 Frequencies --   3090.3583              3093.5320              3105.4315
 Red. masses --      1.0755                 1.0855                 1.1006
 Frc consts  --      6.0516                 6.1208                 6.2537
 IR Inten    --     44.9281                22.1791                15.5489

                     82                     83                     84
                      A                      A                      A
 Frequencies --   3110.0483              3114.7505              3119.5858
 Red. masses --      1.0974                 1.0968                 1.0996
 Frc consts  --      6.2541                 6.2695                 6.3047
 IR Inten    --     14.8313                 7.8590                17.6540

                     85                     86                     87
                      A                      A                      A
 Frequencies --   3124.4278              3154.0355              3161.3048
 Red. masses --      1.0948                 1.1010                 1.0977
 Frc consts  --      6.2967                 6.4531                 6.4637
 IR Inten    --     33.2946                16.0411                13.0490

                     88                     89                     90
                      A                      A                      A
 Frequencies --   3168.9984              3209.1837              3311.8650
 Red. masses --      1.1030                 1.0657                 1.1094
 Frc consts  --      6.5264                 6.4668                 7.1697
 IR Inten    --     11.2708                 4.2239                 4.9994

 - Thermochemistry -
 -------------------
 Temperature   298.150 Kelvin.  Pressure   1.00000 Atm.
 Atom     1 has atomic number  6 and mass  12.00000

 Molecular mass:   185.14158 amu.
 Principal axes and moments of inertia in atomic units:
                           1         2         3
     Eigenvalues --  1978.888832998.312664245.00428
           X            0.99953   0.02883  -0.01014
           Y           -0.02871   0.99952   0.01201
           Z            0.01048  -0.01171   0.99988
 This molecule is an asymmetric top.
 Rotational symmetry number  1.
 Warning -- assumption of classical behavior for rotation
           may cause significant error
 Rotational temperatures (Kelvin)      0.04377     0.02889     0.02040
 Rotational constants (GHZ):           0.91200     0.60192     0.42514
 Zero-point vibrational energy     743168.4 (Joules/Mol)
                                  177.62151 (Kcal/Mol)
 Warning -- explicit consideration of  24 degrees of freedom as
           vibrations may cause significant error
 Vibrational temperatures:     52.74    66.95    87.09   106.69   142.20
          (Kelvin)            192.05   202.17   246.69   274.94   277.35
                              325.29   366.26   394.67   404.87   450.38
                              511.61   540.79   598.93   637.97   662.78
                              697.32   746.12   773.64   856.79  1009.52
                             1073.25  1095.23  1166.22  1232.43  1247.43
                             1289.32  1322.53  1389.26  1428.97  1437.69
                             1485.04  1533.53  1537.09  1548.37  1568.62
                             1606.68  1617.69  1636.83  1729.30  1740.29
                             1778.27  1837.68  1858.55  1892.20  1896.38
                             1944.43  2007.91  2030.51  2060.55  2078.34
                             2082.65  2113.72  2124.20  2143.21  2151.00
                             2154.54  2161.46  2167.37  2174.98  2177.30
                             2192.93  2198.64  2205.82  2223.71  2479.08
                             2595.50  4220.89  4234.43  4342.50  4383.73
                             4389.04  4392.24  4426.63  4446.34  4450.90
                             4468.02  4474.67  4481.43  4488.39  4495.35
                             4537.95  4548.41  4559.48  4617.30  4765.04

 Zero-point correction=                           0.283058 (Hartree/Particle)
 Thermal correction to Energy=                    0.298763
 Thermal correction to Enthalpy=                  0.299707
 Thermal correction to Gibbs Free Energy=         0.239837
 Sum of electronic and zero-point Energies=           -597.427397
 Sum of electronic and thermal Energies=              -597.411691
 Sum of electronic and thermal Enthalpies=            -597.410747
 Sum of electronic and thermal Free Energies=         -597.470617

                     E (Thermal)             CV                S
                      KCal/Mol        Cal/Mol-Kelvin    Cal/Mol-Kelvin
 Total                  187.477             57.106            126.007
 Electronic               0.000              0.000              0.000
 Translational            0.889              2.981             41.554
 Rotational               0.889              2.981             31.599
 Vibrational            185.699             51.145             52.853
 Vibration     1          0.594              1.982              5.432
 Vibration     2          0.595              1.979              4.959
 Vibration     3          0.597              1.973              4.440
 Vibration     4          0.599              1.966              4.040
 Vibration     5          0.604              1.950              3.477
 Vibration     6          0.613              1.920              2.895
 Vibration     7          0.615              1.913              2.797
 Vibration     8          0.626              1.878              2.419
 Vibration     9          0.634              1.852              2.217
 Vibration    10          0.635              1.850              2.201
 Vibration    11          0.650              1.801              1.910
 Vibration    12          0.665              1.755              1.699
 Vibration    13          0.677              1.721              1.569
 Vibration    14          0.681              1.708              1.525
 Vibration    15          0.701              1.649              1.346
 Vibration    16          0.731              1.564              1.141
 Vibration    17          0.747              1.522              1.056
 Vibration    18          0.779              1.435              0.905
 Vibration    19          0.803              1.375              0.816
 Vibration    20          0.818              1.337              0.764
 Vibration    21          0.841              1.284              0.698
 Vibration    22          0.874              1.209              0.613
 Vibration    23          0.893              1.167              0.570
 Vibration    24          0.953              1.041              0.457

 Optimization completed.
    -- Stationary point found.
 Normal termination of Gaussian 16 at Mon Dec 14 13:21:39 2020.

 ----------------------------------------------------------------------
 # B3LYP/6-311++G(d,p) empiricaldispersion=gd3bj scf=xqc pop=npa geom=c
 heck
 ----------------------------------------------------------------------

 --------------------------------------
 CID_89028705_JID_3764_Energie_neutraal
 --------------------------------------
 Structure from the checkpoint file:  "JID_3764.chk"
 Charge =  0 Multiplicity = 1

 SCF Done:  E(RB3LYP) =  -597.884707390     A.U. after   14 cycles
 Normal termination of Gaussian 16 at Mon Dec 14 13:24:54 2020.

 ----------------------------------------------------------------------
 # B3LYP/6-311++G(d,p) empiricaldispersion=gd3bj scf=xqc pop=npa geom=c
 heck
 ----------------------------------------------------------------------

 ------------------------------------
 CID_89028705_JID_3764_Energie_kation
 ------------------------------------
 Structure from the checkpoint file:  "JID_3764.chk"
 Charge =  1 Multiplicity = 2

 SCF Done:  E(UB3LYP) =  -597.601226680     A.U. after   23 cycles
 Normal termination of Gaussian 16 at Mon Dec 14 13:32:07 2020.
 Gaussian 16:  ES64L-G16RevA.03 25-Dec-2016

 ----------------------------------------------------------------------
 # B3LYP/6-311++G(d,p) empiricaldispersion=gd3bj scf=xqc pop=npa geom=c
 heck
 ----------------------------------------------------------------------

 -----------------------------------
 CID_89028705_JID_3764_Energie_anion
 -----------------------------------
 Structure from the checkpoint file:  "JID_3764.chk"
 Charge = -1 Multiplicity = 2

                         Standard orientation:
 ---------------------------------------------------------------------
 Center     Atomic      Atomic             Coordinates (Angstroms)
 Number     Number       Type             X           Y           Z
 ---------------------------------------------------------------------
      1          6           0        0.811165    3.281899    0.026868
      2          6           0        0.690803    1.803442    0.271982
      3          6           0        1.157349    1.201879    1.375102
      4          8           0        0.043528    1.240425   -0.791121
      5          6           0       -0.178322   -0.173062   -0.956654
      6          6           0        1.146799   -0.927326   -1.217070
      7          6           0        1.947205   -1.454471   -0.029822
      8          8           0        1.435860   -2.184396    0.801800
      9          6           0        3.412481   -1.078989    0.021317
     10          6           0       -1.128911   -0.808472    0.069630
     11          7           0       -2.532392   -0.543927   -0.250942
     12          6           0       -3.402183   -1.444559    0.493389
     13          6           0       -2.912492    0.844791   -0.010051
     14          1           0        1.335522    3.776087    0.847613
     15          1           0       -0.184174    3.730171   -0.077036
     16          1           0        1.349319    3.473535   -0.908776
     17          1           0        1.052070    0.150171    1.591609
     18          1           0        1.658754    1.807017    2.121409
     19          1           0       -0.721345   -0.193632   -1.905527
     20          1           0        0.887355   -1.816519   -1.807462
     21          1           0        1.768171   -0.290241   -1.854069
     22          1           0        3.918927   -1.407219   -0.895589
     23          1           0        3.506379    0.011364    0.074676
     24          1           0        3.888052   -1.538109    0.889907
     25          1           0       -0.972571   -1.889357    0.035100
     26          1           0       -0.876722   -0.495185    1.094321
     27          1           0       -3.332412   -1.311658    1.591148
     28          1           0       -4.443086   -1.272270    0.199149
     29          1           0       -3.147997   -2.484131    0.260959
     30          1           0       -2.796282    1.140331    1.051523
     31          1           0       -2.299596    1.513682   -0.616056
     32          1           0       -3.962094    0.984429   -0.289874
 ---------------------------------------------------------------------

 SCF Done:  E(UB3LYP) =  -597.872870160     A.U. after   33 cycles
 SCF Done:  E(UB3LYP) =  -597.872870160     a.u. after    1 cycles

 The electronic state is 2-A.
 Alpha  occ. eigenvalues --  -19.04461 -18.98883 -14.20725 -10.13627 -10.13288
 Alpha  occ. eigenvalues --  -10.12895 -10.09202 -10.08667 -10.08368 -10.06832
 Alpha  occ. eigenvalues --  -10.06647 -10.05815 -10.04547  -0.95897  -0.92431
 Alpha  occ. eigenvalues --   -0.82483  -0.70419  -0.66598  -0.63644  -0.60784
 Alpha  occ. eigenvalues --   -0.59724  -0.59244  -0.54307  -0.49617  -0.44542
 Alpha  occ. eigenvalues --   -0.40975  -0.39859  -0.38875  -0.37294  -0.36321
 Alpha  occ. eigenvalues --   -0.35846  -0.34440  -0.33859  -0.33128  -0.32401
 Alpha  occ. eigenvalues --   -0.30833  -0.30580  -0.30026  -0.29080  -0.28513
 Alpha  occ. eigenvalues --   -0.28168  -0.27354  -0.27019  -0.25622  -0.24613
 Alpha  occ. eigenvalues --   -0.23914  -0.21819  -0.21606  -0.13720  -0.13204
 Alpha  occ. eigenvalues --   -0.11661   0.04563
 Alpha virt. eigenvalues --    0.06587   0.06793   0.08045   0.08538   0.08952
 Alpha virt. eigenvalues --    0.09641   0.09695   0.10382   0.10796   0.11560
 Alpha virt. eigenvalues --    0.11832   0.12250   0.12565   0.12648   0.13553

  Beta  occ. eigenvalues --  -19.04456 -18.98774 -14.20719 -10.13442 -10.13284
  Beta  occ. eigenvalues --  -10.12878 -10.09190 -10.08663 -10.08353 -10.06803
  Beta  occ. eigenvalues --  -10.06633 -10.05803 -10.04537  -0.95886  -0.92184
  Beta  occ. eigenvalues --   -0.82469  -0.70376  -0.66497  -0.63524  -0.60759
  Beta  occ. eigenvalues --   -0.59672  -0.59206  -0.54243  -0.49586  -0.44376
  Beta  occ. eigenvalues --   -0.40809  -0.39795  -0.38841  -0.37236  -0.36184
  Beta  occ. eigenvalues --   -0.35802  -0.34323  -0.33760  -0.33015  -0.32304
  Beta  occ. eigenvalues --   -0.30777  -0.30516  -0.30000  -0.29026  -0.28477
  Beta  occ. eigenvalues --   -0.28115  -0.27289  -0.26990  -0.25556  -0.24561
  Beta  occ. eigenvalues --   -0.23514  -0.21740  -0.21494  -0.13663  -0.13135
  Beta  occ. eigenvalues --   -0.11630
  Beta virt. eigenvalues --    0.06590   0.07238   0.07930   0.08513   0.09100
  Beta virt. eigenvalues --    0.09386   0.09913   0.10420   0.10777   0.11273
  Beta virt. eigenvalues --    0.11707   0.12125   0.12372   0.12743   0.12848

 Mulliken charges and spin densities:
               1          2
     1  C    1.586495  -2.078528
     2  C   -1.271569   1.347781
     3  C    0.188007  -0.599510
     4  O   -0.043459   0.003710
     5  C   -0.210920   0.493562
     6  C    0.765304  -1.292580
     7  C   -1.146730   1.491006
     8  O   -0.263041   0.030353
     9  C    0.764384  -1.463241
    10  C   -0.224977  -0.604093
    11  N    0.068220   0.105210
    12  C    0.104858  -0.365609
    13  C    0.007741  -0.396527
    14  H   -0.257469   0.405898
    15  H   -0.045597   0.184116
    16  H   -0.191721   0.355176
    17  H    0.374859  -0.240095
    18  H   -0.143936   0.296454
    19  H   -0.297272   0.522136
    20  H   -0.514146   0.718534
    21  H   -0.183550   0.391304
    22  H   -0.433683   0.602582
    23  H    0.105136   0.059775
    24  H   -0.017959   0.157127
    25  H    0.175554   0.092945
    26  H    0.081325   0.036859
    27  H    0.032779   0.069857
    28  H    0.016392   0.102610
    29  H   -0.054610   0.172724
    30  H    0.035989   0.065383
    31  H    0.036316   0.156718
    32  H   -0.042722   0.178362
 Sum of Mulliken charges =  -1.00000   1.00000

 Dipole moment (field-independent basis, Debye):
    X=             -3.3552    Y=              1.2514    Z=              3.3108  Tot=              4.8770
 Quadrupole moment (field-independent basis, Debye-Ang):
   XX=           -133.8701   YY=           -132.5590   ZZ=           -118.0851
   XY=              3.7183   XZ=              3.8325   YZ=             -3.2917

 Summary of Natural Population Analysis:

                                       Natural Population
                Natural  -----------------------------------------------
    Atom  No    Charge         Core      Valence    Rydberg      Total
 -----------------------------------------------------------------------
      C    1   -0.30170      0.99962     2.29601    0.00608     3.30170
      C    2    0.17484      0.99942     1.81149    0.01424     2.82516
      C    3   -0.27055      0.99950     2.26401    0.00703     3.27055
      O    4   -0.29291      0.99985     3.28034    0.01273     4.29291
      C    5    0.06639      0.99951     1.91743    0.01667     2.93361
      C    6   -0.24914      0.99955     2.23953    0.01006     3.24914
      C    7    0.31505      0.99968     1.66397    0.02130     2.68495
      O    8   -0.29470      0.99987     3.28857    0.00625     4.29470
      C    9   -0.33387      0.99961     2.32905    0.00521     3.33387
      C   10   -0.10464      0.99957     2.09197    0.01310     3.10464
      N   11   -0.27628      0.99973     2.76446    0.01209     3.77628
      C   12   -0.17350      0.99965     2.16724    0.00661     3.17350
      C   13   -0.17953      0.99964     2.17285    0.00703     3.17953
      H   14    0.10198      0.00000     0.39712    0.00091     0.39802
      H   15    0.10403      0.00000     0.39469    0.00127     0.39597
      H   16    0.10659      0.00000     0.39195    0.00146     0.39341
      H   17    0.10609      0.00000     0.39254    0.00137     0.39391
      H   18    0.09883      0.00000     0.40039    0.00078     0.40117
      H   19    0.10186      0.00000     0.39547    0.00267     0.39814
      H   20    0.12300      0.00000     0.37260    0.00440     0.37700
      H   21    0.10855      0.00000     0.38957    0.00189     0.39145
      H   22    0.11189      0.00000     0.38540    0.00271     0.38811
      H   23    0.11208      0.00000     0.38663    0.00129     0.38792
      H   24    0.10442      0.00000     0.39465    0.00094     0.39558
      H   25    0.11172      0.00000     0.38674    0.00154     0.38828
      H   26    0.09093      0.00000     0.40757    0.00150     0.40907
      H   27    0.07722      0.00000     0.42120    0.00158     0.42278
      H   28    0.09197      0.00000     0.40694    0.00109     0.40803
      H   29    0.09571      0.00000     0.40314    0.00115     0.40429
      H   30    0.07839      0.00000     0.42002    0.00159     0.42161
      H   31    0.10469      0.00000     0.39367    0.00164     0.39531
      H   32    0.09060      0.00000     0.40825    0.00115     0.40940
 =======================================================================
   * Total *    0.00000     12.99520    37.83547    0.16933    51.00000

 Normal termination of Gaussian 16 at Mon Dec 14 13:42:05 2020.
