 Gaussian 16, Revision A.03,

 -----------------------------------------------------------
 # opt freq B3LYP/6-31G(d) empiricaldispersion=gd3bj scf=xqc
 -----------------------------------------------------------

 -------------------------------
 CID_145423347_JID_3686_neutraal
 -------------------------------
 Symbolic Z-matrix:
 Charge =  0 Multiplicity = 1

 SCF Done:  E(RB3LYP) =  -598.993505132     A.U. after   14 cycles
 SCF Done:  E(RB3LYP) =  -598.996014996     A.U. after   12 cycles
 SCF Done:  E(RB3LYP) =  -598.996188602     A.U. after   12 cycles
 SCF Done:  E(RB3LYP) =  -598.996464803     A.U. after   11 cycles
 SCF Done:  E(RB3LYP) =  -598.996391801     A.U. after   11 cycles
 SCF Done:  E(RB3LYP) =  -598.996697962     A.U. after   11 cycles
 SCF Done:  E(RB3LYP) =  -598.996722184     A.U. after   10 cycles
 SCF Done:  E(RB3LYP) =  -598.996761102     A.U. after   10 cycles
 SCF Done:  E(RB3LYP) =  -598.996788041     A.U. after   10 cycles
 SCF Done:  E(RB3LYP) =  -598.996801627     A.U. after    9 cycles
 SCF Done:  E(RB3LYP) =  -598.996813585     A.U. after   10 cycles
 SCF Done:  E(RB3LYP) =  -598.996824422     A.U. after    9 cycles
 SCF Done:  E(RB3LYP) =  -598.996827668     A.U. after    9 cycles
 SCF Done:  E(RB3LYP) =  -598.996829132     A.U. after    8 cycles
 SCF Done:  E(RB3LYP) =  -598.996829383     A.U. after    7 cycles
 Optimization completed.
    -- Stationary point found.
 Normal termination of Gaussian 16 at Sun Dec 13 12:30:12 2020.

 --------------------------------------------------------------------
 #N Geom=AllCheck Guess=TCheck SCRF=Check GenChk RB3LYP/6-31G(d) Freq
 --------------------------------------------------------------------

 Structure from the checkpoint file:  "JID_3686.chk"
 -------------------------------
 CID_145423347_JID_3686_neutraal
 -------------------------------
 Charge =  0 Multiplicity = 1

 SCF Done:  E(RB3LYP) =  -598.996829383     A.U. after    1 cycles

  Exact polarizability: 124.550   5.692 114.239   4.494   0.842 107.572
 Approx polarizability: 159.234  11.449 159.133   9.257   1.800 166.865

                      1                      2                      3
                      A                      A                      A
 Frequencies --     39.7923                56.1157                75.3632
 Red. masses --      4.0372                 5.8351                 5.3660
 Frc consts  --      0.0038                 0.0108                 0.0180
 IR Inten    --      0.3619                 0.1383                 0.4984

                      4                      5                      6
                      A                      A                      A
 Frequencies --    102.8239               114.2360               146.2499
 Red. masses --      2.2921                 2.1150                 1.8562
 Frc consts  --      0.0143                 0.0163                 0.0234
 IR Inten    --      0.3789                 0.1564                 0.0732

                      7                      8                      9
                      A                      A                      A
 Frequencies --    169.0893               173.4691               211.3713
 Red. masses --      2.2014                 3.8383                 2.6062
 Frc consts  --      0.0371                 0.0681                 0.0686
 IR Inten    --      0.1544                 0.4900                 1.3293

                     10                     11                     12
                      A                      A                      A
 Frequencies --    229.4086               237.5580               271.7765
 Red. masses --      1.1073                 1.3581                 2.6043
 Frc consts  --      0.0343                 0.0452                 0.1133
 IR Inten    --      0.0075                 0.3335                 0.0318

                     13                     14                     15
                      A                      A                      A
 Frequencies --    279.1824               320.1441               322.2135
 Red. masses --      1.8777                 2.2260                 2.1396
 Frc consts  --      0.0862                 0.1344                 0.1309
 IR Inten    --      1.7104                 0.3920                 0.5763

                     16                     17                     18
                      A                      A                      A
 Frequencies --    349.9778               375.3293               418.0027
 Red. masses --      2.1479                 2.1128                 2.5925
 Frc consts  --      0.1550                 0.1754                 0.2669
 IR Inten    --      0.2534                 0.2646                 1.3778

                     19                     20                     21
                      A                      A                      A
 Frequencies --    452.0882               481.1913               503.4949
 Red. masses --      2.7438                 1.9176                 1.3748
 Frc consts  --      0.3304                 0.2616                 0.2053
 IR Inten    --      1.0707                 3.8369                17.3451

                     22                     23                     24
                      A                      A                      A
 Frequencies --    549.3450               570.6629               574.9792
 Red. masses --      4.0885                 1.8323                 1.5502
 Frc consts  --      0.7269                 0.3516                 0.3020
 IR Inten    --     15.3333                63.5394               118.8995

                     25                     26                     27
                      A                      A                      A
 Frequencies --    634.6436               680.5164               766.7043
 Red. masses --      2.0895                 2.5913                 3.9875
 Frc consts  --      0.4959                 0.7070                 1.3811
 IR Inten    --     51.7169                 7.8489                67.2443

                     28                     29                     30
                      A                      A                      A
 Frequencies --    770.3648               774.7662               808.9897
 Red. masses --      1.2906                 1.5792                 1.2464
 Frc consts  --      0.4513                 0.5585                 0.4806
 IR Inten    --      2.6956                 5.8321                 1.3936

                     31                     32                     33
                      A                      A                      A
 Frequencies --    830.4970               898.9591               904.0649
 Red. masses --      2.3685                 2.0858                 1.9044
 Frc consts  --      0.9625                 0.9931                 0.9171
 IR Inten    --      4.8759                 0.8102                 6.1380

                     34                     35                     36
                      A                      A                      A
 Frequencies --    924.9673               965.0176              1022.5711
 Red. masses --      2.2372                 1.9372                 2.0198
 Frc consts  --      1.1277                 1.0629                 1.2444
 IR Inten    --     11.5913                14.7249                 0.7515

                     37                     38                     39
                      A                      A                      A
 Frequencies --   1033.0544              1040.1043              1060.9312
 Red. masses --      1.7948                 2.1887                 1.4241
 Frc consts  --      1.1285                 1.3950                 0.9444
 IR Inten    --      0.8592                18.5084                 7.0470

                     40                     41                     42
                      A                      A                      A
 Frequencies --   1066.0330              1070.6680              1108.6131
 Red. masses --      1.8918                 2.4920                 1.9508
 Frc consts  --      1.2667                 1.6831                 1.4126
 IR Inten    --      0.2725                 1.7060                10.2160

                     43                     44                     45
                      A                      A                      A
 Frequencies --   1113.8231              1153.3867              1195.7655
 Red. masses --      1.7522                 2.2275                 1.9641
 Frc consts  --      1.2807                 1.7459                 1.6547
 IR Inten    --     25.9365                29.9344                25.7181

                     46                     47                     48
                      A                      A                      A
 Frequencies --   1203.8927              1227.1161              1233.4811
 Red. masses --      2.2997                 1.7411                 2.4950
 Frc consts  --      1.9638                 1.5447                 2.2365
 IR Inten    --     21.1763               159.6244                 2.4190

                     49                     50                     51
                      A                      A                      A
 Frequencies --   1289.0180              1319.9879              1331.3387
 Red. masses --      1.2623                 1.1989                 1.1947
 Frc consts  --      1.2358                 1.2307                 1.2477
 IR Inten    --      6.1062                 2.7471                 1.4602

                     52                     53                     54
                      A                      A                      A
 Frequencies --   1343.0417              1359.2517              1390.2250
 Red. masses --      1.1882                 1.2625                 1.3368
 Frc consts  --      1.2628                 1.3742                 1.5222
 IR Inten    --      4.1121                 1.4424                 7.1008

                     55                     56                     57
                      A                      A                      A
 Frequencies --   1391.8686              1404.8031              1420.5919
 Red. masses --      1.4641                 1.4645                 1.4125
 Frc consts  --      1.6711                 1.7028                 1.6795
 IR Inten    --      3.6249                 6.8612                23.5060

                     58                     59                     60
                      A                      A                      A
 Frequencies --   1425.0636              1441.0176              1445.7871
 Red. masses --      1.4140                 1.2379                 1.2585
 Frc consts  --      1.6919                 1.5145                 1.5499
 IR Inten    --      0.9886                 7.0915                 7.6979

                     61                     62                     63
                      A                      A                      A
 Frequencies --   1447.0593              1464.6449              1490.6498
 Red. masses --      1.2243                 1.8113                 1.5544
 Frc consts  --      1.5104                 2.2893                 2.0350
 IR Inten    --      6.1415                54.5641                42.9318

                     64                     65                     66
                      A                      A                      A
 Frequencies --   1504.8771              1514.0887              1522.0645
 Red. masses --      1.0787                 1.0840                 1.0799
 Frc consts  --      1.4392                 1.4642                 1.4740
 IR Inten    --      1.1585                 6.9349                 9.6829

                     67                     68                     69
                      A                      A                      A
 Frequencies --   1524.2573              1531.4903              1533.3641
 Red. masses --      1.1093                 1.0459                 1.1226
 Frc consts  --      1.5185                 1.4454                 1.5551
 IR Inten    --     19.2975                 1.6296                 7.6046

                     70                     71                     72
                      A                      A                      A
 Frequencies --   1536.4271              1540.5383              1541.9898
 Red. masses --      1.0451                 1.0569                 1.1102
 Frc consts  --      1.4535                 1.4779                 1.5553
 IR Inten    --      0.4769                10.5890                 7.2455

                     73                     74                     75
                      A                      A                      A
 Frequencies --   1545.3524              1549.8502              1851.8509
 Red. masses --      1.0515                 1.0726                 7.4894
 Frc consts  --      1.4795                 1.5179                15.1325
 IR Inten    --      0.9028                 0.3381               527.4688

                     76                     77                     78
                      A                      A                      A
 Frequencies --   3025.1967              3026.7222              3035.7842
 Red. masses --      1.0670                 1.0668                 1.0657
 Frc consts  --      5.7534                 5.7582                 5.7864
 IR Inten    --      2.1733                 5.3043                81.1184

                     79                     80                     81
                      A                      A                      A
 Frequencies --   3046.6735              3055.0553              3060.1707
 Red. masses --      1.0697                 1.0419                 1.0393
 Frc consts  --      5.8499                 5.7292                 5.7341
 IR Inten    --     14.5226                20.1842                19.7352

                     82                     83                     84
                      A                      A                      A
 Frequencies --   3060.4277              3065.5627              3073.5599
 Red. masses --      1.0412                 1.0919                 1.0929
 Frc consts  --      5.7455                 6.0456                 6.0827
 IR Inten    --     22.1370                29.2381                28.0964

                     85                     86                     87
                      A                      A                      A
 Frequencies --   3082.9474              3099.3844              3110.4902
 Red. masses --      1.0617                 1.0930                 1.0947
 Frc consts  --      5.9457                 6.1862                 6.2404
 IR Inten    --     25.1864                16.7280                15.5070

                     88                     89                     90
                      A                      A                      A
 Frequencies --   3114.6502              3116.9673              3124.4494
 Red. masses --      1.1012                 1.1000                 1.1001
 Frc consts  --      6.2942                 6.2964                 6.3274
 IR Inten    --     30.1673                51.3020                57.0494

                     91                     92                     93
                      A                      A                      A
 Frequencies --   3125.9165              3129.3659              3134.7278
 Red. masses --      1.1017                 1.0985                 1.1011
 Frc consts  --      6.3426                 6.3384                 6.3749
 IR Inten    --     26.8800                40.5968                64.8192

                     94                     95                     96
                      A                      A                      A
 Frequencies --   3138.1689              3649.3449              3738.6792
 Red. masses --      1.0996                 1.0766                 1.0647
 Frc consts  --      6.3804                 8.4477                 8.7682
 IR Inten    --     19.3938                31.6688                80.7076

 - Thermochemistry -
 -------------------
 Temperature   298.150 Kelvin.  Pressure   1.00000 Atm.
 Atom     1 has atomic number  6 and mass  12.00000

 Molecular mass:   187.15723 amu.
 Principal axes and moments of inertia in atomic units:
                           1         2         3
     Eigenvalues --  1592.735533591.595514028.78678
           X            0.99993  -0.00836  -0.00846
           Y            0.00827   0.99991  -0.01021
           Z            0.00854   0.01014   0.99991
 This molecule is an asymmetric top.
 Rotational symmetry number  1.
 Warning -- assumption of classical behavior for rotation
           may cause significant error
 Rotational temperatures (Kelvin)      0.05438     0.02412     0.02150
 Rotational constants (GHZ):           1.13311     0.50249     0.44796
 Zero-point vibrational energy     814582.4 (Joules/Mol)
                                  194.68986 (Kcal/Mol)
 Warning -- explicit consideration of  24 degrees of freedom as
           vibrations may cause significant error
 Vibrational temperatures:     57.25    80.74   108.43   147.94   164.36
          (Kelvin)            210.42   243.28   249.58   304.12   330.07
                              341.79   391.03   401.68   460.62   463.59
                              503.54   540.02   601.41   650.45   692.33
                              724.42   790.38   821.06   827.27   913.11
                              979.11  1103.12  1108.38  1114.72  1163.96
                             1194.90  1293.40  1300.75  1330.82  1388.45
                             1471.25  1486.33  1496.48  1526.44  1533.78
                             1540.45  1595.05  1602.54  1659.47  1720.44
                             1732.13  1765.55  1774.70  1854.61  1899.17
                             1915.50  1932.34  1955.66  2000.22  2002.59
                             2021.20  2043.91  2050.35  2073.30  2080.17
                             2082.00  2107.30  2144.71  2165.18  2178.44
                             2189.91  2193.07  2203.47  2206.17  2210.58
                             2216.49  2218.58  2223.42  2229.89  2664.40
                             4352.58  4354.78  4367.82  4383.48  4395.54
                             4402.90  4403.27  4410.66  4422.17  4435.67
                             4459.32  4475.30  4481.29  4484.62  4495.39
                             4497.50  4502.46  4510.17  4515.13  5250.59
                             5379.13

 Zero-point correction=                           0.310258 (Hartree/Particle)
 Thermal correction to Energy=                    0.325707
 Thermal correction to Enthalpy=                  0.326652
 Thermal correction to Gibbs Free Energy=         0.268256
 Sum of electronic and zero-point Energies=           -598.686571
 Sum of electronic and thermal Energies=              -598.671122
 Sum of electronic and thermal Enthalpies=            -598.670178
 Sum of electronic and thermal Free Energies=         -598.728573

                     E (Thermal)             CV                S
                      KCal/Mol        Cal/Mol-Kelvin    Cal/Mol-Kelvin
 Total                  204.384             58.235            122.904
 Electronic               0.000              0.000              0.000
 Translational            0.889              2.981             41.586
 Rotational               0.889              2.981             31.511
 Vibrational            202.607             52.274             49.807
 Vibration     1          0.594              1.981              5.269
 Vibration     2          0.596              1.975              4.589
 Vibration     3          0.599              1.965              4.008
 Vibration     4          0.605              1.947              3.400
 Vibration     5          0.607              1.938              3.196
 Vibration     6          0.617              1.907              2.720
 Vibration     7          0.625              1.881              2.446
 Vibration     8          0.627              1.875              2.398
 Vibration     9          0.643              1.824              2.032
 Vibration    10          0.652              1.796              1.884
 Vibration    11          0.656              1.783              1.821
 Vibration    12          0.675              1.725              1.585
 Vibration    13          0.680              1.712              1.539
 Vibration    14          0.706              1.635              1.309
 Vibration    15          0.707              1.631              1.299
 Vibration    16          0.727              1.575              1.166
 Vibration    17          0.746              1.523              1.058
 Vibration    18          0.781              1.431              0.899
 Vibration    19          0.811              1.356              0.789
 Vibration    20          0.837              1.292              0.707
 Vibration    21          0.859              1.242              0.649
 Vibration    22          0.905              1.141              0.546
 Vibration    23          0.927              1.095              0.503
 Vibration    24          0.931              1.085              0.495

                           ! Non-Optimized Parameters !
 Normal termination of Gaussian 16 at Sun Dec 13 12:40:55 2020.

 ----------------------------------------------------------------------
 # B3LYP/6-311++G(d,p) empiricaldispersion=gd3bj scf=xqc pop=npa geom=c
 heck
 ----------------------------------------------------------------------

 ---------------------------------------
 CID_145423347_JID_3686_Energie_neutraal
 ---------------------------------------
 Structure from the checkpoint file:  "JID_3686.chk"
 Charge =  0 Multiplicity = 1

 SCF Done:  E(RB3LYP) =  -599.182994627     A.U. after   14 cycles
 Normal termination of Gaussian 16 at Sun Dec 13 12:45:50 2020.

 ----------------------------------------------------------------------
 # B3LYP/6-311++G(d,p) empiricaldispersion=gd3bj scf=xqc pop=npa geom=c
 heck
 ----------------------------------------------------------------------

 -------------------------------------
 CID_145423347_JID_3686_Energie_kation
 -------------------------------------
 Structure from the checkpoint file:  "JID_3686.chk"
 Charge =  1 Multiplicity = 2

 SCF Done:  E(UB3LYP) =  -598.849210606     A.U. after   22 cycles
 Normal termination of Gaussian 16 at Sun Dec 13 12:56:50 2020.
 Gaussian 16:  ES64L-G16RevA.03 25-Dec-2016

 ----------------------------------------------------------------------
 # B3LYP/6-311++G(d,p) empiricaldispersion=gd3bj scf=xqc pop=npa geom=c
 heck
 ----------------------------------------------------------------------

 ------------------------------------
 CID_145423347_JID_3686_Energie_anion
 ------------------------------------
 Structure from the checkpoint file:  "JID_3686.chk"
 Charge = -1 Multiplicity = 2

                         Standard orientation:
 ---------------------------------------------------------------------
 Center     Atomic      Atomic             Coordinates (Angstroms)
 Number     Number       Type             X           Y           Z
 ---------------------------------------------------------------------
      1          6           0        0.191586   -2.026565   -0.878707
      2          6           0        0.723234   -0.598402   -1.043791
      3          6           0        1.238883    0.091048    0.244410
      4          6           0        2.374402   -0.758440    0.891283
      5          6           0        3.501468   -1.234077   -0.030882
      6          6           0        1.835623    1.490091   -0.085637
      7          6           0        1.112702    2.378827   -1.106894
      8          6           0        0.146636    0.190010    1.344085
      9          6           0       -1.037095    1.154367    1.180546
     10          7           0       -1.898310    0.934694    0.021870
     11          6           0       -2.719206   -0.130733   -0.167296
     12          8           0       -3.287607   -0.407697   -1.208797
     13          8           0       -2.856679   -0.874525    0.972448
     14          1           0        0.952152   -2.707634   -0.482320
     15          1           0       -0.133502   -2.419897   -1.847628
     16          1           0       -0.671570   -2.066263   -0.207835
     17          1           0        1.540291   -0.605777   -1.777184
     18          1           0       -0.068639    0.004969   -1.493578
     19          1           0        2.809960   -0.164482    1.706961
     20          1           0        1.925458   -1.636693    1.372269
     21          1           0        3.989987   -0.405266   -0.554740
     22          1           0        4.272547   -1.748227    0.553486
     23          1           0        3.141921   -1.937188   -0.788817
     24          1           0        1.946790    2.042747    0.858123
     25          1           0        2.855199    1.346776   -0.462239
     26          1           0        0.100054    2.657165   -0.799408
     27          1           0        1.667984    3.313692   -1.242589
     28          1           0        1.043613    1.897042   -2.086931
     29          1           0       -0.258550   -0.808728    1.534785
     30          1           0        0.646137    0.490476    2.276542
     31          1           0       -1.659834    1.082509    2.077443
     32          1           0       -0.690982    2.189432    1.123040
     33          1           0       -1.700820    1.436943   -0.830621
     34          1           0       -3.475129   -1.583434    0.726245
 ---------------------------------------------------------------------

 SCF Done:  E(UB3LYP) =  -599.169618300     A.U. after   31 cycles

 The electronic state is 2-A.
 Alpha  occ. eigenvalues --  -19.06820 -18.99962 -14.24246 -10.22389 -10.10987
 Alpha  occ. eigenvalues --  -10.08296 -10.06546 -10.06540 -10.06439 -10.06303
 Alpha  occ. eigenvalues --  -10.06159 -10.06102 -10.05800  -1.01219  -0.91636
 Alpha  occ. eigenvalues --   -0.83628  -0.73577  -0.65766  -0.65211  -0.64823
 Alpha  occ. eigenvalues --   -0.59244  -0.55084  -0.52824  -0.51978  -0.50683
 Alpha  occ. eigenvalues --   -0.43521  -0.41699  -0.40430  -0.37963  -0.37704
 Alpha  occ. eigenvalues --   -0.36460  -0.36162  -0.34749  -0.33885  -0.32002
 Alpha  occ. eigenvalues --   -0.31603  -0.31142  -0.30405  -0.29321  -0.28120
 Alpha  occ. eigenvalues --   -0.27303  -0.26841  -0.26406  -0.25138  -0.24812
 Alpha  occ. eigenvalues --   -0.24059  -0.22776  -0.21188  -0.20779  -0.20292
 Alpha  occ. eigenvalues --   -0.18765  -0.16187   0.04330
 Alpha virt. eigenvalues --    0.06327   0.06740   0.07414   0.08731   0.09150
 Alpha virt. eigenvalues --    0.09197   0.09816   0.10171   0.11531   0.11747
 Alpha virt. eigenvalues --    0.12298   0.12519   0.12908   0.13295   0.13781

  Beta  occ. eigenvalues --  -19.06779 -18.99952 -14.24231 -10.22387 -10.10962
  Beta  occ. eigenvalues --  -10.08298 -10.06533 -10.06529 -10.06415 -10.06287
  Beta  occ. eigenvalues --  -10.06124 -10.06076 -10.05784  -1.01168  -0.91594
  Beta  occ. eigenvalues --   -0.83595  -0.73553  -0.65728  -0.65166  -0.64794
  Beta  occ. eigenvalues --   -0.59197  -0.55026  -0.52761  -0.51907  -0.50618
  Beta  occ. eigenvalues --   -0.43477  -0.41661  -0.40380  -0.37932  -0.37677
  Beta  occ. eigenvalues --   -0.36428  -0.36135  -0.34722  -0.33846  -0.31968
  Beta  occ. eigenvalues --   -0.31574  -0.31110  -0.30378  -0.29286  -0.28086
  Beta  occ. eigenvalues --   -0.27265  -0.26794  -0.26357  -0.25103  -0.24784
  Beta  occ. eigenvalues --   -0.24034  -0.22741  -0.21161  -0.20749  -0.20268
  Beta  occ. eigenvalues --   -0.18729  -0.16166
  Beta virt. eigenvalues --    0.06501   0.07395   0.07482   0.08048   0.09311
  Beta virt. eigenvalues --    0.09509   0.09618   0.10222   0.10581   0.11937
  Beta virt. eigenvalues --    0.12089   0.12538   0.12866   0.13233   0.13571

 Mulliken charges and spin densities:
               1          2
     1  C    0.376693  -1.076015
     2  C   -0.624024   0.207289
     3  C    1.430956  -0.430174
     4  C   -1.189071   1.037521
     5  C    0.746099  -1.359761
     6  C   -0.088690  -0.470408
     7  C    0.852601  -1.372842
     8  C   -1.013893   1.003441
     9  C    0.616352  -1.419112
    10  N   -0.230023   0.020001
    11  C    0.266581  -0.369226
    12  O   -0.318104   0.035306
    13  O   -0.226481   0.047456
    14  H    0.031262   0.110820
    15  H    0.063536   0.079774
    16  H    0.019836   0.133557
    17  H   -0.052127   0.227622
    18  H    0.253684  -0.147008
    19  H   -0.140955   0.288080
    20  H   -0.093823   0.247075
    21  H   -0.200477   0.340499
    22  H   -0.230342   0.370894
    23  H   -0.057581   0.194720
    24  H   -0.272691   0.445320
    25  H    0.253918  -0.128616
    26  H   -0.207423   0.308780
    27  H   -0.623716   0.783810
    28  H   -0.143461   0.303707
    29  H    0.294619  -0.112921
    30  H   -0.265551   0.419977
    31  H   -0.240708   0.479435
    32  H   -0.155105   0.325566
    33  H    0.343575   0.002113
    34  H   -0.175469   0.473322
 Sum of Mulliken charges =  -1.00000   1.00000

 Dipole moment (field-independent basis, Debye):
    X=             -0.6690    Y=             -1.7256    Z=             -0.4505  Tot=              1.9048
 Quadrupole moment (field-independent basis, Debye-Ang):
   XX=           -153.0346   YY=           -131.9099   ZZ=           -122.3076
   XY=             -6.6031   XZ=             -1.6539   YZ=              0.1479

 Summary of Natural Population Analysis:

                                       Natural Population
                Natural  -----------------------------------------------
    Atom  No    Charge         Core      Valence    Rydberg      Total
 -----------------------------------------------------------------------
      C    1   -0.28628      0.99966     2.28191    0.00471     3.28628
      C    2   -0.19444      0.99959     2.18589    0.00896     3.19444
      C    3   -0.03697      0.99955     2.02268    0.01474     3.03697
      C    4   -0.18884      0.99960     2.17886    0.01038     3.18884
      C    5   -0.28802      0.99966     2.28324    0.00513     3.28802
      C    6   -0.19112      0.99959     2.18088    0.01065     3.19112
      C    7   -0.28409      0.99966     2.27889    0.00554     3.28409
      C    8   -0.19636      0.99957     2.18595    0.01084     3.19636
      C    9   -0.08927      0.99960     2.07768    0.01200     3.08927
      N   10   -0.32764      0.99966     2.81801    0.00997     3.82764
      C   11    0.45512      0.99972     1.51973    0.02543     2.54488
      O   12   -0.33635      0.99987     3.33109    0.00539     4.33635
      O   13   -0.35447      0.99988     3.34820    0.00639     4.35447
      H   14    0.09489      0.00000     0.40416    0.00095     0.40511
      H   15    0.09958      0.00000     0.39965    0.00077     0.40042
      H   16    0.09922      0.00000     0.39929    0.00150     0.40078
      H   17    0.09722      0.00000     0.40167    0.00111     0.40278
      H   18    0.09952      0.00000     0.39871    0.00177     0.40048
      H   19    0.09809      0.00000     0.40066    0.00125     0.40191
      H   20    0.09710      0.00000     0.40174    0.00117     0.40290
      H   21    0.09713      0.00000     0.40167    0.00120     0.40287
      H   22    0.09993      0.00000     0.39920    0.00087     0.40007
      H   23    0.09642      0.00000     0.40266    0.00093     0.40358
      H   24    0.09757      0.00000     0.40089    0.00154     0.40243
      H   25    0.09836      0.00000     0.40016    0.00148     0.40164
      H   26    0.08867      0.00000     0.40980    0.00153     0.41133
      H   27    0.10272      0.00000     0.39616    0.00113     0.39728
      H   28    0.09735      0.00000     0.40149    0.00116     0.40265
      H   29    0.10436      0.00000     0.39395    0.00169     0.39564
      H   30    0.10243      0.00000     0.39604    0.00153     0.39757
      H   31    0.10385      0.00000     0.39475    0.00141     0.39615
      H   32    0.10016      0.00000     0.39842    0.00142     0.39984
      H   33    0.19879      0.00000     0.29901    0.00221     0.30121
      H   34    0.24542      0.00000     0.24842    0.00616     0.25458
 =======================================================================
   * Total *    0.00000     12.99560    38.84149    0.16291    52.00000

 Normal termination of Gaussian 16 at Sun Dec 13 13:12:12 2020.
