 Gaussian 16, Revision A.03,

 -----------------------------------------------------------
 # opt freq B3LYP/6-31G(d) empiricaldispersion=gd3bj scf=xqc
 -----------------------------------------------------------

 -------------------------------
 CID_116433397_JID_3508_neutraal
 -------------------------------
 Symbolic Z-matrix:
 Charge =  0 Multiplicity = 1

 SCF Done:  E(RB3LYP) =  -577.845908431     A.U. after   12 cycles
 SCF Done:  E(RB3LYP) =  -577.850799501     A.U. after   11 cycles
 SCF Done:  E(RB3LYP) =  -577.851344729     A.U. after   10 cycles
 SCF Done:  E(RB3LYP) =  -577.851495856     A.U. after   10 cycles
 SCF Done:  E(RB3LYP) =  -577.851591065     A.U. after    9 cycles
 SCF Done:  E(RB3LYP) =  -577.851666051     A.U. after   10 cycles
 SCF Done:  E(RB3LYP) =  -577.851713397     A.U. after   10 cycles
 SCF Done:  E(RB3LYP) =  -577.851741837     A.U. after   10 cycles
 SCF Done:  E(RB3LYP) =  -577.851781527     A.U. after   10 cycles
 SCF Done:  E(RB3LYP) =  -577.851829708     A.U. after   10 cycles
 SCF Done:  E(RB3LYP) =  -577.853518645     A.U. after    8 cycles
 SCF Done:  E(RB3LYP) =  -577.853519495     A.U. after    8 cycles
 SCF Done:  E(RB3LYP) =  -577.853519069     A.U. after   10 cycles
 SCF Done:  E(RB3LYP) =  -577.853520042     A.U. after    9 cycles
 SCF Done:  E(RB3LYP) =  -577.853520057     A.U. after    6 cycles
 SCF Done:  E(RB3LYP) =  -577.853520050     A.U. after    7 cycles
 Optimization completed.
    -- Stationary point found.
 Normal termination of Gaussian 16 at Sun Dec 13 20:33:00 2020.

 --------------------------------------------------------------------
 #N Geom=AllCheck Guess=TCheck SCRF=Check GenChk RB3LYP/6-31G(d) Freq
 --------------------------------------------------------------------

 Structure from the checkpoint file:  "JID_3508.chk"
 -------------------------------
 CID_116433397_JID_3508_neutraal
 -------------------------------
 Charge =  0 Multiplicity = 1

 SCF Done:  E(RB3LYP) =  -577.853520050     A.U. after    1 cycles

  Exact polarizability: 142.513   3.118 106.954  -2.588  -2.732 103.150
 Approx polarizability: 170.096   1.467 152.706  -0.831  -2.190 158.750

                      1                      2                      3
                      A                      A                      A
 Frequencies --     19.1548                31.2272                50.7225
 Red. masses --      3.1499                 3.2505                 2.5637
 Frc consts  --      0.0007                 0.0019                 0.0039
 IR Inten    --      0.1892                 2.1087                 1.8463

                      4                      5                      6
                      A                      A                      A
 Frequencies --     57.1303               100.7675               131.3762
 Red. masses --      3.4554                 2.9179                 3.2245
 Frc consts  --      0.0066                 0.0175                 0.0328
 IR Inten    --      0.2109                 0.2292                 0.8024

                      7                      8                      9
                      A                      A                      A
 Frequencies --    200.4055               205.9424               250.6101
 Red. masses --      1.7777                 2.4186                 1.2917
 Frc consts  --      0.0421                 0.0604                 0.0478
 IR Inten    --      0.8993                 0.2178                 0.0534

                     10                     11                     12
                      A                      A                      A
 Frequencies --    283.7626               297.2482               332.5922
 Red. masses --      2.5932                 2.3229                 2.6063
 Frc consts  --      0.1230                 0.1209                 0.1699
 IR Inten    --      4.2140                 2.9210                 0.4948

                     13                     14                     15
                      A                      A                      A
 Frequencies --    359.1777               446.0557               482.2113
 Red. masses --      2.2517                 2.8610                 2.3766
 Frc consts  --      0.1712                 0.3354                 0.3256
 IR Inten    --      0.6074                 4.6913                 6.3123

                     16                     17                     18
                      A                      A                      A
 Frequencies --    526.6434               604.1391               620.8573
 Red. masses --      2.2467                 2.2038                 2.1522
 Frc consts  --      0.3671                 0.4739                 0.4888
 IR Inten    --      0.5289                 0.4262                 4.2563

                     19                     20                     21
                      A                      A                      A
 Frequencies --    656.6315               687.4508               778.0754
 Red. masses --      2.7853                 3.6602                 1.8138
 Frc consts  --      0.7076                 1.0191                 0.6470
 IR Inten    --      0.7486                10.6144                51.6431

                     22                     23                     24
                      A                      A                      A
 Frequencies --    833.5719               856.0271               866.4181
 Red. masses --      2.2412                 1.7718                 1.9068
 Frc consts  --      0.9175                 0.7650                 0.8433
 IR Inten    --      0.1775                61.3028                93.1945

                     25                     26                     27
                      A                      A                      A
 Frequencies --    871.2612               898.8689               918.8280
 Red. masses --      1.9409                 2.0503                 2.1015
 Frc consts  --      0.8680                 0.9760                 1.0453
 IR Inten    --      4.3087                 3.2611                 4.5642

                     28                     29                     30
                      A                      A                      A
 Frequencies --    935.7117               937.4633               955.1433
 Red. masses --      2.4523                 2.8677                 2.2539
 Frc consts  --      1.2650                 1.4849                 1.2115
 IR Inten    --      8.7129                32.1124                 4.1579

                     31                     32                     33
                      A                      A                      A
 Frequencies --    972.2186               986.0444               988.2453
 Red. masses --      2.0074                 1.4049                 1.5529
 Frc consts  --      1.1179                 0.8048                 0.8936
 IR Inten    --      9.1437                 5.1281                 9.6312

                     34                     35                     36
                      A                      A                      A
 Frequencies --   1028.5215              1046.2389              1054.4984
 Red. masses --      1.8913                 1.6533                 2.2975
 Frc consts  --      1.1788                 1.0662                 1.5052
 IR Inten    --     17.6536                 6.5868                 1.3626

                     37                     38                     39
                      A                      A                      A
 Frequencies --   1059.0763              1103.8037              1109.2165
 Red. masses --      2.0282                 2.4097                 3.6485
 Frc consts  --      1.3403                 1.7298                 2.6449
 IR Inten    --      1.0504                31.0069                41.2989

                     40                     41                     42
                      A                      A                      A
 Frequencies --   1127.8442              1138.5412              1143.3786
 Red. masses --      3.3901                 3.1076                 2.9385
 Frc consts  --      2.5408                 2.3734                 2.2634
 IR Inten    --     48.0003                43.3000                 4.3632

                     43                     44                     45
                      A                      A                      A
 Frequencies --   1190.0145              1198.3975              1209.8423
 Red. masses --      2.1704                 1.7477                 1.3029
 Frc consts  --      1.8109                 1.4788                 1.1236
 IR Inten    --     24.2044                17.7254                 9.0089

                     46                     47                     48
                      A                      A                      A
 Frequencies --   1221.3858              1242.1853              1251.5949
 Red. masses --      1.3993                 1.3032                 1.2819
 Frc consts  --      1.2299                 1.1848                 1.1831
 IR Inten    --      9.2518                15.5963                 4.0555

                     49                     50                     51
                      A                      A                      A
 Frequencies --   1258.8646              1299.4659              1310.4488
 Red. masses --      1.3218                 1.3217                 1.3717
 Frc consts  --      1.2341                 1.3149                 1.3879
 IR Inten    --      8.8211                 1.2907                 0.7198

                     52                     53                     54
                      A                      A                      A
 Frequencies --   1326.7699              1329.3076              1344.9766
 Red. masses --      1.3187                 1.3138                 1.2238
 Frc consts  --      1.3677                 1.3678                 1.3043
 IR Inten    --      1.4066                 4.5032                 2.0338

                     55                     56                     57
                      A                      A                      A
 Frequencies --   1359.4653              1361.9599              1368.9936
 Red. masses --      1.2804                 1.2686                 1.2735
 Frc consts  --      1.3943                 1.3864                 1.4063
 IR Inten    --      3.4219                 2.7942                11.3277

                     58                     59                     60
                      A                      A                      A
 Frequencies --   1376.4934              1384.2736              1406.5506
 Red. masses --      1.2833                 1.3446                 1.3976
 Frc consts  --      1.4326                 1.5181                 1.6291
 IR Inten    --      8.3243                 6.4507                10.6202

                     61                     62                     63
                      A                      A                      A
 Frequencies --   1412.5518              1431.1841              1436.1981
 Red. masses --      1.3948                 1.4955                 1.2545
 Frc consts  --      1.6397                 1.8048                 1.5246
 IR Inten    --      6.6221                 9.1686                11.9517

                     64                     65                     66
                      A                      A                      A
 Frequencies --   1484.9459              1501.4103              1515.5077
 Red. masses --      1.1544                 1.1629                 1.1015
 Frc consts  --      1.4998                 1.5445                 1.4905
 IR Inten    --      8.0599                13.0837                 0.6800

                     67                     68                     69
                      A                      A                      A
 Frequencies --   1516.5954              1518.3487              1524.6233
 Red. masses --      1.0842                 1.1014                 1.0829
 Frc consts  --      1.4692                 1.4961                 1.4831
 IR Inten    --      1.2538                 1.7450                 1.1125

                     70                     71                     72
                      A                      A                      A
 Frequencies --   1532.3126              1534.7942              1545.5094
 Red. masses --      1.0953                 1.0748                 1.0858
 Frc consts  --      1.5153                 1.4917                 1.5280
 IR Inten    --      2.9567                 8.1371                 3.8515

                     73                     74                     75
                      A                      A                      A
 Frequencies --   1557.7559              2962.7510              2977.5563
 Red. masses --      1.0990                 1.0831                 1.0735
 Frc consts  --      1.5712                 5.6013                 5.6074
 IR Inten    --      0.1301                56.5621                91.9312

                     76                     77                     78
                      A                      A                      A
 Frequencies --   3008.9456              3039.0557              3044.4760
 Red. masses --      1.0825                 1.0635                 1.0569
 Frc consts  --      5.7743                 5.7874                 5.7716
 IR Inten    --     12.2940                 2.7723                26.8253

                     79                     80                     81
                      A                      A                      A
 Frequencies --   3048.6229              3052.6706              3054.4382
 Red. masses --      1.0576                 1.0645                 1.0665
 Frc consts  --      5.7914                 5.8444                 5.8625
 IR Inten    --     65.9725                24.8919                40.9822

                     82                     83                     84
                      A                      A                      A
 Frequencies --   3057.8904              3058.2879              3083.6288
 Red. masses --      1.0628                 1.0658                 1.1092
 Frc consts  --      5.8552                 5.8732                 6.2142
 IR Inten    --     51.8989                 7.8321                53.5043

                     85                     86                     87
                      A                      A                      A
 Frequencies --   3100.2253              3102.8445              3109.4755
 Red. masses --      1.0913                 1.1014                 1.0979
 Frc consts  --      6.1797                 6.2474                 6.2546
 IR Inten    --     50.0797                22.8263                36.5941

                     88                     89                     90
                      A                      A                      A
 Frequencies --   3116.3150              3117.1970              3120.4227
 Red. masses --      1.1028                 1.1013                 1.1042
 Frc consts  --      6.3101                 6.3050                 6.3345
 IR Inten    --     32.7824                29.6531                51.1542

                     91                     92                     93
                      A                      A                      A
 Frequencies --   3123.8284              3460.2697              3466.9600
 Red. masses --      1.1015                 1.0742                 1.0735
 Frc consts  --      6.3329                 7.5779                 7.6021
 IR Inten    --     46.2953                 3.7751                 1.0286

 - Thermochemistry -
 -------------------
 Temperature   298.150 Kelvin.  Pressure   1.00000 Atm.
 Atom     1 has atomic number  6 and mass  12.00000

 Molecular mass:   184.15756 amu.
 Principal axes and moments of inertia in atomic units:
                           1         2         3
     Eigenvalues --  1160.408044738.737515261.46155
           X            0.99994   0.00969  -0.00443
           Y           -0.00978   0.99973  -0.02098
           Z            0.00423   0.02103   0.99977
 This molecule is an asymmetric top.
 Rotational symmetry number  1.
 Warning -- assumption of classical behavior for rotation
           may cause significant error
 Rotational temperatures (Kelvin)      0.07464     0.01828     0.01646
 Rotational constants (GHZ):           1.55526     0.38085     0.34301
 Zero-point vibrational energy     795586.6 (Joules/Mol)
                                  190.14976 (Kcal/Mol)
 Warning -- explicit consideration of  17 degrees of freedom as
           vibrations may cause significant error
 Vibrational temperatures:     27.56    44.93    72.98    82.20   144.98
          (Kelvin)            189.02   288.34   296.31   360.57   408.27
                              427.67   478.53   516.78   641.77   693.79
                              757.72   869.22   893.28   944.75   989.09
                             1119.48  1199.32  1231.63  1246.58  1253.55
                             1293.27  1321.99  1346.28  1348.80  1374.24
                             1398.81  1418.70  1421.86  1479.81  1505.30
                             1517.19  1523.77  1588.13  1595.92  1622.72
                             1638.11  1645.07  1712.17  1724.23  1740.69
                             1757.30  1787.23  1800.77  1811.23  1869.64
                             1885.44  1908.93  1912.58  1935.12  1955.97
                             1959.56  1969.68  1980.47  1991.66  2023.71
                             2032.35  2059.15  2066.37  2136.51  2160.19
                             2180.48  2182.04  2184.57  2193.59  2204.66
                             2208.23  2223.64  2241.26  4262.74  4284.04
                             4329.20  4372.52  4380.32  4386.29  4392.11
                             4394.66  4399.62  4400.19  4436.65  4460.53
                             4464.30  4473.84  4483.68  4484.95  4489.59
                             4494.49  4978.56  4988.18

 Zero-point correction=                           0.303023 (Hartree/Particle)
 Thermal correction to Energy=                    0.316362
 Thermal correction to Enthalpy=                  0.317306
 Thermal correction to Gibbs Free Energy=         0.260566
 Sum of electronic and zero-point Energies=           -577.550497
 Sum of electronic and thermal Energies=              -577.537158
 Sum of electronic and thermal Enthalpies=            -577.536214
 Sum of electronic and thermal Free Energies=         -577.592955

                     E (Thermal)             CV                S
                      KCal/Mol        Cal/Mol-Kelvin    Cal/Mol-Kelvin
 Total                  198.520             50.106            119.421
 Electronic               0.000              0.000              0.000
 Translational            0.889              2.981             41.538
 Rotational               0.889              2.981             31.737
 Vibrational            196.743             44.144             46.146
 Vibration     1          0.593              1.986              6.720
 Vibration     2          0.594              1.983              5.750
 Vibration     3          0.595              1.977              4.789
 Vibration     4          0.596              1.975              4.554
 Vibration     5          0.604              1.949              3.439
 Vibration     6          0.612              1.922              2.926
 Vibration     7          0.638              1.839              2.129
 Vibration     8          0.640              1.831              2.079
 Vibration     9          0.663              1.762              1.726
 Vibration    10          0.682              1.704              1.511
 Vibration    11          0.691              1.679              1.432
 Vibration    12          0.715              1.610              1.247
 Vibration    13          0.734              1.556              1.126
 Vibration    14          0.805              1.370              0.808
 Vibration    15          0.838              1.290              0.704
 Vibration    16          0.882              1.191              0.595
 Vibration    17          0.963              1.023              0.443

 Optimization completed on the basis of negligible forces.
    -- Stationary point found.
 Normal termination of Gaussian 16 at Sun Dec 13 20:41:46 2020.

 ----------------------------------------------------------------------
 # B3LYP/6-311++G(d,p) empiricaldispersion=gd3bj scf=xqc pop=npa geom=c
 heck
 ----------------------------------------------------------------------

 ---------------------------------------
 CID_116433397_JID_3508_Energie_neutraal
 ---------------------------------------
 Structure from the checkpoint file:  "JID_3508.chk"
 Charge =  0 Multiplicity = 1

 SCF Done:  E(RB3LYP) =  -578.022425157     A.U. after   13 cycles
 Normal termination of Gaussian 16 at Sun Dec 13 20:45:48 2020.

 ----------------------------------------------------------------------
 # B3LYP/6-311++G(d,p) empiricaldispersion=gd3bj scf=xqc pop=npa geom=c
 heck
 ----------------------------------------------------------------------

 -------------------------------------
 CID_116433397_JID_3508_Energie_kation
 -------------------------------------
 Structure from the checkpoint file:  "JID_3508.chk"
 Charge =  1 Multiplicity = 2

 SCF Done:  E(UB3LYP) =  -577.725969084     A.U. after   27 cycles
 Normal termination of Gaussian 16 at Sun Dec 13 20:57:21 2020.
 Gaussian 16:  ES64L-G16RevA.03 25-Dec-2016

 ----------------------------------------------------------------------
 # B3LYP/6-311++G(d,p) empiricaldispersion=gd3bj scf=xqc pop=npa geom=c
 heck
 ----------------------------------------------------------------------

 ------------------------------------
 CID_116433397_JID_3508_Energie_anion
 ------------------------------------
 Structure from the checkpoint file:  "JID_3508.chk"
 Charge = -1 Multiplicity = 2

                         Standard orientation:
 ---------------------------------------------------------------------
 Center     Atomic      Atomic             Coordinates (Angstroms)
 Number     Number       Type             X           Y           Z
 ---------------------------------------------------------------------
      1          6           0        0.609956    2.441531   -0.112770
      2          6           0        0.522232    0.907733   -0.114529
      3          6           0        1.812824    0.260274    0.394426
      4          6           0        3.082101    0.592004   -0.408735
      5          6           0        3.962436   -0.617575   -0.099222
      6          8           0        3.075448   -1.729606   -0.074632
      7          6           0        1.776904   -1.283692    0.337114
      8          7           0       -0.596023    0.367527    0.673301
      9          6           0       -1.938934    0.642877    0.156595
     10          6           0       -3.018359    0.074602    1.114139
     11          6           0       -3.597751   -1.134613    0.349423
     12          7           0       -3.496566   -0.799552   -1.077720
     13          6           0       -2.193828   -0.126913   -1.178674
     14          1           0        0.809476    2.813530    0.900832
     15          1           0       -0.322692    2.896957   -0.461178
     16          1           0        1.415322    2.796708   -0.764576
     17          1           0        0.373121    0.568223   -1.148473
     18          1           0        1.967595    0.578916    1.436380
     19          1           0        3.542059    1.543328   -0.125337
     20          1           0        2.853082    0.625003   -1.481656
     21          1           0        4.731064   -0.813795   -0.853445
     22          1           0        4.462525   -0.492045    0.876619
     23          1           0        1.517667   -1.723486    1.307298
     24          1           0        1.041947   -1.638933   -0.395199
     25          1           0       -0.524488    0.734885    1.622119
     26          1           0       -2.115951    1.720255    0.000151
     27          1           0       -3.801883    0.821063    1.288693
     28          1           0       -2.594367   -0.199632    2.086148
     29          1           0       -2.981678   -2.023184    0.534560
     30          1           0       -4.629395   -1.377325    0.620584
     31          1           0       -4.227906   -0.122644   -1.297401
     32          1           0       -2.159756    0.510505   -2.066989
     33          1           0       -1.416691   -0.894675   -1.277744
 ---------------------------------------------------------------------

 SCF Done:  E(UB3LYP) =  -578.010369292     A.U. after   28 cycles

 The electronic state is 2-A.
 Alpha  occ. eigenvalues --  -19.02317 -14.19684 -14.19613 -10.12082 -10.11183
 Alpha  occ. eigenvalues --  -10.10197 -10.09302 -10.08934 -10.08481 -10.07876
 Alpha  occ. eigenvalues --  -10.07489 -10.06274 -10.05612  -0.94025  -0.82772
 Alpha  occ. eigenvalues --   -0.80028  -0.70527  -0.65706  -0.63717  -0.62228
 Alpha  occ. eigenvalues --   -0.60450  -0.53078  -0.50461  -0.50084  -0.47518
 Alpha  occ. eigenvalues --   -0.46681  -0.41122  -0.40580  -0.39592  -0.37946
 Alpha  occ. eigenvalues --   -0.35985  -0.34609  -0.34116  -0.33092  -0.32154
 Alpha  occ. eigenvalues --   -0.31106  -0.30403  -0.29244  -0.28682  -0.26815
 Alpha  occ. eigenvalues --   -0.25987  -0.25486  -0.25099  -0.24254  -0.23530
 Alpha  occ. eigenvalues --   -0.22861  -0.22232  -0.21672  -0.15861  -0.13873
 Alpha  occ. eigenvalues --   -0.12611   0.04289
 Alpha virt. eigenvalues --    0.06171   0.07232   0.07561   0.08609   0.08785
 Alpha virt. eigenvalues --    0.09048   0.10183   0.10605   0.10809   0.11031
 Alpha virt. eigenvalues --    0.11327   0.12310   0.12940   0.13548   0.13847

  Beta  occ. eigenvalues --  -19.02315 -14.19673 -14.19593 -10.12069 -10.11180
  Beta  occ. eigenvalues --  -10.10191 -10.09286 -10.08923 -10.08470 -10.07864
  Beta  occ. eigenvalues --  -10.07469 -10.06251 -10.05571  -0.94018  -0.82739
  Beta  occ. eigenvalues --   -0.79999  -0.70499  -0.65671  -0.63684  -0.62186
  Beta  occ. eigenvalues --   -0.60403  -0.53029  -0.50406  -0.50043  -0.47478
  Beta  occ. eigenvalues --   -0.46635  -0.41065  -0.40538  -0.39566  -0.37915
  Beta  occ. eigenvalues --   -0.35945  -0.34578  -0.34086  -0.33051  -0.32128
  Beta  occ. eigenvalues --   -0.31069  -0.30377  -0.29209  -0.28646  -0.26777
  Beta  occ. eigenvalues --   -0.25949  -0.25454  -0.25069  -0.24220  -0.23490
  Beta  occ. eigenvalues --   -0.22824  -0.22203  -0.21655  -0.15845  -0.13846
  Beta  occ. eigenvalues --   -0.12587
  Beta virt. eigenvalues --    0.06560   0.07182   0.07747   0.08154   0.08890
  Beta virt. eigenvalues --    0.09253   0.09566   0.10640   0.10926   0.11247
  Beta virt. eigenvalues --    0.11338   0.11510   0.12647   0.13232   0.13772

 Mulliken charges and spin densities:
               1          2
     1  C    1.183104  -1.776696
     2  C   -0.756353   0.283504
     3  C   -0.310849   0.690066
     4  C    0.209791  -0.539460
     5  C    0.412277  -0.865008
     6  O   -0.149403   0.021571
     7  C   -0.366288  -0.084372
     8  N    0.098747   0.092358
     9  C   -0.847976   0.803543
    10  C    0.815566  -1.158486
    11  C    0.071912  -0.487451
    12  N   -0.166445   0.138581
    13  C    0.063317  -0.699487
    14  H   -0.250036   0.405928
    15  H   -0.505294   0.656424
    16  H   -0.323411   0.478631
    17  H    0.480053  -0.337595
    18  H   -0.124110   0.304514
    19  H   -0.173710   0.329296
    20  H   -0.072004   0.229280
    21  H    0.035139   0.125405
    22  H   -0.132314   0.268054
    23  H    0.092431   0.071786
    24  H    0.217333   0.004066
    25  H    0.061509   0.167252
    26  H   -0.058704   0.212936
    27  H   -0.401236   0.566819
    28  H   -0.039233   0.130864
    29  H    0.170047  -0.031379
    30  H   -0.050083   0.228430
    31  H   -0.097705   0.340815
    32  H   -0.137317   0.306910
    33  H    0.051247   0.122902
 Sum of Mulliken charges =  -1.00000   1.00000

 Dipole moment (field-independent basis, Debye):
    X=              2.6206    Y=             -4.0084    Z=              0.2377  Tot=              4.7949
 Quadrupole moment (field-independent basis, Debye-Ang):
   XX=           -164.1887   YY=           -131.8450   ZZ=           -113.5998
   XY=              2.4461   XZ=             -5.4589   YZ=             -2.8013

 Summary of Natural Population Analysis:

                                       Natural Population
                Natural  -----------------------------------------------
    Atom  No    Charge         Core      Valence    Rydberg      Total
 -----------------------------------------------------------------------
      C    1   -0.29448      0.99964     2.28885    0.00599     3.29448
      C    2   -0.00768      0.99957     1.99587    0.01225     3.00768
      C    3   -0.12311      0.99957     2.11174    0.01180     3.12311
      C    4   -0.20295      0.99962     2.19500    0.00833     3.20295
      C    5   -0.00808      0.99960     1.99523    0.01325     3.00808
      O    6   -0.30574      0.99989     3.29777    0.00807     4.30574
      C    7   -0.00333      0.99958     1.99299    0.01076     3.00333
      N    8   -0.34355      0.99972     2.83236    0.01147     3.84355
      C    9   -0.02155      0.99959     2.00832    0.01363     3.02155
      C   10   -0.20056      0.99962     2.19177    0.00917     3.20056
      C   11   -0.09103      0.99964     2.08018    0.01120     3.09103
      N   12   -0.33422      0.99977     2.82174    0.01271     3.83422
      C   13   -0.09568      0.99962     2.08430    0.01176     3.09568
      H   14    0.09822      0.00000     0.40012    0.00166     0.40178
      H   15    0.10389      0.00000     0.39477    0.00133     0.39611
      H   16    0.10134      0.00000     0.39739    0.00126     0.39866
      H   17    0.09038      0.00000     0.40731    0.00232     0.40962
      H   18    0.09741      0.00000     0.40096    0.00164     0.40259
      H   19    0.10754      0.00000     0.39107    0.00139     0.39246
      H   20    0.09651      0.00000     0.40230    0.00118     0.40349
      H   21    0.08725      0.00000     0.41159    0.00116     0.41275
      H   22    0.07566      0.00000     0.42295    0.00139     0.42434
      H   23    0.08524      0.00000     0.41344    0.00132     0.41476
      H   24    0.08679      0.00000     0.41171    0.00150     0.41321
      H   25    0.17250      0.00000     0.32469    0.00280     0.32750
      H   26    0.08616      0.00000     0.41029    0.00355     0.41384
      H   27    0.10024      0.00000     0.39749    0.00227     0.39976
      H   28    0.10004      0.00000     0.39895    0.00102     0.39996
      H   29    0.08813      0.00000     0.41053    0.00135     0.41187
      H   30    0.09483      0.00000     0.40422    0.00096     0.40517
      H   31    0.17077      0.00000     0.32594    0.00329     0.32923
      H   32    0.09762      0.00000     0.40126    0.00112     0.40238
      H   33    0.09145      0.00000     0.40675    0.00180     0.40855
 =======================================================================
   * Total *   -0.00000     12.99545    37.82986    0.17469    51.00000

 Normal termination of Gaussian 16 at Sun Dec 13 21:09:07 2020.
