 Gaussian 16, Revision A.03,

 -----------------------------------------------------------
 # opt freq B3LYP/6-31G(d) empiricaldispersion=gd3bj scf=xqc
 -----------------------------------------------------------

 -------------------------------
 CID_104060000_JID_6148_neutraal
 -------------------------------
 Symbolic Z-matrix:
 Charge =  0 Multiplicity = 1

 SCF Done:  E(RB3LYP) =  -708.231732994     A.U. after   14 cycles
 SCF Done:  E(RB3LYP) =  -708.237112977     A.U. after   13 cycles
 SCF Done:  E(RB3LYP) =  -708.238650107     A.U. after   12 cycles
 SCF Done:  E(RB3LYP) =  -708.239750572     A.U. after   12 cycles
 SCF Done:  E(RB3LYP) =  -708.240523939     A.U. after   12 cycles
 SCF Done:  E(RB3LYP) =  -708.241462687     A.U. after   13 cycles
 SCF Done:  E(RB3LYP) =  -708.241893003     A.U. after   12 cycles
 SCF Done:  E(RB3LYP) =  -708.242116159     A.U. after   12 cycles
 SCF Done:  E(RB3LYP) =  -708.242252169     A.U. after   11 cycles
 SCF Done:  E(RB3LYP) =  -708.242347853     A.U. after   12 cycles
 SCF Done:  E(RB3LYP) =  -708.242362011     A.U. after   11 cycles
 SCF Done:  E(RB3LYP) =  -708.242367436     A.U. after   11 cycles
 SCF Done:  E(RB3LYP) =  -708.242375418     A.U. after   10 cycles
 SCF Done:  E(RB3LYP) =  -708.242376521     A.U. after    9 cycles
 SCF Done:  E(RB3LYP) =  -708.242376587     A.U. after    7 cycles
 Optimization completed.
    -- Stationary point found.
 Normal termination of Gaussian 16 at Thu Dec 10 21:15:54 2020.

 --------------------------------------------------------------------
 #N Geom=AllCheck Guess=TCheck SCRF=Check GenChk RB3LYP/6-31G(d) Freq
 --------------------------------------------------------------------

 Structure from the checkpoint file:  "JID_6148.chk"
 -------------------------------
 CID_104060000_JID_6148_neutraal
 -------------------------------
 Charge =  0 Multiplicity = 1

 SCF Done:  E(RB3LYP) =  -708.242376587     A.U. after    1 cycles

  Exact polarizability: 184.674   6.236 163.443   0.411   6.689  98.961
 Approx polarizability: 262.310  11.341 244.740  -0.007  15.984 150.179

                      1                      2                      3
                      A                      A                      A
 Frequencies --     32.2305                44.1582                67.3509
 Red. masses --      3.4571                 3.4772                 4.3223
 Frc consts  --      0.0021                 0.0040                 0.0116
 IR Inten    --      0.9957                 0.8704                 0.1046

                      4                      5                      6
                      A                      A                      A
 Frequencies --     94.2488               117.7092               169.3818
 Red. masses --      3.1447                 3.7170                 2.7753
 Frc consts  --      0.0165                 0.0303                 0.0469
 IR Inten    --      0.9468                 0.8333                 3.7482

                      7                      8                      9
                      A                      A                      A
 Frequencies --    186.8688               197.4301               216.4285
 Red. masses --      1.8690                 1.3710                 1.5969
 Frc consts  --      0.0385                 0.0315                 0.0441
 IR Inten    --      1.4457                 0.7397                 0.4579

                     10                     11                     12
                      A                      A                      A
 Frequencies --    236.1529               268.2910               303.7276
 Red. masses --      2.0247                 3.1648                 2.6720
 Frc consts  --      0.0665                 0.1342                 0.1452
 IR Inten    --      2.3684                 1.2340                 0.7708

                     13                     14                     15
                      A                      A                      A
 Frequencies --    319.9598               336.3087               359.6115
 Red. masses --      3.4605                 2.9789                 2.9916
 Frc consts  --      0.2087                 0.1985                 0.2279
 IR Inten    --      1.3351                 5.0970                 4.0135

                     16                     17                     18
                      A                      A                      A
 Frequencies --    408.9925               441.1659               453.2074
 Red. masses --      2.0366                 3.4044                 2.0734
 Frc consts  --      0.2007                 0.3904                 0.2509
 IR Inten    --      4.2584                 0.2318                11.8790

                     19                     20                     21
                      A                      A                      A
 Frequencies --    503.0214               517.9727               543.2792
 Red. masses --      4.3797                 2.8588                 3.4966
 Frc consts  --      0.6529                 0.4519                 0.6081
 IR Inten    --      1.0360                 0.9678                 6.4601

                     22                     23                     24
                      A                      A                      A
 Frequencies --    581.9851               589.7410               602.0698
 Red. masses --      4.4063                 4.2165                 5.2520
 Frc consts  --      0.8793                 0.8640                 1.1217
 IR Inten    --      4.3300                 4.1407                11.0161

                     25                     26                     27
                      A                      A                      A
 Frequencies --    686.7544               743.9166               768.7109
 Red. masses --      3.1669                 2.6260                 3.4196
 Frc consts  --      0.8800                 0.8562                 1.1906
 IR Inten    --      1.2742                 1.4905                17.4581

                     28                     29                     30
                      A                      A                      A
 Frequencies --    794.9065               797.6612               814.9550
 Red. masses --      2.7926                 1.7130                 1.8517
 Frc consts  --      1.0397                 0.6422                 0.7246
 IR Inten    --     38.7238                29.0986                49.1670

                     31                     32                     33
                      A                      A                      A
 Frequencies --    834.0178               849.9439               906.3465
 Red. masses --      1.5737                 2.0280                 1.9543
 Frc consts  --      0.6449                 0.8632                 0.9459
 IR Inten    --     22.9879                45.3948                17.2155

                     34                     35                     36
                      A                      A                      A
 Frequencies --    913.6491               917.4371               920.9495
 Red. masses --      1.8405                 1.3447                 2.1834
 Frc consts  --      0.9052                 0.6668                 1.0911
 IR Inten    --      2.4071                 1.7411                14.4496

                     37                     38                     39
                      A                      A                      A
 Frequencies --    939.7850               952.1290               990.1037
 Red. masses --      2.3546                 1.3076                 1.9681
 Frc consts  --      1.2253                 0.6984                 1.1367
 IR Inten    --      7.8090                 1.2657                 1.6485

                     40                     41                     42
                      A                      A                      A
 Frequencies --   1016.6711              1063.0873              1075.6882
 Red. masses --      2.3039                 4.2351                 1.8583
 Frc consts  --      1.4030                 2.8200                 1.2669
 IR Inten    --     29.3268                37.4599                 6.2699

                     43                     44                     45
                      A                      A                      A
 Frequencies --   1086.9956              1099.8791              1112.1176
 Red. masses --      1.7547                 2.4895                 2.1927
 Frc consts  --      1.2216                 1.7744                 1.5978
 IR Inten    --     12.5161                17.2511                 7.8049

                     46                     47                     48
                      A                      A                      A
 Frequencies --   1127.4183              1150.1032              1173.9658
 Red. masses --      1.9105                 1.7352                 1.9940
 Frc consts  --      1.4308                 1.3523                 1.6191
 IR Inten    --     11.7733                85.8589                25.5971

                     49                     50                     51
                      A                      A                      A
 Frequencies --   1180.8756              1202.7887              1208.6689
 Red. masses --      2.0908                 1.9239                 2.1233
 Frc consts  --      1.7178                 1.6399                 1.8276
 IR Inten    --      0.4966                17.3899                 3.2968

                     52                     53                     54
                      A                      A                      A
 Frequencies --   1246.4336              1261.6597              1285.4187
 Red. masses --      3.2113                 1.3442                 1.5391
 Frc consts  --      2.9395                 1.2607                 1.4983
 IR Inten    --    200.0921                28.5662               121.5297

                     55                     56                     57
                      A                      A                      A
 Frequencies --   1294.4122              1312.4956              1327.7820
 Red. masses --      1.3888                 1.4917                 1.5006
 Frc consts  --      1.3710                 1.5140                 1.5587
 IR Inten    --     82.3918                 3.8225                10.6372

                     58                     59                     60
                      A                      A                      A
 Frequencies --   1350.0945              1361.0752              1377.6423
 Red. masses --      1.8078                 1.9503                 1.3873
 Frc consts  --      1.9415                 2.1287                 1.5513
 IR Inten    --     27.5063                26.2148                 9.5609

                     61                     62                     63
                      A                      A                      A
 Frequencies --   1396.6956              1398.5671              1410.6187
 Red. masses --      1.2951                 1.6125                 1.5607
 Frc consts  --      1.4885                 1.8583                 1.8297
 IR Inten    --     14.1927                12.8833                 4.3909

                     64                     65                     66
                      A                      A                      A
 Frequencies --   1418.7170              1431.5283              1434.8261
 Red. masses --      1.2591                 1.3802                 1.4345
 Frc consts  --      1.4932                 1.6665                 1.7400
 IR Inten    --      1.0547                24.8793                52.2992

                     67                     68                     69
                      A                      A                      A
 Frequencies --   1443.2408              1499.6100              1505.6154
 Red. masses --      1.2927                 2.0033                 1.2032
 Frc consts  --      1.5864                 2.6543                 1.6070
 IR Inten    --     22.1688                19.7086                25.6310

                     70                     71                     72
                      A                      A                      A
 Frequencies --   1507.8508              1514.4494              1516.1407
 Red. masses --      1.1359                 1.6840                 1.0753
 Frc consts  --      1.5216                 2.2756                 1.4563
 IR Inten    --     25.7040               207.6236                 1.0889

                     73                     74                     75
                      A                      A                      A
 Frequencies --   1517.1153              1523.2426              1528.5899
 Red. masses --      1.2598                 1.1436                 1.3397
 Frc consts  --      1.7084                 1.5634                 1.8443
 IR Inten    --     68.3806                 1.8539                62.6860

                     76                     77                     78
                      A                      A                      A
 Frequencies --   1532.2434              1538.1007              1549.5438
 Red. masses --      1.0541                 1.0612                 1.0967
 Frc consts  --      1.4581                 1.4792                 1.5515
 IR Inten    --      3.1126                 3.1990                 4.8647

                     79                     80                     81
                      A                      A                      A
 Frequencies --   1620.3315              1645.5052              2947.6314
 Red. masses --      6.4921                 5.4091                 1.0750
 Frc consts  --     10.0426                 8.6293                 5.5031
 IR Inten    --      4.0398                89.9286                65.6185

                     82                     83                     84
                      A                      A                      A
 Frequencies --   2965.8782              3047.6608              3048.1052
 Red. masses --      1.0738                 1.0792                 1.0733
 Frc consts  --      5.5652                 5.9057                 5.8754
 IR Inten    --     85.5922                29.7838                68.4112

                     85                     86                     87
                      A                      A                      A
 Frequencies --   3058.2777              3063.1274              3063.3678
 Red. masses --      1.0533                 1.0364                 1.0438
 Frc consts  --      5.8046                 5.7295                 5.7714
 IR Inten    --     41.3269                10.8802                26.0385

                     88                     89                     90
                      A                      A                      A
 Frequencies --   3100.8580              3114.8708              3128.1483
 Red. masses --      1.1060                 1.0977                 1.1002
 Frc consts  --      6.2659                 6.2751                 6.3428
 IR Inten    --     42.2403                12.3198                24.7009

                     91                     92                     93
                      A                      A                      A
 Frequencies --   3132.7974              3137.2799              3146.6362
 Red. masses --      1.1011                 1.0890                 1.1031
 Frc consts  --      6.3671                 6.3149                 6.4349
 IR Inten    --     29.6195                13.8984                40.0320

                     94                     95                     96
                      A                      A                      A
 Frequencies --   3147.9694              3174.0079              3174.6196
 Red. masses --      1.1034                 1.0887                 1.0875
 Frc consts  --      6.4424                 6.4619                 6.4574
 IR Inten    --     23.4432                29.4761                 5.2517

                     97                     98                     99
                      A                      A                      A
 Frequencies --   3208.4967              3226.7500              3460.3267
 Red. masses --      1.0909                 1.0938                 1.0736
 Frc consts  --      6.6166                 6.7097                 7.5741
 IR Inten    --     25.0081                14.7854                 3.9602

 - Thermochemistry -
 -------------------
 Temperature   298.150 Kelvin.  Pressure   1.00000 Atm.
 Atom     1 has atomic number  6 and mass  12.00000

 Molecular mass:   221.15281 amu.
 Principal axes and moments of inertia in atomic units:
                           1         2         3
     Eigenvalues --  2351.239084289.543926034.82313
           X            0.99968  -0.02506   0.00355
           Y            0.02508   0.99967  -0.00586
           Z           -0.00340   0.00595   0.99998
 This molecule is an asymmetric top.
 Rotational symmetry number  1.
 Warning -- assumption of classical behavior for rotation
           may cause significant error
 Rotational temperatures (Kelvin)      0.03684     0.02019     0.01435
 Rotational constants (GHZ):           0.76757     0.42073     0.29905
 Zero-point vibrational energy     807582.0 (Joules/Mol)
                                  193.01674 (Kcal/Mol)
 Warning -- explicit consideration of  24 degrees of freedom as
           vibrations may cause significant error
 Vibrational temperatures:     46.37    63.53    96.90   135.60   169.36
          (Kelvin)            243.70   268.86   284.06   311.39   339.77
                              386.01   437.00   460.35   483.87   517.40
                              588.45   634.74   652.06   723.74   745.25
                              781.66   837.35   848.51   866.24   988.09
                             1070.33  1106.00  1143.69  1147.66  1172.54
                             1199.97  1222.88  1304.03  1314.54  1319.99
                             1325.04  1352.14  1369.90  1424.54  1462.76
                             1529.55  1547.68  1563.94  1582.48  1600.09
                             1622.10  1654.74  1689.07  1699.02  1730.54
                             1739.01  1793.34  1815.25  1849.43  1862.37
                             1888.39  1910.38  1942.48  1958.28  1982.12
                             2009.53  2012.23  2029.57  2041.22  2059.65
                             2064.39  2076.50  2157.60  2166.24  2169.46
                             2178.95  2181.39  2182.79  2191.61  2199.30
                             2204.56  2212.98  2229.45  2331.30  2367.51
                             4240.98  4267.24  4384.90  4385.54  4400.18
                             4407.16  4407.50  4461.44  4481.60  4500.71
                             4507.40  4513.85  4527.31  4529.23  4566.69
                             4567.57  4616.31  4642.57  4978.64

 Zero-point correction=                           0.307592 (Hartree/Particle)
 Thermal correction to Energy=                    0.322625
 Thermal correction to Enthalpy=                  0.323569
 Thermal correction to Gibbs Free Energy=         0.265048
 Sum of electronic and zero-point Energies=           -707.934785
 Sum of electronic and thermal Energies=              -707.919752
 Sum of electronic and thermal Enthalpies=            -707.918807
 Sum of electronic and thermal Free Energies=         -707.977329

                     E (Thermal)             CV                S
                      KCal/Mol        Cal/Mol-Kelvin    Cal/Mol-Kelvin
 Total                  202.450             58.705            123.169
 Electronic               0.000              0.000              0.000
 Translational            0.889              2.981             42.084
 Rotational               0.889              2.981             32.476
 Vibrational            200.673             52.744             48.609
 Vibration     1          0.594              1.983              5.687
 Vibration     2          0.595              1.980              5.063
 Vibration     3          0.598              1.970              4.229
 Vibration     4          0.603              1.953              3.570
 Vibration     5          0.608              1.935              3.138
 Vibration     6          0.625              1.880              2.442
 Vibration     7          0.632              1.858              2.259
 Vibration     8          0.637              1.843              2.157
 Vibration     9          0.645              1.816              1.989
 Vibration    10          0.655              1.785              1.832
 Vibration    11          0.673              1.731              1.607
 Vibration    12          0.695              1.667              1.396
 Vibration    13          0.706              1.635              1.310
 Vibration    14          0.717              1.603              1.230
 Vibration    15          0.734              1.555              1.124
 Vibration    16          0.773              1.451              0.930
 Vibration    17          0.801              1.380              0.823
 Vibration    18          0.812              1.354              0.786
 Vibration    19          0.858              1.243              0.651
 Vibration    20          0.873              1.210              0.615
 Vibration    21          0.898              1.154              0.558
 Vibration    22          0.939              1.070              0.482
 Vibration    23          0.947              1.054              0.468
 Vibration    24          0.960              1.027              0.446

 Optimization completed.
    -- Stationary point found.
 Normal termination of Gaussian 16 at Thu Dec 10 21:28:06 2020.

 ----------------------------------------------------------------------
 # B3LYP/6-311++G(d,p) empiricaldispersion=gd3bj scf=xqc pop=npa geom=c
 heck
 ----------------------------------------------------------------------

 ---------------------------------------
 CID_104060000_JID_6148_Energie_neutraal
 ---------------------------------------
 Structure from the checkpoint file:  "JID_6148.chk"
 Charge =  0 Multiplicity = 1

 SCF Done:  E(RB3LYP) =  -708.435846426     A.U. after   15 cycles
 Normal termination of Gaussian 16 at Thu Dec 10 21:33:15 2020.

 ----------------------------------------------------------------------
 # B3LYP/6-311++G(d,p) empiricaldispersion=gd3bj scf=xqc pop=npa geom=c
 heck
 ----------------------------------------------------------------------

 -------------------------------------
 CID_104060000_JID_6148_Energie_kation
 -------------------------------------
 Structure from the checkpoint file:  "JID_6148.chk"
 Charge =  1 Multiplicity = 2

 SCF Done:  E(UB3LYP) =  -708.176512768     A.U. after   23 cycles
 Normal termination of Gaussian 16 at Thu Dec 10 21:43:47 2020.
 Gaussian 16:  ES64L-G16RevA.03 25-Dec-2016

 ----------------------------------------------------------------------
 # B3LYP/6-311++G(d,p) empiricaldispersion=gd3bj scf=xqc pop=npa geom=c
 heck
 ----------------------------------------------------------------------

 ------------------------------------
 CID_104060000_JID_6148_Energie_anion
 ------------------------------------
 Structure from the checkpoint file:  "JID_6148.chk"
 Charge = -1 Multiplicity = 2

                         Standard orientation:
 ---------------------------------------------------------------------
 Center     Atomic      Atomic             Coordinates (Angstroms)
 Number     Number       Type             X           Y           Z
 ---------------------------------------------------------------------
      1          6           0       -2.474976    2.625087   -1.132505
      2          6           0       -2.007901    2.405176    0.300570
      3          8           0       -1.073702    1.328267    0.407407
      4          6           0       -1.514035    0.038783    0.281357
      5          6           0       -0.515464   -0.965711    0.100258
      6          7           0       -0.847845   -2.241993   -0.103739
      7          6           0       -2.141492   -2.596664   -0.113310
      8          6           0       -3.173226   -1.699815    0.107419
      9          6           0       -2.845671   -0.351386    0.303474
     10          7           0        0.834691   -0.621099    0.043639
     11          6           0        1.763154   -1.615817   -0.489575
     12          6           0        3.028300   -0.899140   -0.975302
     13          7           0        3.653627   -0.030282    0.029234
     14          6           0        2.681011    0.881995    0.661409
     15          6           0        1.430494    0.133341    1.152206
     16          6           0        2.310055    2.026332   -0.285677
     17          1           0       -1.613081    2.802969   -1.782798
     18          1           0       -3.136334    3.497305   -1.182680
     19          1           0       -3.019610    1.757990   -1.516614
     20          1           0       -1.450965    3.274392    0.659901
     21          1           0       -2.851001    2.249330    0.985797
     22          1           0       -2.343942   -3.649217   -0.300885
     23          1           0       -4.208547   -2.024961    0.111683
     24          1           0       -3.633671    0.380397    0.438641
     25          1           0        2.019124   -2.366822    0.279396
     26          1           0        1.276332   -2.150500   -1.307189
     27          1           0        2.775742   -0.288081   -1.849209
     28          1           0        3.770896   -1.636913   -1.300139
     29          1           0        4.043982   -0.625389    0.760410
     30          1           0        3.182974    1.307935    1.539585
     31          1           0        0.697891    0.830353    1.554448
     32          1           0        1.718289   -0.566571    1.958768
     33          1           0        1.736313    2.790051    0.250718
     34          1           0        3.215034    2.483379   -0.696258
     35          1           0        1.685380    1.668762   -1.108723
 ---------------------------------------------------------------------

 SCF Done:  E(UB3LYP) =  -708.423296716     A.U. after   33 cycles
 SCF Done:  E(UB3LYP) =  -708.423296716     a.u. after    1 cycles

 The electronic state is 2-A.
 Alpha  occ. eigenvalues --  -19.05677 -14.22605 -14.20382 -14.20199 -10.14152
 Alpha  occ. eigenvalues --  -10.14077 -10.12940 -10.10165 -10.10143 -10.09780
 Alpha  occ. eigenvalues --  -10.09659 -10.09506 -10.08441 -10.07728 -10.06636
 Alpha  occ. eigenvalues --  -10.05493  -0.97343  -0.87450  -0.83053  -0.79331
 Alpha  occ. eigenvalues --   -0.70518  -0.68054  -0.67903  -0.64687  -0.61099
 Alpha  occ. eigenvalues --   -0.57939  -0.56388  -0.54025  -0.51139  -0.49945
 Alpha  occ. eigenvalues --   -0.46159  -0.44637  -0.42490  -0.41421  -0.38271
 Alpha  occ. eigenvalues --   -0.37292  -0.37055  -0.36306  -0.35869  -0.34976
 Alpha  occ. eigenvalues --   -0.34046  -0.32920  -0.31858  -0.30802  -0.30278
 Alpha  occ. eigenvalues --   -0.29782  -0.28748  -0.28195  -0.27919  -0.27078
 Alpha  occ. eigenvalues --   -0.25396  -0.25045  -0.23826  -0.23543  -0.22733
 Alpha  occ. eigenvalues --   -0.19747  -0.16618  -0.15939  -0.13489  -0.10521
 Alpha  occ. eigenvalues --    0.04219
 Alpha virt. eigenvalues --    0.05879   0.06787   0.07185   0.07546   0.08077
 Alpha virt. eigenvalues --    0.08640   0.08829   0.09188   0.09666   0.10160
 Alpha virt. eigenvalues --    0.10529   0.11087   0.11461   0.12081   0.12479

  Beta  occ. eigenvalues --  -19.05678 -14.22612 -14.20340 -14.20186 -10.14157
  Beta  occ. eigenvalues --  -10.14062 -10.12908 -10.10164 -10.10132 -10.09772
  Beta  occ. eigenvalues --  -10.09651 -10.09491 -10.08392 -10.07710 -10.06595
  Beta  occ. eigenvalues --  -10.05479  -0.97338  -0.87421  -0.83014  -0.79304
  Beta  occ. eigenvalues --   -0.70454  -0.68028  -0.67858  -0.64643  -0.61070
  Beta  occ. eigenvalues --   -0.57905  -0.56320  -0.53984  -0.51101  -0.49878
  Beta  occ. eigenvalues --   -0.46120  -0.44598  -0.42454  -0.41385  -0.38234
  Beta  occ. eigenvalues --   -0.37254  -0.37033  -0.36269  -0.35834  -0.34943
  Beta  occ. eigenvalues --   -0.34020  -0.32887  -0.31826  -0.30738  -0.30225
  Beta  occ. eigenvalues --   -0.29745  -0.28705  -0.28157  -0.27891  -0.27050
  Beta  occ. eigenvalues --   -0.25372  -0.25011  -0.23767  -0.23513  -0.22704
  Beta  occ. eigenvalues --   -0.19631  -0.16560  -0.15853  -0.13461  -0.10491
  Beta virt. eigenvalues --    0.06278   0.06854   0.07428   0.07522   0.07791
  Beta virt. eigenvalues --    0.08607   0.08918   0.09255   0.09330   0.09981
  Beta virt. eigenvalues --    0.10434   0.10931   0.11255   0.11852   0.12265

 Mulliken charges and spin densities:
               1          2
     1  C    1.306258  -1.763927
     2  C   -0.367357   0.248183
     3  O   -0.055206  -0.005408
     4  C   -1.236516   1.189572
     5  C   -0.596240   0.367114
     6  N   -0.098075   0.039399
     7  C    0.143226  -0.206983
     8  C    1.228802  -1.819241
     9  C    0.418866  -0.490662
    10  N    0.342814  -0.022308
    11  C    0.082031  -0.132826
    12  C   -0.095072  -0.478770
    13  N   -0.103418   0.063984
    14  C   -0.741498   0.496987
    15  C    0.050585  -0.494491
    16  C    0.632660  -1.036227
    17  H    0.028925   0.122117
    18  H   -0.536556   0.687056
    19  H   -0.069777   0.204311
    20  H   -0.672944   0.859683
    21  H   -0.288919   0.426602
    22  H    0.067052   0.102050
    23  H   -0.292477   0.449879
    24  H   -0.344007   0.531005
    25  H    0.050549   0.105672
    26  H    0.131994   0.025905
    27  H    0.177729  -0.013889
    28  H   -0.055954   0.226574
    29  H    0.022776   0.209065
    30  H   -0.357285   0.567216
    31  H    0.145128   0.043028
    32  H   -0.167605   0.320834
    33  H    0.101809   0.014172
    34  H    0.115441   0.049490
    35  H    0.032262   0.114836
 Sum of Mulliken charges =  -1.00000   1.00000

 Dipole moment (field-independent basis, Debye):
    X=              2.8023    Y=             -4.4816    Z=             -1.3907  Tot=              5.4655
 Quadrupole moment (field-independent basis, Debye-Ang):
   XX=           -178.1298   YY=           -157.5489   ZZ=           -125.7166
   XY=             12.2410   XZ=             -3.5732   YZ=              1.4155

 Summary of Natural Population Analysis:

                                       Natural Population
                Natural  -----------------------------------------------
    Atom  No    Charge         Core      Valence    Rydberg      Total
 -----------------------------------------------------------------------
      C    1   -0.30021      0.99966     2.29535    0.00520     3.30021
      C    2   -0.00985      0.99957     1.99813    0.01215     3.00985
      O    3   -0.28115      0.99986     3.26974    0.01155     4.28115
      C    4    0.13818      0.99934     1.84971    0.01277     2.86182
      C    5    0.19460      0.99949     1.79136    0.01455     2.80540
      N    6   -0.24884      0.99967     2.73963    0.00954     3.74884
      C    7    0.01385      0.99958     1.97288    0.01368     2.98615
      C    8   -0.12917      0.99957     2.11943    0.01017     3.12917
      C    9   -0.11922      0.99953     2.11045    0.00925     3.11922
      N   10   -0.26498      0.99965     2.75407    0.01126     3.76498
      C   11   -0.09279      0.99961     2.08199    0.01118     3.09279
      C   12   -0.09492      0.99962     2.08328    0.01202     3.09492
      N   13   -0.34019      0.99975     2.82704    0.01340     3.84019
      C   14   -0.01613      0.99960     2.00278    0.01375     3.01613
      C   15   -0.09051      0.99958     2.07968    0.01125     3.09051
      C   16   -0.29138      0.99964     2.28471    0.00703     3.29138
      H   17    0.10088      0.00000     0.39791    0.00121     0.39912
      H   18    0.10610      0.00000     0.39163    0.00227     0.39390
      H   19    0.10136      0.00000     0.39730    0.00135     0.39864
      H   20    0.09483      0.00000     0.40341    0.00177     0.40517
      H   21    0.08378      0.00000     0.41397    0.00225     0.41622
      H   22    0.08734      0.00000     0.41165    0.00101     0.41266
      H   23    0.10279      0.00000     0.39619    0.00102     0.39721
      H   24    0.10823      0.00000     0.39023    0.00154     0.39177
      H   25    0.08507      0.00000     0.41303    0.00190     0.41493
      H   26    0.10872      0.00000     0.39004    0.00124     0.39128
      H   27    0.09164      0.00000     0.40713    0.00123     0.40836
      H   28    0.09398      0.00000     0.40517    0.00085     0.40602
      H   29    0.17137      0.00000     0.32615    0.00248     0.32863
      H   30    0.09508      0.00000     0.40367    0.00125     0.40492
      H   31    0.11348      0.00000     0.38469    0.00183     0.38652
      H   32    0.08394      0.00000     0.41443    0.00163     0.41606
      H   33    0.10208      0.00000     0.39694    0.00098     0.39792
      H   34    0.09986      0.00000     0.39912    0.00103     0.40014
      H   35    0.10217      0.00000     0.39647    0.00136     0.39783
 =======================================================================
   * Total *   -0.00000     15.99372    43.79934    0.20694    60.00000

 Normal termination of Gaussian 16 at Thu Dec 10 21:59:06 2020.
