 Gaussian 16, Revision A.03,

 -----------------------------------------------------------
 # opt freq B3LYP/6-31G(d) empiricaldispersion=gd3bj scf=xqc
 -----------------------------------------------------------

 ------------------------------
 CID_13203876_JID_4648_neutraal
 ------------------------------
 Symbolic Z-matrix:
 Charge =  0 Multiplicity = 1

 SCF Done:  E(RB3LYP) =  -623.444512998     A.U. after   13 cycles
 SCF Done:  E(RB3LYP) =  -623.446999081     A.U. after   11 cycles
 SCF Done:  E(RB3LYP) =  -623.447058823     A.U. after   10 cycles
 SCF Done:  E(RB3LYP) =  -623.447189504     A.U. after   10 cycles
 SCF Done:  E(RB3LYP) =  -623.447259791     A.U. after   10 cycles
 SCF Done:  E(RB3LYP) =  -623.447269170     A.U. after    9 cycles
 SCF Done:  E(RB3LYP) =  -623.447271305     A.U. after    7 cycles
 SCF Done:  E(RB3LYP) =  -623.447271980     A.U. after    7 cycles
 SCF Done:  E(RB3LYP) =  -623.447272078     A.U. after    7 cycles
 SCF Done:  E(RB3LYP) =  -623.447272078     A.U. after    6 cycles
 SCF Done:  E(RB3LYP) =  -623.447272069     A.U. after    5 cycles
 SCF Done:  E(RB3LYP) =  -623.447272071     A.U. after    5 cycles
 Optimization completed.
    -- Stationary point found.
 Normal termination of Gaussian 16 at Thu Dec 10 10:21:04 2020.

 --------------------------------------------------------------------
 #N Geom=AllCheck Guess=TCheck SCRF=Check GenChk RB3LYP/6-31G(d) Freq
 --------------------------------------------------------------------

 Structure from the checkpoint file:  "JID_4648.chk"
 ------------------------------
 CID_13203876_JID_4648_neutraal
 ------------------------------
 Charge =  0 Multiplicity = 1

 SCF Done:  E(RB3LYP) =  -623.447272071     A.U. after    1 cycles

  Exact polarizability: 148.346   0.663 144.320   1.211   0.558 115.064
 Approx polarizability: 182.801  -1.819 178.895   0.811  -0.542 176.014

                      1                      2                      3
                      A                      A                      A
 Frequencies --     21.3896                32.5219                39.0542
 Red. masses --      2.5525                 3.4856                 2.2548
 Frc consts  --      0.0007                 0.0022                 0.0020
 IR Inten    --      0.0986                 0.0259                 0.0035

                      4                      5                      6
                      A                      A                      A
 Frequencies --     47.7152                66.4481                87.2492
 Red. masses --      2.9908                 3.5982                 2.4909
 Frc consts  --      0.0040                 0.0094                 0.0112
 IR Inten    --      0.1523                 0.1950                 0.2841

                      7                      8                      9
                      A                      A                      A
 Frequencies --    118.4067               129.0659               138.1745
 Red. masses --      2.5832                 1.8786                 1.8584
 Frc consts  --      0.0213                 0.0184                 0.0209
 IR Inten    --      0.0890                 0.7725                 0.0850

                     10                     11                     12
                      A                      A                      A
 Frequencies --    152.5198               199.4428               226.9961
 Red. masses --      2.5862                 2.8672                 1.2941
 Frc consts  --      0.0354                 0.0672                 0.0393
 IR Inten    --      0.3804                 8.7732                 0.3582

                     13                     14                     15
                      A                      A                      A
 Frequencies --    233.7243               237.3530               257.7430
 Red. masses --      1.1636                 1.5881                 1.1619
 Frc consts  --      0.0375                 0.0527                 0.0455
 IR Inten    --      0.4248                 0.3745                 0.1739

                     16                     17                     18
                      A                      A                      A
 Frequencies --    280.0182               290.7663               308.5899
 Red. masses --      1.7573                 2.1267                 2.4254
 Frc consts  --      0.0812                 0.1059                 0.1361
 IR Inten    --      0.1973                 0.3684                 1.7062

                     19                     20                     21
                      A                      A                      A
 Frequencies --    340.8974               352.5064               390.7618
 Red. masses --      2.4755                 3.5907                 2.4694
 Frc consts  --      0.1695                 0.2629                 0.2222
 IR Inten    --      1.8847                 6.6903                 0.4871

                     22                     23                     24
                      A                      A                      A
 Frequencies --    415.3769               438.4710               485.0452
 Red. masses --      2.3211                 2.1454                 2.7835
 Frc consts  --      0.2360                 0.2430                 0.3858
 IR Inten    --      1.2054                 0.4560                 1.9215

                     25                     26                     27
                      A                      A                      A
 Frequencies --    495.5144               544.7990               657.2945
 Red. masses --      3.0371                 3.2261                 3.3460
 Frc consts  --      0.4394                 0.5642                 0.8517
 IR Inten    --      1.6974                10.7196                 5.4165

                     28                     29                     30
                      A                      A                      A
 Frequencies --    765.8506               769.0610               812.1992
 Red. masses --      1.1736                 1.1463                 1.3715
 Frc consts  --      0.4056                 0.3994                 0.5330
 IR Inten    --      4.1801                 1.5877                 2.6022

                     31                     32                     33
                      A                      A                      A
 Frequencies --    818.5468               838.6338               868.2278
 Red. masses --      2.3386                 2.1173                 1.4230
 Frc consts  --      0.9232                 0.8773                 0.6320
 IR Inten    --      2.8410                 6.1900                 2.8181

                     34                     35                     36
                      A                      A                      A
 Frequencies --    889.8414               923.8890               941.5827
 Red. masses --      2.1901                 2.1084                 1.1796
 Frc consts  --      1.0218                 1.0604                 0.6162
 IR Inten    --      8.4252                27.3287                 1.1031

                     37                     38                     39
                      A                      A                      A
 Frequencies --    960.9221               974.8448               977.3924
 Red. masses --      2.0111                 1.3623                 1.4459
 Frc consts  --      1.0941                 0.7628                 0.8138
 IR Inten    --      8.2332                 1.1842                 0.1324

                     40                     41                     42
                      A                      A                      A
 Frequencies --   1000.1901              1021.3685              1033.3396
 Red. masses --      1.6993                 2.1268                 1.5499
 Frc consts  --      1.0016                 1.3072                 0.9751
 IR Inten    --      2.4126                39.2928                11.2978

                     43                     44                     45
                      A                      A                      A
 Frequencies --   1056.7782              1068.1523              1077.1190
 Red. masses --      3.1591                 2.6366                 3.5472
 Frc consts  --      2.0786                 1.7724                 2.4247
 IR Inten    --      6.1544                 0.5460                75.3875

                     46                     47                     48
                      A                      A                      A
 Frequencies --   1094.2724              1133.9355              1142.7547
 Red. masses --      2.6942                 2.0093                 2.7206
 Frc consts  --      1.9007                 1.5222                 2.0933
 IR Inten    --     31.9495                77.7744               153.3907

                     49                     50                     51
                      A                      A                      A
 Frequencies --   1162.4542              1178.0280              1183.5659
 Red. masses --      2.3036                 3.3660                 2.3172
 Frc consts  --      1.8341                 2.7521                 1.9125
 IR Inten    --      0.8328               152.3314                34.7517

                     52                     53                     54
                      A                      A                      A
 Frequencies --   1193.0881              1207.0677              1214.5845
 Red. masses --      1.9191                 1.7463                 2.0922
 Frc consts  --      1.6095                 1.4991                 1.8185
 IR Inten    --     11.1159                 3.0107                 2.9804

                     55                     56                     57
                      A                      A                      A
 Frequencies --   1261.4049              1265.1229              1295.4643
 Red. masses --      1.2505                 1.3853                 1.2956
 Frc consts  --      1.1723                 1.3064                 1.2811
 IR Inten    --      2.1092                 3.0838                 5.7376

                     58                     59                     60
                      A                      A                      A
 Frequencies --   1307.2925              1331.6144              1335.7045
 Red. masses --      1.2541                 1.1179                 1.1775
 Frc consts  --      1.2628                 1.1679                 1.2377
 IR Inten    --      0.9856                 3.0511                 5.1210

                     61                     62                     63
                      A                      A                      A
 Frequencies --   1350.8810              1363.3455              1365.4694
 Red. masses --      1.0799                 1.2245                 1.2986
 Frc consts  --      1.1611                 1.3409                 1.4266
 IR Inten    --      2.8092                13.9166                 6.9937

                     64                     65                     66
                      A                      A                      A
 Frequencies --   1390.3263              1393.1629              1395.2710
 Red. masses --      1.3316                 1.3013                 1.4383
 Frc consts  --      1.5166                 1.4881                 1.6497
 IR Inten    --      2.3635                20.5359                 5.0344

                     67                     68                     69
                      A                      A                      A
 Frequencies --   1412.1816              1422.9358              1429.8185
 Red. masses --      1.4411                 1.2466                 1.2923
 Frc consts  --      1.6933                 1.4871                 1.5566
 IR Inten    --      1.8079                11.6256                 5.4229

                     70                     71                     72
                      A                      A                      A
 Frequencies --   1439.1252              1444.2906              1446.8345
 Red. masses --      1.3100                 1.2520                 1.3610
 Frc consts  --      1.5985                 1.5387                 1.6786
 IR Inten    --     29.5126                 2.0571                14.0825

                     73                     74                     75
                      A                      A                      A
 Frequencies --   1449.2362              1463.2423              1511.7172
 Red. masses --      1.2413                 1.4638                 1.0722
 Frc consts  --      1.5360                 1.8465                 1.4437
 IR Inten    --      5.3556                 4.2854                 1.2588

                     76                     77                     78
                      A                      A                      A
 Frequencies --   1514.9836              1516.4713              1518.4872
 Red. masses --      1.0500                 1.0659                 1.0583
 Frc consts  --      1.4199                 1.4443                 1.4377
 IR Inten    --      2.7817                 1.9965                 0.4107

                     79                     80                     81
                      A                      A                      A
 Frequencies --   1519.8077              1522.3840              1526.8985
 Red. masses --      1.0632                 1.0669                 1.0604
 Frc consts  --      1.4469                 1.4569                 1.4566
 IR Inten    --      0.0583                 2.0717                 0.7785

                     82                     83                     84
                      A                      A                      A
 Frequencies --   1533.2404              1534.5328              1537.4346
 Red. masses --      1.0602                 1.0605                 1.0703
 Frc consts  --      1.4684                 1.4714                 1.4906
 IR Inten    --      5.6480                 2.6920                 0.4308

                     85                     86                     87
                      A                      A                      A
 Frequencies --   1537.6893              1542.3733              1549.3322
 Red. masses --      1.0616                 1.0499                 1.0850
 Frc consts  --      1.4790                 1.4716                 1.5345
 IR Inten    --      6.8836                 9.5897                 2.9237

                     88                     89                     90
                      A                      A                      A
 Frequencies --   1557.8769              2985.0366              3006.1833
 Red. masses --      1.0869                 1.0711                 1.0734
 Frc consts  --      1.5542                 5.6231                 5.7154
 IR Inten    --      1.2078                46.9720                 5.0171

                     91                     92                     93
                      A                      A                      A
 Frequencies --   3011.1314              3020.2190              3032.3322
 Red. masses --      1.0681                 1.0845                 1.0642
 Frc consts  --      5.7060                 5.8286                 5.7655
 IR Inten    --     29.1336                78.0338                50.8179

                     94                     95                     96
                      A                      A                      A
 Frequencies --   3032.8126              3036.1730              3041.8109
 Red. masses --      1.0641                 1.0362                 1.0419
 Frc consts  --      5.7666                 5.6277                 5.6798
 IR Inten    --     19.9548                34.4778                13.6967

                     97                     98                     99
                      A                      A                      A
 Frequencies --   3042.6875              3043.5589              3046.0409
 Red. masses --      1.0584                 1.0956                 1.0426
 Frc consts  --      5.7734                 5.9795                 5.6996
 IR Inten    --     15.3099                44.3761                22.0787

                    100                    101                    102
                      A                      A                      A
 Frequencies --   3065.1005              3069.5904              3071.9275
 Red. masses --      1.0615                 1.0961                 1.0364
 Frc consts  --      5.8758                 6.0848                 5.7624
 IR Inten    --     33.3633                26.8485                16.5740

                    103                    104                    105
                      A                      A                      A
 Frequencies --   3076.3795              3081.1052              3096.1866
 Red. masses --      1.0940                 1.0984                 1.0991
 Frc consts  --      6.1001                 6.1435                 6.2078
 IR Inten    --     11.1997                20.4268                71.5637

                    106                    107                    108
                      A                      A                      A
 Frequencies --   3099.3020              3105.0124              3109.5217
 Red. masses --      1.1010                 1.1009                 1.1012
 Frc consts  --      6.2312                 6.2536                 6.2734
 IR Inten    --      9.1868                48.6917                65.0743

                    109                    110                    111
                      A                      A                      A
 Frequencies --   3110.2109              3115.5243              3119.7039
 Red. masses --      1.1019                 1.1021                 1.1015
 Frc consts  --      6.2799                 6.3027                 6.3162
 IR Inten    --     49.9903                63.4105                38.5934

                    112                    113                    114
                      A                      A                      A
 Frequencies --   3120.9098              3146.3327              3149.4449
 Red. masses --      1.1021                 1.1023                 1.1039
 Frc consts  --      6.3248                 6.4293                 6.4515
 IR Inten    --     42.4412                27.1320                19.0491

 - Thermochemistry -
 -------------------
 Temperature   298.150 Kelvin.  Pressure   1.00000 Atm.
 Atom     1 has atomic number  6 and mass  12.00000

 Molecular mass:   202.19328 amu.
 Principal axes and moments of inertia in atomic units:
                           1         2         3
     Eigenvalues --  3009.329544348.255456570.41223
           X            0.99988  -0.01541  -0.00069
           Y            0.01542   0.99979   0.01383
           Z            0.00047  -0.01384   0.99990
 This molecule is an asymmetric top.
 Rotational symmetry number  1.
 Warning -- assumption of classical behavior for rotation
           may cause significant error
 Rotational temperatures (Kelvin)      0.02878     0.01992     0.01318
 Rotational constants (GHZ):           0.59972     0.41505     0.27468
 Zero-point vibrational energy     975648.7 (Joules/Mol)
                                  233.18564 (Kcal/Mol)
 Warning -- explicit consideration of  26 degrees of freedom as
           vibrations may cause significant error
 Vibrational temperatures:     30.77    46.79    56.19    68.65    95.60
          (Kelvin)            125.53   170.36   185.70   198.80   219.44
                              286.95   326.60   336.28   341.50   370.83
                              402.88   418.35   443.99   490.48   507.18
                              562.22   597.63   630.86   697.87   712.93
                              783.84   945.70  1101.89  1106.51  1168.57
                             1177.71  1206.61  1249.19  1280.28  1329.27
                             1354.73  1382.55  1402.58  1406.25  1439.05
                             1469.52  1486.75  1520.47  1536.83  1549.73
                             1574.41  1631.48  1644.17  1672.51  1694.92
                             1702.89  1716.59  1736.70  1747.52  1814.88
                             1820.23  1863.88  1880.90  1915.90  1921.78
                             1943.62  1961.55  1964.61  2000.37  2004.45
                             2007.48  2031.81  2047.29  2057.19  2070.58
                             2078.01  2081.67  2085.13  2105.28  2175.02
                             2179.72  2181.86  2184.76  2186.66  2190.37
                             2196.87  2205.99  2207.85  2212.03  2212.39
                             2219.13  2229.14  2241.44  4294.80  4325.23
                             4332.35  4345.42  4362.85  4363.54  4368.38
                             4376.49  4377.75  4379.00  4382.57  4410.00
                             4416.46  4419.82  4426.22  4433.02  4454.72
                             4459.20  4467.42  4473.91  4474.90  4482.54
                             4488.56  4490.29  4526.87  4531.35

 Zero-point correction=                           0.371605 (Hartree/Particle)
 Thermal correction to Energy=                    0.389728
 Thermal correction to Enthalpy=                  0.390673
 Thermal correction to Gibbs Free Energy=         0.323650
 Sum of electronic and zero-point Energies=           -623.075667
 Sum of electronic and thermal Energies=              -623.057544
 Sum of electronic and thermal Enthalpies=            -623.056599
 Sum of electronic and thermal Free Energies=         -623.123622

                     E (Thermal)             CV                S
                      KCal/Mol        Cal/Mol-Kelvin    Cal/Mol-Kelvin
 Total                  244.558             65.382            141.061
 Electronic               0.000              0.000              0.000
 Translational            0.889              2.981             41.817
 Rotational               0.889              2.981             32.819
 Vibrational            242.781             59.420             66.425
 Vibration     1          0.593              1.985              6.501
 Vibration     2          0.594              1.983              5.669
 Vibration     3          0.594              1.981              5.306
 Vibration     4          0.595              1.978              4.910
 Vibration     5          0.598              1.970              4.256
 Vibration     6          0.601              1.958              3.721
 Vibration     7          0.609              1.934              3.126
 Vibration     8          0.612              1.924              2.960
 Vibration     9          0.614              1.915              2.829
 Vibration    10          0.619              1.900              2.641
 Vibration    11          0.638              1.841              2.138
 Vibration    12          0.651              1.800              1.903
 Vibration    13          0.654              1.789              1.850
 Vibration    14          0.656              1.783              1.823
 Vibration    15          0.667              1.750              1.677
 Vibration    16          0.680              1.711              1.534
 Vibration    17          0.687              1.691              1.469
 Vibration    18          0.698              1.657              1.370
 Vibration    19          0.720              1.594              1.208
 Vibration    20          0.729              1.570              1.155
 Vibration    21          0.758              1.490              0.997
 Vibration    22          0.779              1.437              0.908
 Vibration    23          0.799              1.386              0.831
 Vibration    24          0.841              1.283              0.697
 Vibration    25          0.851              1.260              0.669
 Vibration    26          0.900              1.151              0.555

 Optimization completed.
    -- Stationary point found.
 Normal termination of Gaussian 16 at Thu Dec 10 10:33:34 2020.

 ----------------------------------------------------------------------
 # B3LYP/6-311++G(d,p) empiricaldispersion=gd3bj scf=xqc pop=npa geom=c
 heck
 ----------------------------------------------------------------------

 --------------------------------------
 CID_13203876_JID_4648_Energie_neutraal
 --------------------------------------
 Structure from the checkpoint file:  "JID_4648.chk"
 Charge =  0 Multiplicity = 1

 SCF Done:  E(RB3LYP) =  -623.627616171     A.U. after   13 cycles
 Normal termination of Gaussian 16 at Thu Dec 10 10:39:47 2020.

 ----------------------------------------------------------------------
 # B3LYP/6-311++G(d,p) empiricaldispersion=gd3bj scf=xqc pop=npa geom=c
 heck
 ----------------------------------------------------------------------

 ------------------------------------
 CID_13203876_JID_4648_Energie_kation
 ------------------------------------
 Structure from the checkpoint file:  "JID_4648.chk"
 Charge =  1 Multiplicity = 2

 SCF Done:  E(UB3LYP) =  -623.291681756     A.U. after   25 cycles
 Normal termination of Gaussian 16 at Thu Dec 10 10:58:09 2020.
 Gaussian 16:  ES64L-G16RevA.03 25-Dec-2016

 ----------------------------------------------------------------------
 # B3LYP/6-311++G(d,p) empiricaldispersion=gd3bj scf=xqc pop=npa geom=c
 heck
 ----------------------------------------------------------------------

 -----------------------------------
 CID_13203876_JID_4648_Energie_anion
 -----------------------------------
 Structure from the checkpoint file:  "JID_4648.chk"
 Charge = -1 Multiplicity = 2

                         Standard orientation:
 ---------------------------------------------------------------------
 Center     Atomic      Atomic             Coordinates (Angstroms)
 Number     Number       Type             X           Y           Z
 ---------------------------------------------------------------------
      1          6           0       -1.368244    3.368094    0.935354
      2          6           0       -2.196902    3.044314   -0.313072
      3          6           0       -1.885643    1.672234   -0.926153
      4          6           0       -2.283761    0.504782   -0.034830
      5          8           0       -1.946504   -0.703424   -0.712261
      6          6           0       -2.027833   -1.857584    0.096084
      7          6           0       -1.874488   -3.051239   -0.835549
      8          8           0       -1.126659   -1.839722    1.186480
      9          6           0        0.269572   -1.976523    0.917350
     10          6           0        0.923023   -0.735322    0.308654
     11          6           0        2.449137   -0.853272    0.265301
     12          6           0        3.149874    0.290471   -0.488942
     13          6           0        2.855801    1.662207    0.132584
     14          6           0        4.661521    0.041735   -0.556842
     15          1           0       -0.294404    3.305750    0.718350
     16          1           0       -1.579169    2.675842    1.757652
     17          1           0       -1.576925    4.381211    1.296478
     18          1           0       -3.267265    3.103693   -0.070374
     19          1           0       -2.015017    3.814717   -1.072921
     20          1           0       -2.402290    1.563948   -1.887778
     21          1           0       -0.810821    1.597212   -1.137658
     22          1           0       -1.763555    0.543124    0.928140
     23          1           0       -3.367641    0.525874    0.170129
     24          1           0       -3.007702   -1.887529    0.594959
     25          1           0       -0.964985   -2.966901   -1.436928
     26          1           0       -1.842192   -3.980968   -0.260097
     27          1           0       -2.725531   -3.085403   -1.521248
     28          1           0        0.713184   -2.183362    1.897829
     29          1           0        0.460386   -2.855765    0.286514
     30          1           0        0.529288   -0.572641   -0.699798
     31          1           0        0.625274    0.132834    0.907629
     32          1           0        2.845800   -0.901316    1.290994
     33          1           0        2.725331   -1.804937   -0.212479
     34          1           0        2.759326    0.295231   -1.518092
     35          1           0        3.173742    1.688506    1.183220
     36          1           0        3.394618    2.455609   -0.398076
     37          1           0        1.788848    1.906680    0.100189
     38          1           0        4.886502   -0.924320   -1.023957
     39          1           0        5.168088    0.822835   -1.135510
     40          1           0        5.100068    0.035860    0.449449
 ---------------------------------------------------------------------

 SCF Done:  E(UB3LYP) =  -623.611482772     A.U. after   30 cycles

 The electronic state is 2-A.
 Alpha  occ. eigenvalues --  -19.03404 -19.03343 -10.17789 -10.12118 -10.11839
 Alpha  occ. eigenvalues --  -10.07801 -10.07523 -10.07384 -10.07151 -10.06923
 Alpha  occ. eigenvalues --  -10.06539 -10.06516 -10.06212 -10.06018  -0.97634
 Alpha  occ. eigenvalues --   -0.91696  -0.72183  -0.70859  -0.67816  -0.65704
 Alpha  occ. eigenvalues --   -0.61748  -0.59016  -0.58845  -0.54939  -0.52641
 Alpha  occ. eigenvalues --   -0.48458  -0.47992  -0.46437  -0.42807  -0.41938
 Alpha  occ. eigenvalues --   -0.38816  -0.37332  -0.36330  -0.35834  -0.34580
 Alpha  occ. eigenvalues --   -0.34094  -0.33648  -0.32539  -0.32030  -0.30778
 Alpha  occ. eigenvalues --   -0.29803  -0.29315  -0.29086  -0.28390  -0.27728
 Alpha  occ. eigenvalues --   -0.26969  -0.26310  -0.25011  -0.24434  -0.24220
 Alpha  occ. eigenvalues --   -0.23890  -0.23039  -0.22815  -0.22622  -0.20588
 Alpha  occ. eigenvalues --   -0.18259  -0.17584   0.04317
 Alpha virt. eigenvalues --    0.06039   0.06183   0.07279   0.07711   0.08073
 Alpha virt. eigenvalues --    0.08635   0.09050   0.09158   0.09856   0.10260
 Alpha virt. eigenvalues --    0.10888   0.11064   0.11475   0.11885   0.12078

  Beta  occ. eigenvalues --  -19.03404 -19.03335 -10.17783 -10.12105 -10.11831
  Beta  occ. eigenvalues --  -10.07792 -10.07504 -10.07360 -10.07144 -10.06906
  Beta  occ. eigenvalues --  -10.06533 -10.06490 -10.06185 -10.05994  -0.97623
  Beta  occ. eigenvalues --   -0.91686  -0.72159  -0.70836  -0.67791  -0.65679
  Beta  occ. eigenvalues --   -0.61713  -0.58978  -0.58794  -0.54892  -0.52601
  Beta  occ. eigenvalues --   -0.48412  -0.47942  -0.46382  -0.42787  -0.41921
  Beta  occ. eigenvalues --   -0.38796  -0.37294  -0.36304  -0.35806  -0.34552
  Beta  occ. eigenvalues --   -0.34061  -0.33619  -0.32511  -0.32004  -0.30751
  Beta  occ. eigenvalues --   -0.29775  -0.29284  -0.29058  -0.28360  -0.27698
  Beta  occ. eigenvalues --   -0.26938  -0.26279  -0.24987  -0.24406  -0.24189
  Beta  occ. eigenvalues --   -0.23859  -0.23005  -0.22784  -0.22591  -0.20565
  Beta  occ. eigenvalues --   -0.18247  -0.17575
  Beta virt. eigenvalues --    0.06204   0.06811   0.06827   0.07604   0.08144
  Beta virt. eigenvalues --    0.08584   0.08948   0.09387   0.09411   0.10280
  Beta virt. eigenvalues --    0.10604   0.11166   0.11298   0.11748   0.12081

 Mulliken charges and spin densities:
               1          2
     1  C    0.361769  -0.867591
     2  C    0.343445  -0.738803
     3  C   -0.894445   0.922056
     4  C    0.652014  -1.004239
     5  O    0.037729   0.004996
     6  C   -1.103971   0.755180
     7  C    1.120709  -1.517600
     8  O   -0.021711   0.011984
     9  C   -0.073298  -0.558306
    10  C   -0.900044   1.345555
    11  C    1.658824  -2.702648
    12  C   -1.653218   2.351851
    13  C    0.108292  -0.772000
    14  C    0.637712  -1.343794
    15  H   -0.210721   0.345475
    16  H   -0.039634   0.173528
    17  H   -0.305480   0.454605
    18  H   -0.042371   0.149202
    19  H   -0.321676   0.487865
    20  H    0.052510   0.120678
    21  H   -0.313243   0.471627
    22  H    0.154669  -0.005839
    23  H   -0.046541   0.205199
    24  H   -0.201894   0.340626
    25  H   -0.240821   0.410337
    26  H    0.047888   0.116374
    27  H   -0.067540   0.229810
    28  H    0.004014   0.148025
    29  H   -0.113917   0.279360
    30  H    0.308677  -0.158459
    31  H    0.137236   0.040461
    32  H   -0.026073   0.172736
    33  H    0.111015   0.013090
    34  H   -0.151717   0.306089
    35  H   -0.219885   0.359873
    36  H   -0.343975   0.488013
    37  H    1.010847  -0.897568
    38  H   -0.338008   0.473574
    39  H   -0.139917   0.282389
    40  H    0.022750   0.106290
 Sum of Mulliken charges =  -1.00000   1.00000

 Dipole moment (field-independent basis, Debye):
    X=             -2.3044    Y=             -2.5750    Z=              1.3533  Tot=              3.7111
 Quadrupole moment (field-independent basis, Debye-Ang):
   XX=           -167.4282   YY=           -162.6240   ZZ=           -128.1120
   XY=              1.2572   XZ=              4.4384   YZ=             -3.2876

 Summary of Natural Population Analysis:

                                       Natural Population
                Natural  -----------------------------------------------
    Atom  No    Charge         Core      Valence    Rydberg      Total
 -----------------------------------------------------------------------
      C    1   -0.28734      0.99967     2.28206    0.00561     3.28734
      C    2   -0.19003      0.99964     2.18255    0.00784     3.19003
      C    3   -0.19794      0.99962     2.18928    0.00904     3.19794
      C    4   -0.01122      0.99956     2.00099    0.01068     3.01122
      O    5   -0.30877      0.99987     3.29922    0.00969     4.30877
      C    6    0.22141      0.99959     1.76014    0.01886     2.77859
      C    7   -0.30555      0.99963     2.30043    0.00549     3.30555
      O    8   -0.30647      0.99988     3.29807    0.00852     4.30647
      C    9   -0.00738      0.99955     1.99573    0.01210     3.00738
      C   10   -0.20977      0.99962     2.20247    0.00768     3.20977
      C   11   -0.18584      0.99961     2.17788    0.00834     3.18584
      C   12   -0.11301      0.99962     2.10375    0.00964     3.11301
      C   13   -0.28561      0.99965     2.27941    0.00655     3.28561
      C   14   -0.28073      0.99965     2.27621    0.00487     3.28073
      H   15    0.09768      0.00000     0.40086    0.00146     0.40232
      H   16    0.09488      0.00000     0.40398    0.00115     0.40512
      H   17    0.09966      0.00000     0.39928    0.00107     0.40034
      H   18    0.09215      0.00000     0.40668    0.00117     0.40785
      H   19    0.09786      0.00000     0.40100    0.00114     0.40214
      H   20    0.09864      0.00000     0.40007    0.00130     0.40136
      H   21    0.09803      0.00000     0.39990    0.00207     0.40197
      H   22    0.08769      0.00000     0.41038    0.00193     0.41231
      H   23    0.07711      0.00000     0.42145    0.00144     0.42289
      H   24    0.07451      0.00000     0.42397    0.00152     0.42549
      H   25    0.10495      0.00000     0.39381    0.00124     0.39505
      H   26    0.10225      0.00000     0.39689    0.00086     0.39775
      H   27    0.10658      0.00000     0.39234    0.00108     0.39342
      H   28    0.08778      0.00000     0.41096    0.00125     0.41222
      H   29    0.08076      0.00000     0.41793    0.00131     0.41924
      H   30    0.10225      0.00000     0.39506    0.00269     0.39775
      H   31    0.09766      0.00000     0.40066    0.00168     0.40234
      H   32    0.09216      0.00000     0.40663    0.00121     0.40784
      H   33    0.09677      0.00000     0.40194    0.00129     0.40323
      H   34    0.09150      0.00000     0.40657    0.00192     0.40850
      H   35    0.09524      0.00000     0.40386    0.00091     0.40476
      H   36    0.10016      0.00000     0.39888    0.00096     0.39984
      H   37    0.09923      0.00000     0.39927    0.00150     0.40077
      H   38    0.09900      0.00000     0.39973    0.00127     0.40100
      H   39    0.09883      0.00000     0.40009    0.00108     0.40117
      H   40    0.09490      0.00000     0.40397    0.00113     0.40510
 =======================================================================
   * Total *    0.00000     13.99516    42.84432    0.16052    57.00000

 Normal termination of Gaussian 16 at Thu Dec 10 11:18:59 2020.
