 Gaussian 16, Revision A.03,

 -----------------------------------------------------------
 # opt freq B3LYP/6-31G(d) empiricaldispersion=gd3bj scf=xqc
 -----------------------------------------------------------

 -----------------------------
 CID_4316315_JID_5376_neutraal
 -----------------------------
 Symbolic Z-matrix:
 Charge =  0 Multiplicity = 1

 SCF Done:  E(RB3LYP) =  -706.259604824     A.U. after   14 cycles
 SCF Done:  E(RB3LYP) =  -706.265382298     A.U. after   12 cycles
 SCF Done:  E(RB3LYP) =  -706.266084985     A.U. after   12 cycles
 SCF Done:  E(RB3LYP) =  -706.266377289     A.U. after   12 cycles
 SCF Done:  E(RB3LYP) =  -706.266517798     A.U. after   12 cycles
 SCF Done:  E(RB3LYP) =  -706.266743070     A.U. after   10 cycles
 SCF Done:  E(RB3LYP) =  -706.266979881     A.U. after   12 cycles
 SCF Done:  E(RB3LYP) =  -706.267082266     A.U. after   12 cycles
 SCF Done:  E(RB3LYP) =  -706.267152936     A.U. after   11 cycles
 SCF Done:  E(RB3LYP) =  -706.267209613     A.U. after   11 cycles
 SCF Done:  E(RB3LYP) =  -706.267424986     A.U. after    9 cycles
 SCF Done:  E(RB3LYP) =  -706.267426247     A.U. after    9 cycles
 SCF Done:  E(RB3LYP) =  -706.267426649     A.U. after    8 cycles
 SCF Done:  E(RB3LYP) =  -706.267426670     A.U. after    6 cycles
 Optimization completed.
    -- Stationary point found.
 Normal termination of Gaussian 16 at Thu Dec 10 15:55:20 2020.

 --------------------------------------------------------------------
 #N Geom=AllCheck Guess=TCheck SCRF=Check GenChk RB3LYP/6-31G(d) Freq
 --------------------------------------------------------------------

 Structure from the checkpoint file:  "JID_5376.chk"
 -----------------------------
 CID_4316315_JID_5376_neutraal
 -----------------------------
 Charge =  0 Multiplicity = 1

 SCF Done:  E(RB3LYP) =  -706.267426670     A.U. after    1 cycles

  Exact polarizability: 170.642   7.436 129.448   4.720  -5.549  67.640
 Approx polarizability: 241.333  18.189 213.947   8.686 -12.814 105.776

                      1                      2                      3
                      A                      A                      A
 Frequencies --     33.7144                64.6196               103.0888
 Red. masses --      2.9967                 4.7113                 6.5806
 Frc consts  --      0.0020                 0.0116                 0.0412
 IR Inten    --      0.5936                 1.2767                 1.2926

                      4                      5                      6
                      A                      A                      A
 Frequencies --    120.1033               191.3140               238.7183
 Red. masses --      3.1430                 6.8023                 3.0261
 Frc consts  --      0.0267                 0.1467                 0.1016
 IR Inten    --      4.9678                 1.6730                 1.7967

                      7                      8                      9
                      A                      A                      A
 Frequencies --    254.2421               258.6555               296.0438
 Red. masses --      2.8268                 1.5885                 5.9355
 Frc consts  --      0.1077                 0.0626                 0.3065
 IR Inten    --      1.2029                 1.9619                 1.9670

                     10                     11                     12
                      A                      A                      A
 Frequencies --    326.7696               364.2372               398.0536
 Red. masses --      3.8867                 2.9259                 3.8172
 Frc consts  --      0.2445                 0.2287                 0.3564
 IR Inten    --      1.6392                 3.2543                 2.1232

                     13                     14                     15
                      A                      A                      A
 Frequencies --    453.7231               469.8268               494.6454
 Red. masses --      2.0914                 3.1527                 8.7769
 Frc consts  --      0.2537                 0.4100                 1.2653
 IR Inten    --     26.6645                 7.8708                 3.6751

                     16                     17                     18
                      A                      A                      A
 Frequencies --    513.3976               569.4201               628.3143
 Red. masses --      1.6218                 4.1036                 6.1728
 Frc consts  --      0.2519                 0.7839                 1.4358
 IR Inten    --     80.0437                 1.2475                21.0304

                     19                     20                     21
                      A                      A                      A
 Frequencies --    658.9307               693.8306               705.2333
 Red. masses --      6.1810                 4.3443                 6.1727
 Frc consts  --      1.5812                 1.2322                 1.8088
 IR Inten    --      4.3405                 1.9466                 6.8262

                     22                     23                     24
                      A                      A                      A
 Frequencies --    756.4352               762.0047               769.0914
 Red. masses --      2.4486                 2.3766                 3.5105
 Frc consts  --      0.8255                 0.8130                 1.2234
 IR Inten    --     10.7854                 6.4556                53.7860

                     25                     26                     27
                      A                      A                      A
 Frequencies --    803.2033               858.0719               868.2968
 Red. masses --      9.2258                 2.9246                 1.5008
 Frc consts  --      3.5067                 1.2687                 0.6667
 IR Inten    --      0.9718                10.1524                 1.3977

                     28                     29                     30
                      A                      A                      A
 Frequencies --    895.3775               930.6459               937.7604
 Red. masses --      4.2092                 1.9195                 1.5169
 Frc consts  --      1.9882                 0.9795                 0.7860
 IR Inten    --      5.0687                 6.4100                 5.9808

                     31                     32                     33
                      A                      A                      A
 Frequencies --    966.7630               974.3254              1001.7462
 Red. masses --      1.3691                 1.2487                 4.8987
 Frc consts  --      0.7539                 0.6984                 2.8963
 IR Inten    --      1.0687                 0.0135                14.0243

                     34                     35                     36
                      A                      A                      A
 Frequencies --   1034.4967              1053.5913              1056.4455
 Red. masses --      5.9733                 2.0782                 5.8036
 Frc consts  --      3.7664                 1.3592                 3.8163
 IR Inten    --     41.4154                 1.4665                89.3778

                     37                     38                     39
                      A                      A                      A
 Frequencies --   1098.4519              1103.4120              1145.1265
 Red. masses --      2.9626                 4.1471                 1.9808
 Frc consts  --      2.1061                 2.9749                 1.5304
 IR Inten    --     20.3089               146.7791               118.3038

                     40                     41                     42
                      A                      A                      A
 Frequencies --   1161.1125              1180.9741              1191.9425
 Red. masses --      2.0537                 1.9037                 1.1288
 Frc consts  --      1.6313                 1.5643                 0.9449
 IR Inten    --     65.9161                 2.1314                 3.5865

                     43                     44                     45
                      A                      A                      A
 Frequencies --   1221.8239              1251.8156              1267.4421
 Red. masses --      2.4934                 1.1827                 1.7934
 Frc consts  --      2.1931                 1.0920                 1.6974
 IR Inten    --    162.8853                 3.6108                38.2867

                     46                     47                     48
                      A                      A                      A
 Frequencies --   1318.1441              1333.0384              1362.8233
 Red. masses --      3.4324                 4.4520                 1.3756
 Frc consts  --      3.5137                 4.6611                 1.5053
 IR Inten    --     23.0735                61.7666                10.3620

                     49                     50                     51
                      A                      A                      A
 Frequencies --   1365.2227              1382.5362              1411.6871
 Red. masses --      2.1634                 1.3143                 1.4523
 Frc consts  --      2.3757                 1.4801                 1.7052
 IR Inten    --     46.0278                 4.2957                 4.7471

                     52                     53                     54
                      A                      A                      A
 Frequencies --   1434.2536              1440.8222              1515.8497
 Red. masses --      2.3228                 1.4303                 1.0516
 Frc consts  --      2.8153                 1.7494                 1.4236
 IR Inten    --     26.2077                 4.0752                 2.6521

                     55                     56                     57
                      A                      A                      A
 Frequencies --   1520.7376              1527.6513              1535.8179
 Red. masses --      2.7577                 1.0539                 2.4829
 Frc consts  --      3.7576                 1.4490                 3.4505
 IR Inten    --     82.3673                 3.2324                10.7990

                     58                     59                     60
                      A                      A                      A
 Frequencies --   1544.6650              1665.6215              1687.4899
 Red. masses --      1.1481                 6.5005                 7.0740
 Frc consts  --      1.6139                10.6255                11.8686
 IR Inten    --      2.1469                 3.6126               123.5981

                     61                     62                     63
                      A                      A                      A
 Frequencies --   1843.5139              3055.1664              3073.4230
 Red. masses --     11.0325                 1.0355                 1.0631
 Frc consts  --     22.0911                 5.6945                 5.9165
 IR Inten    --    383.6390                15.6424                32.1454

                     64                     65                     66
                      A                      A                      A
 Frequencies --   3079.1000              3123.1927              3126.9096
 Red. masses --      1.0799                 1.1116                 1.1022
 Frc consts  --      6.0324                 6.3885                 6.3498
 IR Inten    --     27.2868                19.2588                31.5139

                     67                     68                     69
                      A                      A                      A
 Frequencies --   3137.5007              3190.7961              3203.0867
 Red. masses --      1.1033                 1.0861                 1.0896
 Frc consts  --      6.3989                 6.5151                 6.5863
 IR Inten    --     27.5297                 2.5047                 9.0270

                     70                     71                     72
                      A                      A                      A
 Frequencies --   3210.4599              3220.4027              3633.1444
 Red. masses --      1.0936                 1.0965                 1.0788
 Frc consts  --      6.6414                 6.7001                 8.3899
 IR Inten    --     21.3724                15.1069                38.7012

 - Thermochemistry -
 -------------------
 Temperature   298.150 Kelvin.  Pressure   1.00000 Atm.
 Atom     1 has atomic number  6 and mass  12.00000

 Molecular mass:   205.07389 amu.
 Principal axes and moments of inertia in atomic units:
                           1         2         3
     Eigenvalues --  1510.269373728.161544671.80319
           X            0.99979  -0.02039  -0.00149
           Y            0.02040   0.99978   0.00434
           Z            0.00140  -0.00437   0.99999
 This molecule is an asymmetric top.
 Rotational symmetry number  1.
 Warning -- assumption of classical behavior for rotation
           may cause significant error
 Rotational temperatures (Kelvin)      0.05735     0.02323     0.01854
 Rotational constants (GHZ):           1.19498     0.48408     0.38631
 Zero-point vibrational energy     544721.3 (Joules/Mol)
                                  130.19152 (Kcal/Mol)
 Warning -- explicit consideration of  17 degrees of freedom as
           vibrations may cause significant error
 Vibrational temperatures:     48.51    92.97   148.32   172.80   275.26
          (Kelvin)            343.46   365.80   372.15   425.94   470.15
                              524.06   572.71   652.81   675.98   711.68
                              738.66   819.27   904.00   948.05   998.27
                             1014.67  1088.34  1096.35  1106.55  1155.63
                             1234.57  1249.29  1288.25  1338.99  1349.23
                             1390.96  1401.84  1441.29  1488.41  1515.88
                             1519.99  1580.43  1587.56  1647.58  1670.58
                             1699.16  1714.94  1757.93  1801.08  1823.57
                             1896.52  1917.94  1960.80  1964.25  1989.16
                             2031.10  2063.57  2073.02  2180.97  2188.00
                             2197.95  2209.70  2222.43  2396.46  2427.92
                             2652.41  4395.70  4421.97  4430.14  4493.58
                             4498.93  4514.16  4590.84  4608.53  4619.14
                             4633.44  5227.28

 Zero-point correction=                           0.207473 (Hartree/Particle)
 Thermal correction to Energy=                    0.219629
 Thermal correction to Enthalpy=                  0.220573
 Thermal correction to Gibbs Free Energy=         0.168499
 Sum of electronic and zero-point Energies=           -706.059953
 Sum of electronic and thermal Energies=              -706.047798
 Sum of electronic and thermal Enthalpies=            -706.046854
 Sum of electronic and thermal Free Energies=         -706.098928

                     E (Thermal)             CV                S
                      KCal/Mol        Cal/Mol-Kelvin    Cal/Mol-Kelvin
 Total                  137.819             47.879            109.600
 Electronic               0.000              0.000              0.000
 Translational            0.889              2.981             41.859
 Rotational               0.889              2.981             31.642
 Vibrational            136.042             41.917             36.099
 Vibration     1          0.594              1.983              5.598
 Vibration     2          0.597              1.971              4.311
 Vibration     3          0.605              1.947              3.395
 Vibration     4          0.609              1.932              3.099
 Vibration     5          0.634              1.852              2.215
 Vibration     6          0.657              1.781              1.812
 Vibration     7          0.665              1.756              1.701
 Vibration     8          0.667              1.748              1.671
 Vibration     9          0.690              1.681              1.439
 Vibration    10          0.710              1.622              1.276
 Vibration    11          0.738              1.546              1.104
 Vibration    12          0.764              1.474              0.970
 Vibration    13          0.812              1.353              0.785
 Vibration    14          0.827              1.317              0.738
 Vibration    15          0.850              1.262              0.672
 Vibration    16          0.868              1.220              0.625
 Vibration    17          0.925              1.097              0.505

 Optimization completed.
    -- Stationary point found.
 Normal termination of Gaussian 16 at Thu Dec 10 16:03:55 2020.

 ----------------------------------------------------------------------
 # B3LYP/6-311++G(d,p) empiricaldispersion=gd3bj scf=xqc pop=npa geom=c
 heck
 ----------------------------------------------------------------------

 -------------------------------------
 CID_4316315_JID_5376_Energie_neutraal
 -------------------------------------
 Structure from the checkpoint file:  "JID_5376.chk"
 Charge =  0 Multiplicity = 1

 SCF Done:  E(RB3LYP) =  -706.463737814     A.U. after   16 cycles
 Normal termination of Gaussian 16 at Thu Dec 10 16:07:19 2020.

 ----------------------------------------------------------------------
 # B3LYP/6-311++G(d,p) empiricaldispersion=gd3bj scf=xqc pop=npa geom=c
 heck
 ----------------------------------------------------------------------

 -----------------------------------
 CID_4316315_JID_5376_Energie_kation
 -----------------------------------
 Structure from the checkpoint file:  "JID_5376.chk"
 Charge =  1 Multiplicity = 2

 SCF Done:  E(UB3LYP) =  -706.159491396     A.U. after   33 cycles
 SCF Done:  E(UB3LYP) =  -706.159491396     a.u. after    1 cycles
 Normal termination of Gaussian 16 at Thu Dec 10 16:19:13 2020.
 Gaussian 16:  ES64L-G16RevA.03 25-Dec-2016

 ----------------------------------------------------------------------
 # B3LYP/6-311++G(d,p) empiricaldispersion=gd3bj scf=xqc pop=npa geom=c
 heck
 ----------------------------------------------------------------------

 ----------------------------------
 CID_4316315_JID_5376_Energie_anion
 ----------------------------------
 Structure from the checkpoint file:  "JID_5376.chk"
 Charge = -1 Multiplicity = 2

                         Standard orientation:
 ---------------------------------------------------------------------
 Center     Atomic      Atomic             Coordinates (Angstroms)
 Number     Number       Type             X           Y           Z
 ---------------------------------------------------------------------
      1          6           0        3.407421   -1.589644   -0.802999
      2          6           0        2.646315   -0.335354   -0.413312
      3          6           0        2.504370   -0.112207    1.115498
      4          8           0        1.095077   -0.174947    1.365622
      5          6           0        0.470254    0.099387    0.132049
      6          8           0        1.282855   -0.473283   -0.861512
      7          6           0       -0.954531   -0.370488    0.077566
      8          6           0       -1.483342   -1.642186    0.196694
      9          6           0       -2.872738   -1.803208    0.106583
     10          6           0       -3.694975   -0.693743   -0.099478
     11          6           0       -3.165524    0.598324   -0.221728
     12          6           0       -1.787645    0.737309   -0.129856
     13          7           0       -1.010569    1.906107   -0.218223
     14          6           0        0.337134    1.647353   -0.082141
     15          8           0        1.243038    2.457388   -0.118715
     16          1           0        2.967071   -2.466339   -0.316035
     17          1           0        4.457755   -1.508745   -0.500952
     18          1           0        3.372212   -1.739602   -1.886354
     19          1           0        3.083894    0.551353   -0.883429
     20          1           0        2.905253    0.859607    1.418243
     21          1           0        2.973947   -0.905819    1.704287
     22          1           0       -0.826293   -2.491430    0.355832
     23          1           0       -3.311531   -2.791860    0.197054
     24          1           0       -4.770605   -0.829133   -0.167730
     25          1           0       -3.812493    1.455358   -0.382379
     26          1           0       -1.373430    2.837341   -0.367389
 ---------------------------------------------------------------------

 SCF Done:  E(UB3LYP) =  -706.456598225     A.U. after   33 cycles
 SCF Done:  E(UB3LYP) =  -706.456598225     a.u. after    1 cycles

 The electronic state is 2-A.
 Alpha  occ. eigenvalues --  -19.00928 -19.00855 -18.96724 -14.22731 -10.14894
 Alpha  occ. eigenvalues --  -10.13261 -10.10726 -10.09866 -10.08741 -10.05188
 Alpha  occ. eigenvalues --  -10.05111 -10.04580 -10.04286 -10.04230 -10.03120
 Alpha  occ. eigenvalues --   -0.97632  -0.91438  -0.87790  -0.83219  -0.72099
 Alpha  occ. eigenvalues --   -0.68087  -0.63204  -0.61529  -0.58059  -0.55427
 Alpha  occ. eigenvalues --   -0.49494  -0.48685  -0.46871  -0.46324  -0.41436
 Alpha  occ. eigenvalues --   -0.39212  -0.38218  -0.36273  -0.34618  -0.33770
 Alpha  occ. eigenvalues --   -0.33081  -0.31357  -0.30570  -0.29803  -0.29316
 Alpha  occ. eigenvalues --   -0.28748  -0.27367  -0.26678  -0.24564  -0.24360
 Alpha  occ. eigenvalues --   -0.22333  -0.22191  -0.21456  -0.18983  -0.18681
 Alpha  occ. eigenvalues --   -0.15509  -0.13540  -0.11290  -0.09828   0.05253
 Alpha virt. eigenvalues --    0.07352   0.07939   0.08987   0.10036   0.10086
 Alpha virt. eigenvalues --    0.10663   0.10983   0.11539   0.12393   0.13248
 Alpha virt. eigenvalues --    0.13342   0.14352   0.14744   0.15419   0.15782

  Beta  occ. eigenvalues --  -19.00839 -19.00771 -18.96542 -14.22760 -10.14889
  Beta  occ. eigenvalues --  -10.13047 -10.10711 -10.09841 -10.08658 -10.05224
  Beta  occ. eigenvalues --  -10.05072 -10.04504 -10.04277 -10.03986 -10.02895
  Beta  occ. eigenvalues --   -0.97450  -0.91109  -0.87591  -0.83050  -0.71850
  Beta  occ. eigenvalues --   -0.67905  -0.62913  -0.61322  -0.57820  -0.55146
  Beta  occ. eigenvalues --   -0.49390  -0.48528  -0.46722  -0.45923  -0.41327
  Beta  occ. eigenvalues --   -0.39128  -0.38083  -0.36019  -0.34424  -0.33656
  Beta  occ. eigenvalues --   -0.32880  -0.31277  -0.30299  -0.29337  -0.29195
  Beta  occ. eigenvalues --   -0.28631  -0.27221  -0.26559  -0.24256  -0.23754
  Beta  occ. eigenvalues --   -0.22235  -0.22056  -0.21378  -0.18535  -0.18253
  Beta  occ. eigenvalues --   -0.15375  -0.12534  -0.11092  -0.09131
  Beta virt. eigenvalues --    0.07819   0.08139   0.08918   0.09923   0.10153
  Beta virt. eigenvalues --    0.10413   0.10723   0.11497   0.11971   0.12372
  Beta virt. eigenvalues --    0.13216   0.13413   0.14865   0.15396   0.15764

 Mulliken charges and spin densities:
               1          2
     1  C    1.018905  -1.785419
     2  C   -0.717793   1.267504
     3  C    0.383411  -0.502076
     4  O    0.062605  -0.005032
     5  C   -0.570330  -0.131701
     6  O    0.099186  -0.012187
     7  C    0.517000   0.334076
     8  C   -0.304282  -0.085304
     9  C   -0.296572   0.009558
    10  C   -0.188388   0.194969
    11  C   -0.683541  -0.091863
    12  C   -0.358585   0.173146
    13  N   -0.198048  -0.013250
    14  C    0.398069   0.108148
    15  O   -0.379413   0.068765
    16  H   -0.028928   0.172919
    17  H   -0.506360   0.654691
    18  H   -0.021022   0.155977
    19  H    0.154467   0.068949
    20  H    0.070112   0.110194
    21  H   -0.149832   0.285680
    22  H    0.117843   0.008992
    23  H    0.095847   0.016639
    24  H    0.109096  -0.012640
    25  H    0.089430   0.004897
    26  H    0.287123   0.004368
 Sum of Mulliken charges =  -1.00000   1.00000

 Dipole moment (field-independent basis, Debye):
    X=             -4.8616    Y=              1.5876    Z=             -0.4677  Tot=              5.1356
 Quadrupole moment (field-independent basis, Debye-Ang):
   XX=           -142.7206   YY=           -109.3283   ZZ=           -106.0496
   XY=              0.2825   XZ=              0.5238   YZ=             -1.3234

 Summary of Natural Population Analysis:

                                       Natural Population
                Natural  -----------------------------------------------
    Atom  No    Charge         Core      Valence    Rydberg      Total
 -----------------------------------------------------------------------
      C    1   -0.29096      0.99964     2.28488    0.00643     3.29096
      C    2    0.04548      0.99958     1.94042    0.01452     2.95452
      C    3   -0.02365      0.99957     2.01070    0.01338     3.02365
      O    4   -0.28731      0.99988     3.27939    0.00804     4.28731
      C    5    0.25942      0.99948     1.71950    0.02160     2.74058
      O    6   -0.29038      0.99987     3.28234    0.00817     4.29038
      C    7   -0.01163      0.99943     2.00265    0.00955     3.01163
      C    8   -0.06609      0.99953     2.05745    0.00911     3.06609
      C    9   -0.12600      0.99958     2.11730    0.00912     3.12600
      C   10   -0.05108      0.99959     2.04239    0.00910     3.05108
      C   11   -0.14252      0.99953     2.13451    0.00848     3.14252
      C   12    0.10974      0.99945     1.88087    0.00995     2.89026
      N   13   -0.31514      0.99964     2.80662    0.00888     3.81514
      C   14    0.36567      0.99965     1.61053    0.02415     2.63433
      O   15   -0.30574      0.99987     3.29962    0.00625     4.30574
      H   16    0.09922      0.00000     0.39946    0.00133     0.40078
      H   17    0.10139      0.00000     0.39582    0.00279     0.39861
      H   18    0.10066      0.00000     0.39835    0.00100     0.39934
      H   19    0.08840      0.00000     0.41014    0.00146     0.41160
      H   20    0.08917      0.00000     0.40947    0.00136     0.41083
      H   21    0.08682      0.00000     0.41163    0.00155     0.41318
      H   22    0.09861      0.00000     0.39968    0.00171     0.40139
      H   23    0.09208      0.00000     0.40698    0.00095     0.40792
      H   24    0.08804      0.00000     0.41097    0.00099     0.41196
      H   25    0.09340      0.00000     0.40515    0.00145     0.40660
      H   26    0.19241      0.00000     0.30543    0.00216     0.30759
 =======================================================================
   * Total *    0.00000     14.99428    38.82224    0.18348    54.00000

 Normal termination of Gaussian 16 at Thu Dec 10 16:30:17 2020.
