 Gaussian 16, Revision A.03,

 -----------------------------------------------------------
 # opt freq B3LYP/6-31G(d) empiricaldispersion=gd3bj scf=xqc
 -----------------------------------------------------------

 ------------------------------
 CID_16205942_JID_2773_neutraal
 ------------------------------
 Symbolic Z-matrix:
 Charge =  0 Multiplicity = 1

 SCF Done:  E(RB3LYP) =  -614.181646694     A.U. after   15 cycles
 SCF Done:  E(RB3LYP) =  -614.178663617     A.U. after   13 cycles
 SCF Done:  E(RB3LYP) =  -614.184337272     A.U. after   13 cycles
 SCF Done:  E(RB3LYP) =  -614.185011760     A.U. after   13 cycles
 SCF Done:  E(RB3LYP) =  -614.186840392     A.U. after   12 cycles
 SCF Done:  E(RB3LYP) =  -614.187198119     A.U. after   12 cycles
 SCF Done:  E(RB3LYP) =  -614.187033566     A.U. after   12 cycles
 SCF Done:  E(RB3LYP) =  -614.187353524     A.U. after   12 cycles
 SCF Done:  E(RB3LYP) =  -614.187637368     A.U. after   12 cycles
 SCF Done:  E(RB3LYP) =  -614.187647712     A.U. after   10 cycles
 SCF Done:  E(RB3LYP) =  -614.187652276     A.U. after    9 cycles
 SCF Done:  E(RB3LYP) =  -614.187652865     A.U. after    8 cycles
 SCF Done:  E(RB3LYP) =  -614.187652984     A.U. after    6 cycles
 Optimization completed.
    -- Stationary point found.

 1\1\GINC-NODE319\FOpt\RB3LYP\6-31G(d)\C8H14O4\VSC10255\09-Dec-2020\0\\
 # opt freq B3LYP/6-31G(d) empiricaldispersion=gd3bj scf=xqc\\CID_16205
 942_JID_2773_neutraal\\0,1\C,0.9187404334,0.1024808991,-0.0961920671\C
 ,-0.1011902804,-0.8106718647,-0.7698728148\C,0.4982347611,-2.224316666
 2,-1.0622445545\O,0.1196490108,-3.2219788091,-0.1642464109\C,0.6134594
 875,-3.0550126703,1.1574539901\O,0.1468289742,-2.7177156194,-2.3653558
 201\C,-1.1555016705,-2.901440801,-2.6736775335\O,-2.0904895447,-2.5456
 181271,-1.9752440058\C,-1.3580839273,-3.5760157414,-3.9871461871\C,-0.

 Normal termination of Gaussian 16 at Wed Dec  9 18:03:04 2020.

 --------------------------------------------------------------------
 #N Geom=AllCheck Guess=TCheck SCRF=Check GenChk RB3LYP/6-31G(d) Freq
 --------------------------------------------------------------------

 Structure from the checkpoint file:  "JID_2773.chk"
 ------------------------------
 CID_16205942_JID_2773_neutraal
 ------------------------------
 Charge =  0 Multiplicity = 1

 SCF Done:  E(RB3LYP) =  -614.187652984     A.U. after    2 cycles

  Exact polarizability: 117.731  -2.405  86.698  -4.260  12.209  87.101
 Approx polarizability: 138.851  -9.135 131.721 -11.791  32.987 136.789

                      1                      2                      3
                      A                      A                      A
 Frequencies --     42.9006                53.6771               101.7763
 Red. masses --      3.3176                 3.7385                 3.9535
 Frc consts  --      0.0036                 0.0063                 0.0241
 IR Inten    --      0.0715                 1.1013                 0.6877

                      4                      5                      6
                      A                      A                      A
 Frequencies --    121.3052               129.6394               159.4314
 Red. masses --      4.3970                 3.8393                 3.3346
 Frc consts  --      0.0381                 0.0380                 0.0499
 IR Inten    --      0.3770                 5.6270                 4.0339

                      7                      8                      9
                      A                      A                      A
 Frequencies --    172.3908               209.0682               230.5771
 Red. masses --      1.0357                 1.7017                 1.6435
 Frc consts  --      0.0181                 0.0438                 0.0515
 IR Inten    --      0.2983                 0.0700                 0.2805

                     10                     11                     12
                      A                      A                      A
 Frequencies --    239.5561               282.6157               297.3271
 Red. masses --      1.2425                 3.3947                 4.0022
 Frc consts  --      0.0420                 0.1598                 0.2085
 IR Inten    --      1.0991                 3.4579                 3.9758

                     13                     14                     15
                      A                      A                      A
 Frequencies --    334.5209               345.4917               357.8963
 Red. masses --      4.6788                 3.4917                 3.2727
 Frc consts  --      0.3085                 0.2456                 0.2470
 IR Inten    --      9.7951                 2.6111                 4.1107

                     16                     17                     18
                      A                      A                      A
 Frequencies --    410.3055               467.6169               488.3394
 Red. masses --      3.5133                 3.2362                 3.5527
 Frc consts  --      0.3485                 0.4169                 0.4992
 IR Inten    --      3.3227                 2.5678                 7.4678

                     19                     20                     21
                      A                      A                      A
 Frequencies --    578.2205               607.5880               650.3639
 Red. masses --      4.7557                 1.1635                 1.4691
 Frc consts  --      0.9368                 0.2531                 0.3661
 IR Inten    --      9.1419                69.6157                 9.1843

                     22                     23                     24
                      A                      A                      A
 Frequencies --    665.3425               687.7987               799.5719
 Red. masses --      3.0983                 4.6485                 4.0027
 Frc consts  --      0.8081                 1.2956                 1.5077
 IR Inten    --     50.7192                 3.8928                 2.7906

                     25                     26                     27
                      A                      A                      A
 Frequencies --    828.5465               907.7056               943.7497
 Red. masses --      2.5759                 3.1375                 2.2526
 Frc consts  --      1.0419                 1.5231                 1.1821
 IR Inten    --     11.9449                16.0954                12.2317

                     28                     29                     30
                      A                      A                      A
 Frequencies --    960.1961               977.4101              1004.7166
 Red. masses --      2.2934                 1.3382                 2.4540
 Frc consts  --      1.2458                 0.7532                 1.4595
 IR Inten    --     11.5652                30.2191                30.0668

                     31                     32                     33
                      A                      A                      A
 Frequencies --   1036.9640              1057.9197              1082.4894
 Red. masses --      1.6317                 2.4474                 2.7199
 Frc consts  --      1.0337                 1.6139                 1.8778
 IR Inten    --      8.5535                78.1756                67.6778

                     34                     35                     36
                      A                      A                      A
 Frequencies --   1087.8159              1130.4540              1155.8928
 Red. masses --      1.4687                 2.1345                 2.9466
 Frc consts  --      1.0240                 1.6071                 2.3196
 IR Inten    --      0.7535                14.6650               255.8499

                     37                     38                     39
                      A                      A                      A
 Frequencies --   1183.8014              1191.2484              1203.7107
 Red. masses --      2.6551                 1.4450                 2.4736
 Frc consts  --      2.1922                 1.2082                 2.1117
 IR Inten    --    157.0166                10.1173               181.5336

                     40                     41                     42
                      A                      A                      A
 Frequencies --   1258.3626              1342.4889              1353.5321
 Red. masses --      2.1423                 1.2530                 1.5035
 Frc consts  --      1.9987                 1.3305                 1.6229
 IR Inten    --     63.1430                35.1649                85.3186

                     43                     44                     45
                      A                      A                      A
 Frequencies --   1365.8727              1388.9460              1424.0950
 Red. masses --      1.9025                 1.3044                 1.3165
 Frc consts  --      2.0912                 1.4827                 1.5731
 IR Inten    --    100.6870                60.1600                10.2935

                     46                     47                     48
                      A                      A                      A
 Frequencies --   1436.4890              1442.0123              1463.3920
 Red. masses --      1.2356                 1.2829                 1.2476
 Frc consts  --      1.5022                 1.5718                 1.5741
 IR Inten    --      5.7698                 6.0786                 8.6228

                     49                     50                     51
                      A                      A                      A
 Frequencies --   1482.1495              1500.3734              1503.4882
 Red. masses --      1.4743                 1.1707                 1.0440
 Frc consts  --      1.9082                 1.5528                 1.3904
 IR Inten    --    112.4813                 4.0507                 6.8197

                     52                     53                     54
                      A                      A                      A
 Frequencies --   1511.9165              1518.5783              1519.5788
 Red. masses --      1.0542                 1.0625                 1.0566
 Frc consts  --      1.4198                 1.4436                 1.4375
 IR Inten    --      2.7338                 1.6115                21.7086

                     55                     56                     57
                      A                      A                      A
 Frequencies --   1532.5020              1553.8777              1719.0163
 Red. masses --      1.0510                 1.0486                 5.1869
 Frc consts  --      1.4543                 1.4918                 9.0307
 IR Inten    --      1.8611                11.5481                18.5176

                     58                     59                     60
                      A                      A                      A
 Frequencies --   1779.0956              2986.1375              3009.5210
 Red. masses --     10.6916                 1.0837                 1.0513
 Frc consts  --     19.9385                 5.6935                 5.6102
 IR Inten    --    204.4763                55.0798                35.2825

                     61                     62                     63
                      A                      A                      A
 Frequencies --   3019.8509              3060.2890              3063.9321
 Red. masses --      1.0819                 1.0358                 1.0366
 Frc consts  --      5.8133                 5.7152                 5.7338
 IR Inten    --     64.7241                14.0294                22.6592

                     64                     65                     66
                      A                      A                      A
 Frequencies --   3111.2955              3117.0807              3132.7822
 Red. masses --      1.0850                 1.1003                 1.1014
 Frc consts  --      6.1880                 6.2989                 6.3690
 IR Inten    --     24.2464                11.3679                32.8053

                     67                     68                     69
                      A                      A                      A
 Frequencies --   3144.3418              3145.1433              3154.7892
 Red. masses --      1.1038                 1.1027                 1.1058
 Frc consts  --      6.4297                 6.4269                 6.4846
 IR Inten    --     15.9492                29.5664                13.7546

                     70                     71                     72
                      A                      A                      A
 Frequencies --   3180.0669              3274.0089              3638.8583
 Red. masses --      1.0621                 1.1145                 1.0644
 Frc consts  --      6.3283                 7.0385                 8.3037
 IR Inten    --      9.6578                 4.7216               220.3250

 - Thermochemistry -
 -------------------
 Temperature   298.150 Kelvin.  Pressure   1.00000 Atm.
 Atom     1 has atomic number  6 and mass  12.00000

 Molecular mass:   174.08921 amu.
 Principal axes and moments of inertia in atomic units:
                           1         2         3
     Eigenvalues --  1058.224853379.927493537.77962
           X            0.99992   0.00972   0.00851
           Y           -0.00935   0.99907  -0.04208
           Z           -0.00891   0.04200   0.99908
 This molecule is an asymmetric top.
 Rotational symmetry number  1.
 Warning -- assumption of classical behavior for rotation
           may cause significant error
 Rotational temperatures (Kelvin)      0.08185     0.02563     0.02448
 Rotational constants (GHZ):           1.70544     0.53396     0.51013
 Zero-point vibrational energy     576120.4 (Joules/Mol)
                                  137.69608 (Kcal/Mol)
 Warning -- explicit consideration of  20 degrees of freedom as
           vibrations may cause significant error
 Vibrational temperatures:     61.72    77.23   146.43   174.53   186.52
          (Kelvin)            229.39   248.03   300.80   331.75   344.67
                              406.62   427.79   481.30   497.09   514.93
                              590.34   672.80   702.61   831.93   874.18
                              935.73   957.28   989.59  1150.41  1192.09
                             1305.99  1357.85  1381.51  1406.28  1445.56
                             1491.96  1522.11  1557.46  1565.12  1626.47
                             1663.07  1703.23  1713.94  1731.87  1810.50
                             1931.54  1947.43  1965.19  1998.38  2048.96
                             2066.79  2074.73  2105.49  2132.48  2158.70
                             2163.18  2175.31  2184.90  2186.33  2204.93
                             2235.68  2473.28  2559.72  4296.39  4330.03
                             4344.89  4403.07  4408.31  4476.46  4484.78
                             4507.37  4524.01  4525.16  4539.04  4575.41
                             4710.57  5235.51

 Zero-point correction=                           0.219433 (Hartree/Particle)
 Thermal correction to Energy=                    0.232983
 Thermal correction to Enthalpy=                  0.233927
 Thermal correction to Gibbs Free Energy=         0.179379
 Sum of electronic and zero-point Energies=           -613.968220
 Sum of electronic and thermal Energies=              -613.954670
 Sum of electronic and thermal Enthalpies=            -613.953726
 Sum of electronic and thermal Free Energies=         -614.008274

                     E (Thermal)             CV                S
                      KCal/Mol        Cal/Mol-Kelvin    Cal/Mol-Kelvin
 Total                  146.199             49.240            114.806
 Electronic               0.000              0.000              0.000
 Translational            0.889              2.981             41.371
 Rotational               0.889              2.981             30.915
 Vibrational            144.422             43.279             42.520
 Vibration     1          0.595              1.980              5.120
 Vibration     2          0.596              1.976              4.677
 Vibration     3          0.604              1.948              3.420
 Vibration     4          0.609              1.931              3.079
 Vibration     5          0.612              1.924              2.951
 Vibration     6          0.621              1.892              2.557
 Vibration     7          0.626              1.876              2.409
 Vibration     8          0.642              1.827              2.052
 Vibration     9          0.652              1.794              1.874
 Vibration    10          0.657              1.780              1.806
 Vibration    11          0.682              1.706              1.518
 Vibration    12          0.691              1.679              1.432
 Vibration    13          0.716              1.607              1.238
 Vibration    14          0.724              1.584              1.187
 Vibration    15          0.733              1.559              1.131
 Vibration    16          0.774              1.448              0.926
 Vibration    17          0.825              1.322              0.744
 Vibration    18          0.844              1.276              0.688
 Vibration    19          0.935              1.078              0.489
 Vibration    20          0.966              1.016              0.437

 Optimization completed.
    -- Stationary point found.

 1\1\GINC-NODE319\Freq\RB3LYP\6-31G(d)\C8H14O4\VSC10255\09-Dec-2020\0\\
 #N Geom=AllCheck Guess=TCheck SCRF=Check GenChk RB3LYP/6-31G(d) Freq\\
 CID_16205942_JID_2773_neutraal\\0,1\C,0.9187404334,0.1024808991,-0.096
 1920671\C,-0.1011902804,-0.8106718647,-0.7698728148\C,0.4982347611,-2.
 2243166662,-1.0622445545\O,0.1196490108,-3.2219788091,-0.1642464109\C,
 0.6134594875,-3.0550126703,1.1574539901\O,0.1468289742,-2.7177156194,-
 2.3653558201\C,-1.1555016705,-2.901440801,-2.6736775335\O,-2.090489544
 7,-2.5456181271,-1.9752440058\C,-1.3580839273,-3.5760157414,-3.9871461

 Normal termination of Gaussian 16 at Wed Dec  9 18:09:13 2020.

 ----------------------------------------------------------------------
 # B3LYP/6-311++G(d,p) empiricaldispersion=gd3bj scf=xqc pop=npa geom=c
 heck
 ----------------------------------------------------------------------

 --------------------------------------
 CID_16205942_JID_2773_Energie_neutraal
 --------------------------------------
 Structure from the checkpoint file:  "JID_2773.chk"
 Charge =  0 Multiplicity = 1

 SCF Done:  E(RB3LYP) =  -614.378650514     A.U. after   14 cycles
 Normal termination of Gaussian 16 at Wed Dec  9 18:12:38 2020.

 ----------------------------------------------------------------------
 # B3LYP/6-311++G(d,p) empiricaldispersion=gd3bj scf=xqc pop=npa geom=c
 heck
 ----------------------------------------------------------------------

 ------------------------------------
 CID_16205942_JID_2773_Energie_kation
 ------------------------------------
 Structure from the checkpoint file:  "JID_2773.chk"
 Charge =  1 Multiplicity = 2

 SCF Done:  E(UB3LYP) =  -614.047113657     A.U. after   24 cycles
 Normal termination of Gaussian 16 at Wed Dec  9 18:18:45 2020.
 Gaussian 16:  ES64L-G16RevA.03 25-Dec-2016

 -----------------------------------
 CID_16205942_JID_2773_Energie_anion
 -----------------------------------
 Structure from the checkpoint file:  "JID_2773.chk"
 Charge = -1 Multiplicity = 2

                         Standard orientation:
 ---------------------------------------------------------------------
 Center     Atomic      Atomic             Coordinates (Angstroms)
 Number     Number       Type             X           Y           Z
 ---------------------------------------------------------------------
      1          6           0        2.918680   -0.814482    1.345149
      2          6           0        1.593695   -0.848650    0.589371
      3          6           0        0.973009    0.579429    0.453272
      4          8           0        1.146068    1.180680   -0.793164
      5          6           0        2.490450    1.505389   -1.118467
      6          8           0       -0.442266    0.595691    0.701788
      7          6           0       -1.260215   -0.136493   -0.085454
      8          8           0       -0.881443   -0.939310   -0.922495
      9          6           0       -2.705857    0.111975    0.178506
     10          6           0       -3.097208    1.045507    1.054430
     11          6           0       -3.650658   -0.747828   -0.616123
     12          8           0        1.824124   -1.446551   -0.664718
     13          1           0        3.653838   -0.180161    0.840558
     14          1           0        3.327851   -1.827034    1.400501
     15          1           0        2.776814   -0.439397    2.364547
     16          1           0        0.878662   -1.439656    1.185133
     17          1           0        1.361735    1.227888    1.252294
     18          1           0        2.966650    2.082290   -0.310439
     19          1           0        3.075615    0.604953   -1.325640
     20          1           0        2.443270    2.126598   -2.015546
     21          1           0       -4.151808    1.227234    1.242117
     22          1           0       -2.381232    1.649462    1.599124
     23          1           0       -3.494612   -0.605372   -1.690844
     24          1           0       -3.475261   -1.810528   -0.415617
     25          1           0       -4.689648   -0.509156   -0.374023
     26          1           0        0.964881   -1.400286   -1.127561
 ---------------------------------------------------------------------

 SCF Done:  E(UB3LYP) =  -614.376989376     A.U. after   33 cycles
 SCF Done:  E(UB3LYP) =  -614.376989376     a.u. after    1 cycles

 The electronic state is 2-A.
 Alpha  occ. eigenvalues --  -19.01869 -19.01800 -18.99031 -18.94754 -10.15980
 Alpha  occ. eigenvalues --  -10.12710 -10.10795 -10.10543 -10.05547 -10.03350
 Alpha  occ. eigenvalues --  -10.02419 -10.00469  -0.97640  -0.92291  -0.89817
 Alpha  occ. eigenvalues --   -0.86484  -0.66514  -0.65061  -0.61219  -0.55847
 Alpha  occ. eigenvalues --   -0.54141  -0.50023  -0.45952  -0.41950  -0.41027
 Alpha  occ. eigenvalues --   -0.38814  -0.36836  -0.33949  -0.33757  -0.32471
 Alpha  occ. eigenvalues --   -0.31397  -0.30036  -0.29015  -0.28005  -0.27707
 Alpha  occ. eigenvalues --   -0.27112  -0.26697  -0.25740  -0.23159  -0.22344
 Alpha  occ. eigenvalues --   -0.22175  -0.21164  -0.17690  -0.16803  -0.14480
 Alpha  occ. eigenvalues --   -0.12558  -0.12368   0.05258
 Alpha virt. eigenvalues --    0.06874   0.08533   0.09195   0.09931   0.10477
 Alpha virt. eigenvalues --    0.11296   0.12037   0.12437   0.12705   0.13472
 Alpha virt. eigenvalues --    0.13950   0.14209   0.15142   0.16330   0.17040

  Beta  occ. eigenvalues --  -19.01825 -19.01788 -18.99030 -18.94446 -10.15974
  Beta  occ. eigenvalues --  -10.12389 -10.10790 -10.10523 -10.05526 -10.03359
  Beta  occ. eigenvalues --  -10.02324 -10.00091  -0.97480  -0.92102  -0.89804
  Beta  occ. eigenvalues --   -0.86063  -0.66264  -0.64832  -0.61155  -0.55695
  Beta  occ. eigenvalues --   -0.53819  -0.49750  -0.45463  -0.41776  -0.40982
  Beta  occ. eigenvalues --   -0.38706  -0.36793  -0.33600  -0.33560  -0.32239
  Beta  occ. eigenvalues --   -0.31249  -0.29542  -0.28766  -0.27954  -0.27558
  Beta  occ. eigenvalues --   -0.27051  -0.26262  -0.25677  -0.22926  -0.22294
  Beta  occ. eigenvalues --   -0.21967  -0.20861  -0.17419  -0.16110  -0.14396
  Beta  occ. eigenvalues --   -0.12289  -0.10505
  Beta virt. eigenvalues --    0.07449   0.08806   0.09112   0.10087   0.10689
  Beta virt. eigenvalues --    0.10955   0.11247   0.12197   0.12480   0.12883
  Beta virt. eigenvalues --    0.13453   0.14045   0.14159   0.15248   0.16319

 Mulliken charges and spin densities:
               1          2
     1  C    0.315540  -0.776650
     2  C   -0.293324   0.157717
     3  C   -0.398683   0.112140
     4  O   -0.107846   0.009041
     5  C    0.176335  -0.471174
     6  O    0.017348   0.005281
     7  C   -0.097010   0.138446
     8  O   -0.346867   0.108852
     9  C    0.786933  -0.057800
    10  C   -0.897370   0.408347
    11  C   -0.719460   0.036090
    12  O   -0.229324  -0.002167
    13  H   -0.154261   0.298412
    14  H    0.049158   0.101212
    15  H   -0.184963   0.323729
    16  H    0.156351   0.035737
    17  H    0.042051   0.112331
    18  H   -0.187159   0.312554
    19  H    0.115090   0.069383
    20  H    0.070931   0.064607
    21  H    0.074128  -0.018342
    22  H    0.105025   0.010669
    23  H    0.146041   0.004137
    24  H    0.121780   0.024563
    25  H    0.115267  -0.003649
    26  H    0.324288  -0.003466
 Sum of Mulliken charges =  -1.00000   1.00000

 Dipole moment (field-independent basis, Debye):
    X=              0.9630    Y=             -0.3076    Z=             -0.7449  Tot=              1.2557
 Quadrupole moment (field-independent basis, Debye-Ang):
   XX=           -120.4581   YY=            -93.7418   ZZ=            -93.9784
   XY=              1.5541   XZ=              0.6756   YZ=             -3.5074

 Summary of Natural Population Analysis:

                                       Natural Population
                Natural  -----------------------------------------------
    Atom  No    Charge         Core      Valence    Rydberg      Total
 -----------------------------------------------------------------------
      C    1   -0.29244      0.99965     2.28626    0.00654     3.29244
      C    2    0.03668      0.99957     1.94806    0.01569     2.96332
      C    3    0.21912      0.99954     1.76111    0.02023     2.78088
      O    4   -0.29538      0.99987     3.28585    0.00966     4.29538
      C    5   -0.10481      0.99961     2.09574    0.00946     3.10481
      O    6   -0.28440      0.99985     3.27605    0.00849     4.28440
      C    7    0.43776      0.99960     1.53680    0.02584     2.56224
      O    8   -0.31235      0.99985     3.30763    0.00487     4.31235
      C    9   -0.06137      0.99949     2.05157    0.01031     3.06137
      C   10   -0.09440      0.99954     2.08638    0.00848     3.09440
      C   11   -0.29045      0.99964     2.28602    0.00478     3.29045
      O   12   -0.38824      0.99989     3.38179    0.00657     4.38824
      H   13    0.09815      0.00000     0.40065    0.00120     0.40185
      H   14    0.10164      0.00000     0.39744    0.00091     0.39836
      H   15    0.09861      0.00000     0.40022    0.00117     0.40139
      H   16    0.08569      0.00000     0.41296    0.00135     0.41431
      H   17    0.07487      0.00000     0.42343    0.00170     0.42513
      H   18    0.07661      0.00000     0.42196    0.00143     0.42339
      H   19    0.09071      0.00000     0.40799    0.00130     0.40929
      H   20    0.08805      0.00000     0.41114    0.00081     0.41195
      H   21    0.07688      0.00000     0.42222    0.00090     0.42312
      H   22    0.09405      0.00000     0.40501    0.00094     0.40595
      H   23    0.10145      0.00000     0.39745    0.00110     0.39855
      H   24    0.10021      0.00000     0.39868    0.00110     0.39979
      H   25    0.09102      0.00000     0.40821    0.00077     0.40898
      H   26    0.25235      0.00000     0.24497    0.00268     0.24765
 =======================================================================
   * Total *    0.00000     11.99610    34.85560    0.14831    47.00000

 Normal termination of Gaussian 16 at Wed Dec  9 18:25:30 2020.
