 Gaussian 16, Revision A.03,

 -----------------------------------------------------------
 # opt freq B3LYP/6-31G(d) empiricaldispersion=gd3bj scf=xqc
 -----------------------------------------------------------

 -------------------------------
 CID_117182255_JID_9777_neutraal
 -------------------------------
 Symbolic Z-matrix:
 Charge =  0 Multiplicity = 1

 SCF Done:  E(RB3LYP) =  -1131.94055362     A.U. after   14 cycles
 SCF Done:  E(RB3LYP) =  -1131.94780649     A.U. after   12 cycles
 SCF Done:  E(RB3LYP) =  -1131.94875146     A.U. after   12 cycles
 SCF Done:  E(RB3LYP) =  -1131.94832621     A.U. after   13 cycles
 SCF Done:  E(RB3LYP) =  -1131.94847197     A.U. after   12 cycles
 SCF Done:  E(RB3LYP) =  -1131.94938131     A.U. after    9 cycles
 SCF Done:  E(RB3LYP) =  -1131.94958403     A.U. after   12 cycles
 SCF Done:  E(RB3LYP) =  -1131.94943787     A.U. after   12 cycles
 SCF Done:  E(RB3LYP) =  -1131.94965426     A.U. after   12 cycles
 SCF Done:  E(RB3LYP) =  -1131.94974258     A.U. after   11 cycles
 SCF Done:  E(RB3LYP) =  -1131.94980807     A.U. after   10 cycles
 SCF Done:  E(RB3LYP) =  -1131.94982041     A.U. after   10 cycles
 SCF Done:  E(RB3LYP) =  -1131.94982346     A.U. after    8 cycles
 SCF Done:  E(RB3LYP) =  -1131.94982402     A.U. after    8 cycles
 SCF Done:  E(RB3LYP) =  -1131.94982412     A.U. after    7 cycles
 Optimization completed.
    -- Stationary point found.
 Normal termination of Gaussian 16 at Sat Dec 12 10:14:23 2020.

 --------------------------------------------------------------------
 #N Geom=AllCheck Guess=TCheck SCRF=Check GenChk RB3LYP/6-31G(d) Freq
 --------------------------------------------------------------------

 Structure from the checkpoint file:  "JID_9777.chk"
 -------------------------------
 CID_117182255_JID_9777_neutraal
 -------------------------------
 Charge =  0 Multiplicity = 1

 SCF Done:  E(RB3LYP) =  -1131.94982412     A.U. after    1 cycles

  Exact polarizability: 228.149  -1.182 218.062 -14.847  -0.418 146.759
 Approx polarizability: 325.618 -10.302 355.435 -33.936  -4.506 225.788

                      1                      2                      3
                      A                      A                      A
 Frequencies --     26.3256                37.6290                43.1170
 Red. masses --      3.4548                 4.2681                 3.8351
 Frc consts  --      0.0014                 0.0036                 0.0042
 IR Inten    --      0.1134                 0.0532                 0.3355

                      4                      5                      6
                      A                      A                      A
 Frequencies --     67.8797                77.8950               102.0361
 Red. masses --      2.9121                 2.6454                 3.7691
 Frc consts  --      0.0079                 0.0095                 0.0231
 IR Inten    --      0.4909                 0.1612                 2.0871

                      7                      8                      9
                      A                      A                      A
 Frequencies --    112.9197               140.6710               166.6951
 Red. masses --      4.5996                 3.2784                 2.9162
 Frc consts  --      0.0346                 0.0382                 0.0477
 IR Inten    --      0.6245                 3.9238                 1.3091

                     10                     11                     12
                      A                      A                      A
 Frequencies --    176.6353               206.6904               224.8810
 Red. masses --      3.6794                 3.4658                 2.3581
 Frc consts  --      0.0676                 0.0872                 0.0703
 IR Inten    --      1.1907                 1.3542                 0.7544

                     13                     14                     15
                      A                      A                      A
 Frequencies --    234.7523               242.2358               249.4873
 Red. masses --      1.8753                 1.1640                 1.4851
 Frc consts  --      0.0609                 0.0402                 0.0545
 IR Inten    --      0.7720                 0.0515                 0.4342

                     16                     17                     18
                      A                      A                      A
 Frequencies --    264.9481               272.6707               286.5867
 Red. masses --      1.1626                 1.0735                 1.5779
 Frc consts  --      0.0481                 0.0470                 0.0764
 IR Inten    --      0.2305                 1.5809                26.9513

                     19                     20                     21
                      A                      A                      A
 Frequencies --    303.5070               323.0866               324.4988
 Red. masses --      1.6571                 2.7889                 3.0585
 Frc consts  --      0.0899                 0.1715                 0.1898
 IR Inten    --     16.1365                 2.2614                 1.9833

                     22                     23                     24
                      A                      A                      A
 Frequencies --    336.1899               356.7625               385.4013
 Red. masses --      3.0785                 2.8451                 3.2859
 Frc consts  --      0.2050                 0.2134                 0.2876
 IR Inten    --      0.7594                 2.4024                 1.7788

                     25                     26                     27
                      A                      A                      A
 Frequencies --    430.5211               443.4488               464.4446
 Red. masses --      3.7983                 2.7688                 2.8982
 Frc consts  --      0.4148                 0.3208                 0.3683
 IR Inten    --      1.4303                 0.9135                 2.1778

                     28                     29                     30
                      A                      A                      A
 Frequencies --    503.8961               546.8601               559.7629
 Red. masses --      4.0820                 4.2518                 3.6531
 Frc consts  --      0.6107                 0.7492                 0.6744
 IR Inten    --      0.1423                 0.8877                 2.1351

                     31                     32                     33
                      A                      A                      A
 Frequencies --    581.2400               600.4500               614.9924
 Red. masses --      4.2870                 3.7304                 3.9858
 Frc consts  --      0.8533                 0.7924                 0.8882
 IR Inten    --     10.1701                 3.5835                 6.4384

                     34                     35                     36
                      A                      A                      A
 Frequencies --    629.8446               667.1126               693.3071
 Red. masses --      3.5747                 3.9590                 4.8354
 Frc consts  --      0.8355                 1.0381                 1.3694
 IR Inten    --      4.6434                 2.8552                 8.2719

                     37                     38                     39
                      A                      A                      A
 Frequencies --    710.3430               761.3324               789.2697
 Red. masses --      3.9798                 1.6280                 3.9483
 Frc consts  --      1.1832                 0.5560                 1.4491
 IR Inten    --     13.9382                26.7588                 5.9794

                     40                     41                     42
                      A                      A                      A
 Frequencies --    803.4319               813.9400               877.9723
 Red. masses --      1.5382                 2.7559                 1.3099
 Frc consts  --      0.5850                 1.0757                 0.5949
 IR Inten    --     18.6386                17.2358                54.1219

                     43                     44                     45
                      A                      A                      A
 Frequencies --    884.0103               897.7455               904.8998
 Red. masses --      2.8145                 2.3560                 1.3837
 Frc consts  --      1.2959                 1.1188                 0.6676
 IR Inten    --      0.9972                 5.8110                17.5002

                     46                     47                     48
                      A                      A                      A
 Frequencies --    911.5119               934.5894               942.4703
 Red. masses --      1.8114                 2.8658                 1.1555
 Frc consts  --      0.8867                 1.4748                 0.6047
 IR Inten    --      4.6335                19.1241                 1.2456

                     49                     50                     51
                      A                      A                      A
 Frequencies --    950.0048               955.0577               968.1123
 Red. masses --      1.3537                 1.2695                 1.4545
 Frc consts  --      0.7198                 0.6823                 0.8032
 IR Inten    --      0.4988                 1.3404                 0.0923

                     52                     53                     54
                      A                      A                      A
 Frequencies --    971.2208              1014.7950              1042.0323
 Red. masses --      1.2934                 2.7174                 3.2032
 Frc consts  --      0.7188                 1.6488                 2.0493
 IR Inten    --      0.2682                19.2230                 5.9922

                     55                     56                     57
                      A                      A                      A
 Frequencies --   1087.7126              1096.5930              1116.7630
 Red. masses --      2.1899                 1.3546                 1.8930
 Frc consts  --      1.5265                 0.9598                 1.3910
 IR Inten    --      6.2601                13.4604                 4.0065

                     58                     59                     60
                      A                      A                      A
 Frequencies --   1128.3100              1141.7191              1160.6404
 Red. masses --      1.8099                 2.2805                 2.1589
 Frc consts  --      1.3576                 1.7515                 1.7135
 IR Inten    --      4.2313                 2.2747                14.1396

                     61                     62                     63
                      A                      A                      A
 Frequencies --   1167.2008              1182.8707              1196.3044
 Red. masses --      1.8890                 1.2751                 1.5991
 Frc consts  --      1.5162                 1.0512                 1.3483
 IR Inten    --     11.1031                 3.3833                 6.8731

                     64                     65                     66
                      A                      A                      A
 Frequencies --   1203.3138              1207.1304              1211.9290
 Red. masses --      1.3522                 1.7355                 1.9799
 Frc consts  --      1.1536                 1.4900                 1.7133
 IR Inten    --      7.0657                10.7894                 5.9294

                     67                     68                     69
                      A                      A                      A
 Frequencies --   1241.7074              1274.7823              1287.2644
 Red. masses --      1.6059                 1.8993                 1.3370
 Frc consts  --      1.4589                 1.8185                 1.3053
 IR Inten    --     54.1990                40.9669                46.2996

                     70                     71                     72
                      A                      A                      A
 Frequencies --   1293.8340              1325.1878              1339.4131
 Red. masses --      1.6937                 1.2576                 1.6911
 Frc consts  --      1.6705                 1.3012                 1.7876
 IR Inten    --     13.1082                 9.7029                18.2322

                     73                     74                     75
                      A                      A                      A
 Frequencies --   1356.3004              1388.2975              1399.5172
 Red. masses --      1.3221                 2.9055                 5.0551
 Frc consts  --      1.4329                 3.2994                 5.8336
 IR Inten    --      1.1940                11.9615                45.4297

                     76                     77                     78
                      A                      A                      A
 Frequencies --   1404.1224              1412.8221              1425.1828
 Red. masses --      1.6483                 2.0583                 1.2480
 Frc consts  --      1.9147                 2.4207                 1.4936
 IR Inten    --      5.0100                 0.3163                 5.0547

                     79                     80                     81
                      A                      A                      A
 Frequencies --   1428.7190              1439.8963              1444.0233
 Red. masses --      1.3153                 1.4991                 1.2258
 Frc consts  --      1.5818                 1.8312                 1.5059
 IR Inten    --     10.1652                14.2518                 1.6740

                     82                     83                     84
                      A                      A                      A
 Frequencies --   1446.0561              1471.7825              1482.5932
 Red. masses --      1.2581                 2.1571                 1.4966
 Frc consts  --      1.5500                 2.7530                 1.9382
 IR Inten    --      7.1352                59.1775                 4.4887

                     85                     86                     87
                      A                      A                      A
 Frequencies --   1497.9219              1512.4737              1514.7629
 Red. masses --      1.1892                 1.0434                 1.0434
 Frc consts  --      1.5721                 1.4063                 1.4106
 IR Inten    --      7.9081                 0.8862                 1.1312

                     88                     89                     90
                      A                      A                      A
 Frequencies --   1519.6841              1525.6156              1528.7853
 Red. masses --      1.0694                 1.0515                 1.0436
 Frc consts  --      1.4552                 1.4420                 1.4370
 IR Inten    --      1.5322                 1.7528                 7.7866

                     91                     92                     93
                      A                      A                      A
 Frequencies --   1532.5520              1540.1846              1541.1745
 Red. masses --      1.0561                 1.0622                 1.0585
 Frc consts  --      1.4615                 1.4846                 1.4814
 IR Inten    --      9.2539                 1.0233                 0.6655

                     94                     95                     96
                      A                      A                      A
 Frequencies --   1542.6331              1556.8071              1606.8227
 Red. masses --      2.8791                 1.1135                 6.1345
 Frc consts  --      4.0367                 1.5901                 9.3317
 IR Inten    --      2.9620                 2.6658                27.2697

                     97                     98                     99
                      A                      A                      A
 Frequencies --   1637.9663              1661.5451              1683.9969
 Red. masses --      6.3472                 6.1175                 1.0988
 Frc consts  --     10.0332                 9.9505                 1.8359
 IR Inten    --      5.2606                 6.1681                33.8653

                    100                    101                    102
                      A                      A                      A
 Frequencies --   2996.2348              3042.1077              3047.1191
 Red. masses --      1.0720                 1.0503                 1.0357
 Frc consts  --      5.6701                 5.7267                 5.6659
 IR Inten    --     74.9334                23.0162                20.2506

                    103                    104                    105
                      A                      A                      A
 Frequencies --   3048.1920              3053.7814              3055.1743
 Red. masses --      1.0587                 1.0616                 1.0608
 Frc consts  --      5.7958                 5.8329                 5.8339
 IR Inten    --     18.2142                37.1874                21.4524

                    106                    107                    108
                      A                      A                      A
 Frequencies --   3055.7761              3063.3297              3104.9440
 Red. masses --      1.0375                 1.0894                 1.1007
 Frc consts  --      5.7080                 6.0234                 6.2519
 IR Inten    --     27.1124                36.8922                 9.4271

                    109                    110                    111
                      A                      A                      A
 Frequencies --   3105.1045              3114.6526              3114.9077
 Red. masses --      1.0953                 1.1012                 1.0967
 Frc consts  --      6.2221                 6.2943                 6.2697
 IR Inten    --     50.6062                 1.7909                23.9903

                    112                    113                    114
                      A                      A                      A
 Frequencies --   3124.1848              3127.5377              3133.1409
 Red. masses --      1.0905                 1.1021                 1.0954
 Frc consts  --      6.2710                 6.3513                 6.3356
 IR Inten    --     19.5547                35.3271                23.5223

                    115                    116                    117
                      A                      A                      A
 Frequencies --   3137.2894              3139.5523              3165.0600
 Red. masses --      1.1027                 1.1027                 1.1002
 Frc consts  --      6.3949                 6.4039                 6.4939
 IR Inten    --     20.3713                21.5243                15.1001

                    118                    119                    120
                      A                      A                      A
 Frequencies --   3173.4541              3196.8254              3217.7986
 Red. masses --      1.0873                 1.0902                 1.0946
 Frc consts  --      6.4515                 6.5643                 6.6776
 IR Inten    --     14.0096                23.7392                14.1089

                    121                    122                    123
                      A                      A                      A
 Frequencies --   3276.3423              3458.1658              3548.7962
 Red. masses --      1.0952                 1.0495                 1.0931
 Frc consts  --      6.9267                 7.3948                 8.1109
 IR Inten    --      1.9392                 4.2660                 0.5244

 - Thermochemistry -
 -------------------
 Temperature   298.150 Kelvin.  Pressure   1.00000 Atm.
 Atom     1 has atomic number  6 and mass  12.00000

 Molecular mass:   276.16602 amu.
 Principal axes and moments of inertia in atomic units:
                           1         2         3
     Eigenvalues --  3721.961477053.278618706.61480
           X            0.99997   0.00329   0.00672
           Y           -0.00324   0.99996  -0.00789
           Z           -0.00675   0.00786   0.99995
 This molecule is an asymmetric top.
 Rotational symmetry number  1.
 Warning -- assumption of classical behavior for rotation
           may cause significant error
 Rotational temperatures (Kelvin)      0.02327     0.01228     0.00995
 Rotational constants (GHZ):           0.48489     0.25587     0.20728
 Zero-point vibrational energy     989888.9 (Joules/Mol)
                                  236.58914 (Kcal/Mol)
 Warning -- explicit consideration of  33 degrees of freedom as
           vibrations may cause significant error
 Vibrational temperatures:     37.88    54.14    62.04    97.66   112.07
          (Kelvin)            146.81   162.47   202.39   239.84   254.14
                              297.38   323.55   337.76   348.52   358.96
                              381.20   392.31   412.33   436.68   464.85
                              466.88   483.70   513.30   554.51   619.42
                              638.02   668.23   724.99   786.81   805.37
                              836.27   863.91   884.84   906.21   959.83
                              997.51  1022.03  1095.39  1135.58  1155.96
                             1171.08  1263.21  1271.89  1291.66  1301.95
                             1311.46  1344.67  1356.00  1366.85  1374.11
                             1392.90  1397.37  1460.06  1499.25  1564.98
                             1577.75  1606.77  1623.39  1642.68  1669.90
                             1679.34  1701.89  1721.22  1731.30  1736.79
                             1743.70  1786.54  1834.13  1852.09  1861.54
                             1906.65  1927.12  1951.41  1997.45  2013.59
                             2020.22  2032.74  2050.52  2055.61  2071.69
                             2077.63  2080.55  2117.57  2133.12  2155.18
                             2176.11  2179.41  2186.49  2195.02  2199.58
                             2205.00  2215.98  2217.41  2219.50  2239.90
                             2311.86  2356.67  2390.59  2422.90  4310.91
                             4376.91  4384.12  4385.67  4393.71  4395.71
                             4396.58  4407.45  4467.32  4467.55  4481.29
                             4481.66  4495.01  4499.83  4507.89  4513.86
                             4517.12  4553.82  4565.89  4599.52  4629.69
                             4713.93  4975.53  5105.93

 Zero-point correction=                           0.377029 (Hartree/Particle)
 Thermal correction to Energy=                    0.397279
 Thermal correction to Enthalpy=                  0.398224
 Thermal correction to Gibbs Free Energy=         0.328218
 Sum of electronic and zero-point Energies=          -1131.572795
 Sum of electronic and thermal Energies=             -1131.552545
 Sum of electronic and thermal Enthalpies=           -1131.551601
 Sum of electronic and thermal Free Energies=        -1131.621606

                     E (Thermal)             CV                S
                      KCal/Mol        Cal/Mol-Kelvin    Cal/Mol-Kelvin
 Total                  249.297             77.647            147.339
 Electronic               0.000              0.000              0.000
 Translational            0.889              2.981             42.746
 Rotational               0.889              2.981             33.791
 Vibrational            247.519             71.685             70.803
 Vibration     1          0.593              1.985              6.089
 Vibration     2          0.594              1.982              5.380
 Vibration     3          0.595              1.980              5.110
 Vibration     4          0.598              1.970              4.214
 Vibration     5          0.599              1.964              3.943
 Vibration     6          0.604              1.948              3.415
 Vibration     7          0.607              1.939              3.218
 Vibration     8          0.615              1.913              2.795
 Vibration     9          0.624              1.883              2.472
 Vibration    10          0.628              1.871              2.364
 Vibration    11          0.641              1.830              2.073
 Vibration    12          0.650              1.803              1.919
 Vibration    13          0.655              1.788              1.842
 Vibration    14          0.658              1.776              1.786
 Vibration    15          0.662              1.764              1.734
 Vibration    16          0.671              1.737              1.629
 Vibration    17          0.676              1.724              1.579
 Vibration    18          0.684              1.699              1.494
 Vibration    19          0.695              1.667              1.397
 Vibration    20          0.708              1.629              1.294
 Vibration    21          0.709              1.626              1.287
 Vibration    22          0.717              1.603              1.230
 Vibration    23          0.732              1.561              1.136
 Vibration    24          0.754              1.501              1.018
 Vibration    25          0.792              1.404              0.857
 Vibration    26          0.803              1.375              0.816
 Vibration    27          0.822              1.329              0.753
 Vibration    28          0.859              1.241              0.648
 Vibration    29          0.902              1.147              0.551
 Vibration    30          0.915              1.118              0.524
 Vibration    31          0.938              1.072              0.483
 Vibration    32          0.959              1.031              0.449
 Vibration    33          0.974              1.000              0.425

 Optimization completed.
    -- Stationary point found.
 Normal termination of Gaussian 16 at Sat Dec 12 10:40:26 2020.

 ----------------------------------------------------------------------
 # B3LYP/6-311++G(d,p) empiricaldispersion=gd3bj scf=xqc pop=npa geom=c
 heck
 ----------------------------------------------------------------------

 ---------------------------------------
 CID_117182255_JID_9777_Energie_neutraal
 ---------------------------------------
 Structure from the checkpoint file:  "JID_9777.chk"
 Charge =  0 Multiplicity = 1

 SCF Done:  E(RB3LYP) =  -1132.17576675     A.U. after   16 cycles
 Normal termination of Gaussian 16 at Sat Dec 12 10:54:00 2020.

 ----------------------------------------------------------------------
 # B3LYP/6-311++G(d,p) empiricaldispersion=gd3bj scf=xqc pop=npa geom=c
 heck
 ----------------------------------------------------------------------

 -------------------------------------
 CID_117182255_JID_9777_Energie_kation
 -------------------------------------
 Structure from the checkpoint file:  "JID_9777.chk"
 Charge =  1 Multiplicity = 2

 SCF Done:  E(UB3LYP) =  -1131.91940926     A.U. after   26 cycles
 Normal termination of Gaussian 16 at Sat Dec 12 11:24:43 2020.
 Gaussian 16:  ES64L-G16RevA.03 25-Dec-2016

 ----------------------------------------------------------------------
 # B3LYP/6-311++G(d,p) empiricaldispersion=gd3bj scf=xqc pop=npa geom=c
 heck
 ----------------------------------------------------------------------

 ------------------------------------
 CID_117182255_JID_9777_Energie_anion
 ------------------------------------
 Structure from the checkpoint file:  "JID_9777.chk"
 Charge = -1 Multiplicity = 2

                         Standard orientation:
 ---------------------------------------------------------------------
 Center     Atomic      Atomic             Coordinates (Angstroms)
 Number     Number       Type             X           Y           Z
 ---------------------------------------------------------------------
      1          6           0       -1.636123    3.171551    0.393147
      2          6           0       -2.162865    1.856574   -0.187775
      3          6           0       -2.945843    2.080670   -1.486708
      4          7           0       -1.071663    0.895027   -0.400301
      5          6           0        0.179716    1.239609   -0.882207
      6          6           0        0.954868    0.125575   -1.077756
      7          6           0        0.137317   -0.999554   -0.714863
      8          6           0        0.396885   -2.377794   -0.694075
      9          6           0       -0.611159   -3.238332   -0.292029
     10          6           0       -1.865675   -2.732133    0.090857
     11          6           0       -2.169389   -1.370013    0.097667
     12          6           0       -1.134286   -0.493258   -0.303464
     13          6           0       -3.545695   -0.948961    0.557631
     14          7           0       -3.483359   -0.233863    1.846018
     15          6           0        2.372778    0.113829   -1.536035
     16         16           0        3.603627   -0.630179   -0.367959
     17          6           0        3.414976    0.355082    1.190297
     18          6           0        3.444597    1.863442    0.940365
     19          6           0        2.213746   -0.071333    2.040197
     20          1           0       -1.042646    3.741192   -0.330746
     21          1           0       -1.022860    2.986443    1.280321
     22          1           0       -2.483433    3.800146    0.685473
     23          1           0       -2.802528    1.407438    0.574126
     24          1           0       -2.310082    2.551331   -2.245982
     25          1           0       -3.308808    1.131877   -1.894223
     26          1           0       -3.808064    2.733532   -1.309037
     27          1           0        0.434784    2.276234   -1.044226
     28          1           0        1.375590   -2.749944   -0.978537
     29          1           0       -0.438189   -4.310301   -0.268458
     30          1           0       -2.642715   -3.429179    0.395768
     31          1           0       -4.015826   -0.275160   -0.169369
     32          1           0       -4.175451   -1.851652    0.593397
     33          1           0       -4.425413   -0.108507    2.215210
     34          1           0       -2.978346   -0.810112    2.517916
     35          1           0        2.500435   -0.507669   -2.430451
     36          1           0        2.695747    1.125089   -1.800618
     37          1           0        4.332616    0.075208    1.722730
     38          1           0        2.542768    2.189816    0.413600
     39          1           0        3.478020    2.399981    1.896817
     40          1           0        4.318935    2.154321    0.350150
     41          1           0        2.205130   -1.153727    2.193818
     42          1           0        2.263593    0.419264    3.021616
     43          1           0        1.270768    0.209361    1.566541
 ---------------------------------------------------------------------

 SCF Done:  E(UB3LYP) =  -1132.16625091     A.U. after   33 cycles
 SCF Done:  E(UB3LYP) =  -1132.16625091     a.u. after    1 cycles

 The electronic state is 2-A.
 Alpha  occ. eigenvalues --  -88.74227 -14.25934 -14.19364 -10.11810 -10.11503
 Alpha  occ. eigenvalues --  -10.11273 -10.10773 -10.10240 -10.09806 -10.08154
 Alpha  occ. eigenvalues --  -10.07766 -10.07259 -10.07108 -10.06939 -10.06908
 Alpha  occ. eigenvalues --  -10.06873 -10.06867 -10.06852 -10.06771  -7.82856
 Alpha  occ. eigenvalues --   -5.79258  -5.78883  -5.78217  -0.88769  -0.78681
 Alpha  occ. eigenvalues --   -0.75347  -0.73395  -0.71592  -0.68605  -0.65868
 Alpha  occ. eigenvalues --   -0.63247  -0.62411  -0.60087  -0.59807  -0.56723
 Alpha  occ. eigenvalues --   -0.56276  -0.51569  -0.51189  -0.49052  -0.46700
 Alpha  occ. eigenvalues --   -0.44429  -0.40912  -0.40224  -0.38573  -0.38177
 Alpha  occ. eigenvalues --   -0.37346  -0.37043  -0.35448  -0.35377  -0.34659
 Alpha  occ. eigenvalues --   -0.34013  -0.32896  -0.32409  -0.31569  -0.31027
 Alpha  occ. eigenvalues --   -0.30561  -0.30073  -0.29957  -0.29273  -0.28676
 Alpha  occ. eigenvalues --   -0.28231  -0.28007  -0.26327  -0.26087  -0.25820
 Alpha  occ. eigenvalues --   -0.24781  -0.24499  -0.23491  -0.22764  -0.21154
 Alpha  occ. eigenvalues --   -0.17357  -0.14869  -0.13420  -0.12785  -0.10802
 Alpha  occ. eigenvalues --    0.04025
 Alpha virt. eigenvalues --    0.05790   0.06511   0.06945   0.07450   0.07898
 Alpha virt. eigenvalues --    0.08107   0.08503   0.08931   0.09151   0.09848
 Alpha virt. eigenvalues --    0.10162   0.10402   0.10852   0.10881   0.11296

  Beta  occ. eigenvalues --  -88.74225 -14.25939 -14.19306 -10.11807 -10.11497
  Beta  occ. eigenvalues --  -10.11266 -10.10769 -10.10201 -10.09786 -10.08127
  Beta  occ. eigenvalues --  -10.07744 -10.07255 -10.07106 -10.06916 -10.06864
  Beta  occ. eigenvalues --  -10.06850 -10.06836 -10.06835 -10.06763  -7.82854
  Beta  occ. eigenvalues --   -5.79254  -5.78881  -5.78216  -0.88754  -0.78585
  Beta  occ. eigenvalues --   -0.75308  -0.73369  -0.71556  -0.68579  -0.65799
  Beta  occ. eigenvalues --   -0.63206  -0.62360  -0.60057  -0.59756  -0.56650
  Beta  occ. eigenvalues --   -0.56221  -0.51534  -0.51121  -0.49027  -0.46676
  Beta  occ. eigenvalues --   -0.44378  -0.40886  -0.40171  -0.38508  -0.38144
  Beta  occ. eigenvalues --   -0.37306  -0.37012  -0.35423  -0.35339  -0.34630
  Beta  occ. eigenvalues --   -0.33964  -0.32858  -0.32385  -0.31537  -0.30986
  Beta  occ. eigenvalues --   -0.30518  -0.30045  -0.29919  -0.29238  -0.28638
  Beta  occ. eigenvalues --   -0.28204  -0.27972  -0.26311  -0.26056  -0.25792
  Beta  occ. eigenvalues --   -0.24726  -0.24465  -0.23456  -0.22661  -0.21142
  Beta  occ. eigenvalues --   -0.17209  -0.14809  -0.13395  -0.12674  -0.10655
  Beta virt. eigenvalues --    0.05941   0.06724   0.06838   0.07129   0.07759
  Beta virt. eigenvalues --    0.08269   0.08518   0.08689   0.09150   0.09388
  Beta virt. eigenvalues --    0.10101   0.10355   0.10584   0.11053   0.11167

 Mulliken charges and spin densities:
               1          2
     1  C    0.702270  -1.215064
     2  C   -1.852868   1.826624
     3  C    0.753893  -1.265339
     4  N    0.598709  -0.097811
     5  C   -0.872927   0.692971
     6  C    1.090332  -0.754881
     7  C    0.386955  -0.102271
     8  C   -0.118742  -0.428642
     9  C   -0.339956  -0.061348
    10  C    0.219413  -0.697828
    11  C   -0.211618   0.766860
    12  C   -0.530067   0.502653
    13  C    0.326321  -1.227110
    14  N   -0.166444  -0.142520
    15  C   -0.320436  -0.400323
    16  S    0.172699  -0.069740
    17  C   -0.488091   0.637986
    18  C    0.058052  -0.765536
    19  C   -0.469542  -0.150537
    20  H   -0.119359   0.246953
    21  H   -0.064528   0.228838
    22  H   -0.414746   0.592686
    23  H    0.536620  -0.237043
    24  H    0.009409   0.142107
    25  H    0.160459  -0.018803
    26  H   -0.326938   0.493833
    27  H   -0.076326   0.210699
    28  H    0.110209  -0.020343
    29  H    0.091622   0.056299
    30  H   -0.004577   0.117009
    31  H   -0.197076   0.345263
    32  H   -0.446812   0.626508
    33  H   -0.338436   0.584760
    34  H    0.112441   0.099787
    35  H    0.188084   0.009371
    36  H    0.191020   0.021147
    37  H    0.164637   0.074740
    38  H    0.076992   0.062453
    39  H   -0.121086   0.251467
    40  H    0.014570   0.125361
    41  H    0.074610   0.045534
    42  H    0.000085   0.138533
    43  H    0.441169  -0.245305
 Sum of Mulliken charges =  -1.00000   1.00000

 Dipole moment (field-independent basis, Debye):
    X=              7.4556    Y=             -2.7565    Z=             -3.0607  Tot=              8.5178
 Quadrupole moment (field-independent basis, Debye-Ang):
   XX=           -218.4864   YY=           -176.1404   ZZ=           -158.6046
   XY=              5.4568   XZ=             10.8648   YZ=             -4.0731

 Summary of Natural Population Analysis:

                                       Natural Population
                Natural  -----------------------------------------------
    Atom  No    Charge         Core      Valence    Rydberg      Total
 -----------------------------------------------------------------------
      C    1   -0.28679      0.99965     2.28134    0.00580     3.28679
      C    2   -0.02191      0.99958     2.01085    0.01148     3.02191
      C    3   -0.28659      0.99964     2.28167    0.00527     3.28659
      N    4   -0.20647      0.99962     2.69622    0.01062     3.70647
      C    5    0.01239      0.99948     1.97719    0.01094     2.98761
      C    6   -0.07344      0.99948     2.06248    0.01148     3.07344
      C    7   -0.04266      0.99947     2.03391    0.00928     3.04266
      C    8   -0.08472      0.99953     2.07728    0.00791     3.08472
      C    9   -0.11878      0.99957     2.10967    0.00953     3.11878
      C   10   -0.09834      0.99953     2.08861    0.01019     3.09834
      C   11   -0.03224      0.99947     2.02327    0.00950     3.03224
      C   12    0.09307      0.99943     1.89636    0.01113     2.90693
      C   13   -0.09672      0.99960     2.08485    0.01228     3.09672
      N   14   -0.42344      0.99977     2.91303    0.01064     3.92344
      C   15   -0.24779      0.99953     2.23884    0.00942     3.24779
      S   16    0.07650      4.99962     2.90710    0.01678     7.92350
      C   17   -0.16745      0.99959     2.15494    0.01292     3.16745
      C   18   -0.29219      0.99963     2.28608    0.00648     3.29219
      C   19   -0.29114      0.99963     2.28471    0.00680     3.29114
      H   20    0.09390      0.00000     0.40498    0.00112     0.40610
      H   21    0.10565      0.00000     0.39317    0.00118     0.39435
      H   22    0.10631      0.00000     0.39262    0.00107     0.39369
      H   23    0.12383      0.00000     0.37229    0.00388     0.37617
      H   24    0.09594      0.00000     0.40317    0.00089     0.40406
      H   25    0.10155      0.00000     0.39756    0.00089     0.39845
      H   26    0.10295      0.00000     0.39600    0.00105     0.39705
      H   27    0.10155      0.00000     0.39725    0.00120     0.39845
      H   28    0.10148      0.00000     0.39694    0.00158     0.39852
      H   29    0.09647      0.00000     0.40274    0.00079     0.40353
      H   30    0.09725      0.00000     0.40175    0.00099     0.40275
      H   31    0.09473      0.00000     0.40337    0.00190     0.40527
      H   32    0.08630      0.00000     0.41174    0.00196     0.41370
      H   33    0.18149      0.00000     0.31183    0.00669     0.31851
      H   34    0.17588      0.00000     0.32208    0.00204     0.32412
      H   35    0.10820      0.00000     0.39066    0.00114     0.39180
      H   36    0.10432      0.00000     0.39422    0.00146     0.39568
      H   37    0.09892      0.00000     0.39998    0.00111     0.40108
      H   38    0.10212      0.00000     0.39660    0.00128     0.39788
      H   39    0.10130      0.00000     0.39771    0.00099     0.39870
      H   40    0.10068      0.00000     0.39823    0.00109     0.39932
      H   41    0.10357      0.00000     0.39543    0.00100     0.39643
      H   42    0.09627      0.00000     0.40283    0.00090     0.40373
      H   43    0.10807      0.00000     0.39041    0.00152     0.39193
 =======================================================================
   * Total *    0.00000     22.99183    51.78197    0.22619    75.00000

 Normal termination of Gaussian 16 at Sat Dec 12 12:01:21 2020.
