 Gaussian 16, Revision A.03,

 -----------------------------------------------------------
 # opt freq B3LYP/6-31G(d) empiricaldispersion=gd3bj scf=xqc
 -----------------------------------------------------------

 -------------------------------
 CID_131025322_JID_3169_neutraal
 -------------------------------
 Symbolic Z-matrix:
 Charge =  0 Multiplicity = 1

 SCF Done:  E(RB3LYP) =  -614.926681253     A.U. after   13 cycles
 SCF Done:  E(RB3LYP) =  -614.933992277     A.U. after   10 cycles
 SCF Done:  E(RB3LYP) =  -614.934704149     A.U. after   11 cycles
 SCF Done:  E(RB3LYP) =  -614.935444966     A.U. after   10 cycles
 SCF Done:  E(RB3LYP) =  -614.936152248     A.U. after   11 cycles
 SCF Done:  E(RB3LYP) =  -614.936801068     A.U. after   11 cycles
 SCF Done:  E(RB3LYP) =  -614.936317566     A.U. after   11 cycles
 SCF Done:  E(RB3LYP) =  -614.937426294     A.U. after   10 cycles
 SCF Done:  E(RB3LYP) =  -614.937555115     A.U. after   11 cycles
 SCF Done:  E(RB3LYP) =  -614.937604326     A.U. after    9 cycles
 SCF Done:  E(RB3LYP) =  -614.937636451     A.U. after    9 cycles
 SCF Done:  E(RB3LYP) =  -614.937649433     A.U. after    9 cycles
 SCF Done:  E(RB3LYP) =  -614.937652993     A.U. after    8 cycles
 SCF Done:  E(RB3LYP) =  -614.937653868     A.U. after    7 cycles
 SCF Done:  E(RB3LYP) =  -614.937654039     A.U. after    7 cycles
 Optimization completed.
    -- Stationary point found.
 Normal termination of Gaussian 16 at Wed Dec  9 22:33:05 2020.

 --------------------------------------------------------------------
 #N Geom=AllCheck Guess=TCheck SCRF=Check GenChk RB3LYP/6-31G(d) Freq
 --------------------------------------------------------------------

 Structure from the checkpoint file:  "JID_3169.chk"
 -------------------------------
 CID_131025322_JID_3169_neutraal
 -------------------------------
 Charge =  0 Multiplicity = 1

 SCF Done:  E(RB3LYP) =  -614.937654039     A.U. after    1 cycles

  Exact polarizability: 119.377  -2.346 117.643  -2.111   1.622 100.734
 Approx polarizability: 156.471  -2.742 160.598  -0.653   2.483 151.717

                      1                      2                      3
                      A                      A                      A
 Frequencies --     65.5818                71.2551               128.3132
 Red. masses --      3.6052                 2.8672                 2.7973
 Frc consts  --      0.0091                 0.0086                 0.0271
 IR Inten    --      1.8697                 0.9767                 2.4005

                      4                      5                      6
                      A                      A                      A
 Frequencies --    149.0190               173.8112               177.7315
 Red. masses --      2.6359                 1.8035                 1.7592
 Frc consts  --      0.0345                 0.0321                 0.0327
 IR Inten    --      5.4494                 0.9432                 2.6888

                      7                      8                      9
                      A                      A                      A
 Frequencies --    201.0294               225.7869               232.9736
 Red. masses --      2.0178                 1.3004                 1.5324
 Frc consts  --      0.0480                 0.0391                 0.0490
 IR Inten    --      0.9141                28.0691                 6.8846

                     10                     11                     12
                      A                      A                      A
 Frequencies --    257.9597               279.4868               290.3065
 Red. masses --      2.1006                 1.6262                 1.6288
 Frc consts  --      0.0824                 0.0748                 0.0809
 IR Inten    --      4.6930                 0.2561                 1.6931

                     13                     14                     15
                      A                      A                      A
 Frequencies --    301.3953               332.4925               336.8596
 Red. masses --      2.4862                 3.3806                 3.1721
 Frc consts  --      0.1331                 0.2202                 0.2121
 IR Inten    --      4.0906                 3.0396                 2.2271

                     16                     17                     18
                      A                      A                      A
 Frequencies --    370.6197               385.8768               410.2171
 Red. masses --      2.8163                 2.6546                 2.1263
 Frc consts  --      0.2279                 0.2329                 0.2108
 IR Inten    --      5.5555                 1.2713                 2.5207

                     19                     20                     21
                      A                      A                      A
 Frequencies --    465.4928               479.3631               517.5586
 Red. masses --      3.0758                 2.8681                 3.0564
 Frc consts  --      0.3927                 0.3883                 0.4824
 IR Inten    --      0.3756                 3.1417                 4.0735

                     22                     23                     24
                      A                      A                      A
 Frequencies --    525.0958               595.6132               649.8421
 Red. masses --      3.5060                 2.2642                 3.3320
 Frc consts  --      0.5696                 0.4732                 0.8290
 IR Inten    --     21.0747                 6.5260                24.5498

                     25                     26                     27
                      A                      A                      A
 Frequencies --    688.4134               825.0143               854.0730
 Red. masses --      3.0645                 1.9267                 1.6709
 Frc consts  --      0.8557                 0.7727                 0.7181
 IR Inten    --      5.3627                 2.9768                53.2210

                     28                     29                     30
                      A                      A                      A
 Frequencies --    875.1323               922.1437               940.6187
 Red. masses --      1.8639                 2.9753                 2.7872
 Frc consts  --      0.8410                 1.4907                 1.4530
 IR Inten    --     35.9397                25.8531                17.9206

                     31                     32                     33
                      A                      A                      A
 Frequencies --    987.7773              1008.9231              1026.1886
 Red. masses --      2.1045                 2.0363                 2.7172
 Frc consts  --      1.2098                 1.2213                 1.6859
 IR Inten    --      9.1637                74.3896                22.1526

                     34                     35                     36
                      A                      A                      A
 Frequencies --   1053.7323              1077.1613              1080.5860
 Red. masses --      1.8351                 2.8353                 1.7061
 Frc consts  --      1.2005                 1.9382                 1.1737
 IR Inten    --     12.4017                26.3368                 8.2575

                     37                     38                     39
                      A                      A                      A
 Frequencies --   1091.3916              1102.8270              1130.8617
 Red. masses --      1.8125                 2.7344                 1.3972
 Frc consts  --      1.2720                 1.9594                 1.0527
 IR Inten    --      6.4385                 1.6797                 6.5726

                     40                     41                     42
                      A                      A                      A
 Frequencies --   1138.6899              1149.5490              1175.8663
 Red. masses --      2.5371                 4.2840                 3.8764
 Frc consts  --      1.9382                 3.3354                 3.1578
 IR Inten    --     34.1242               168.4914                16.2546

                     43                     44                     45
                      A                      A                      A
 Frequencies --   1188.1321              1190.2390              1201.4436
 Red. masses --      1.4631                 2.0447                 1.6284
 Frc consts  --      1.2169                 1.7066                 1.3849
 IR Inten    --      4.5570                 6.3422                10.3127

                     46                     47                     48
                      A                      A                      A
 Frequencies --   1223.5774              1239.8340              1256.8852
 Red. masses --      1.7171                 1.5628                 1.2288
 Frc consts  --      1.5146                 1.4154                 1.1437
 IR Inten    --     17.5233                30.4590                 4.8800

                     49                     50                     51
                      A                      A                      A
 Frequencies --   1288.1758              1305.4079              1316.4934
 Red. masses --      2.1565                 1.5971                 2.0989
 Frc consts  --      2.1084                 1.6035                 2.1433
 IR Inten    --     21.6097                 1.2799                 3.8477

                     52                     53                     54
                      A                      A                      A
 Frequencies --   1339.4557              1352.7210              1363.8283
 Red. masses --      1.3464                 1.2711                 1.1983
 Frc consts  --      1.4233                 1.3704                 1.3132
 IR Inten    --      5.2135                 6.6427                 5.0913

                     55                     56                     57
                      A                      A                      A
 Frequencies --   1391.9082              1402.7221              1425.3310
 Red. masses --      1.3761                 1.2664                 1.2599
 Frc consts  --      1.5708                 1.4681                 1.5081
 IR Inten    --      3.5392                10.0830                 4.0458

                     58                     59                     60
                      A                      A                      A
 Frequencies --   1442.6735              1449.0552              1461.9801
 Red. masses --      1.3953                 1.3370                 1.1471
 Frc consts  --      1.7110                 1.6540                 1.4445
 IR Inten    --      8.3540                 3.6977                 4.1808

                     61                     62                     63
                      A                      A                      A
 Frequencies --   1497.9220              1506.8995              1513.3999
 Red. masses --      1.1703                 1.1421                 1.0650
 Frc consts  --      1.5471                 1.5279                 1.4372
 IR Inten    --      4.4538                 0.6725                10.0456

                     64                     65                     66
                      A                      A                      A
 Frequencies --   1521.9786              1525.3621              1531.8504
 Red. masses --      1.0644                 1.0801                 1.0626
 Frc consts  --      1.4527                 1.4806                 1.4690
 IR Inten    --      2.1152                 1.1111                 1.5457

                     67                     68                     69
                      A                      A                      A
 Frequencies --   1534.4252              1540.3896              1541.4636
 Red. masses --      1.0604                 1.0657                 1.0586
 Frc consts  --      1.4709                 1.4899                 1.4820
 IR Inten    --      4.9113                 1.6368                 1.9857

                     70                     71                     72
                      A                      A                      A
 Frequencies --   1547.0385              1553.8086              1561.2865
 Red. masses --      1.0675                 1.0636                 1.0564
 Frc consts  --      1.5052                 1.5130                 1.5172
 IR Inten    --      6.7021                11.1108                 2.7066

                     73                     74                     75
                      A                      A                      A
 Frequencies --   1700.1844              2949.8834              2965.1779
 Red. masses --      1.0873                 1.0620                 1.0734
 Frc consts  --      1.8518                 5.4449                 5.5603
 IR Inten    --     32.4739                83.5293                54.0605

                     76                     77                     78
                      A                      A                      A
 Frequencies --   2977.2229              3001.3964              3019.5705
 Red. masses --      1.0725                 1.0668                 1.0451
 Frc consts  --      5.6013                 5.6620                 5.6144
 IR Inten    --     58.3924                48.5069                66.7370

                     79                     80                     81
                      A                      A                      A
 Frequencies --   3027.5782              3066.4645              3072.3223
 Red. masses --      1.0382                 1.0618                 1.0803
 Frc consts  --      5.6070                 5.8824                 6.0077
 IR Inten    --     99.9067                 9.1976                46.3600

                     82                     83                     84
                      A                      A                      A
 Frequencies --   3080.6905              3082.7802              3089.9994
 Red. masses --      1.1023                 1.0954                 1.0854
 Frc consts  --      6.1637                 6.1337                 6.1063
 IR Inten    --     36.7578                55.6136                20.9299

                     85                     86                     87
                      A                      A                      A
 Frequencies --   3108.1039              3111.8691              3113.2930
 Red. masses --      1.0906                 1.0953                 1.1023
 Frc consts  --      6.2074                 6.2490                 6.2949
 IR Inten    --     48.7162                18.4450                47.5498

                     88                     89                     90
                      A                      A                      A
 Frequencies --   3117.8414              3131.4807              3142.6298
 Red. masses --      1.0869                 1.1006                 1.0949
 Frc consts  --      6.2253                 6.3590                 6.3709
 IR Inten    --     19.6935                27.3559                36.3642

                     91                     92                     93
                      A                      A                      A
 Frequencies --   3193.5097              3476.0423              3557.9703
 Red. masses --      1.0931                 1.0499                 1.0926
 Frc consts  --      6.5685                 7.4742                 8.1489
 IR Inten    --      2.2885                 1.5753                 0.0944

 - Thermochemistry -
 -------------------
 Temperature   298.150 Kelvin.  Pressure   1.00000 Atm.
 Atom     1 has atomic number  6 and mass  12.00000

 Molecular mass:   188.15248 amu.
 Principal axes and moments of inertia in atomic units:
                           1         2         3
     Eigenvalues --  1947.841822410.166043160.79662
           X            0.99825  -0.05403  -0.02416
           Y            0.05437   0.99843   0.01339
           Z            0.02340  -0.01468   0.99962
 This molecule is an asymmetric top.
 Rotational symmetry number  1.
 Warning -- assumption of classical behavior for rotation
           may cause significant error
 Rotational temperatures (Kelvin)      0.04447     0.03594     0.02740
 Rotational constants (GHZ):           0.92653     0.74880     0.57098
 Zero-point vibrational energy     789262.2 (Joules/Mol)
                                  188.63818 (Kcal/Mol)
 Warning -- explicit consideration of  23 degrees of freedom as
           vibrations may cause significant error
 Vibrational temperatures:     94.36   102.52   184.61   214.41   250.08
          (Kelvin)            255.72   289.24   324.86   335.20   371.15
                              402.12   417.69   433.64   478.38   484.67
                              533.24   555.19   590.21   669.74   689.70
                              744.65   755.50   856.95   934.98   990.47
                             1187.01  1228.82  1259.12  1326.76  1353.34
                             1421.19  1451.62  1476.46  1516.09  1549.79
                             1554.72  1570.27  1586.72  1627.06  1638.32
                             1653.94  1691.81  1709.46  1712.49  1728.61
                             1760.46  1783.84  1808.38  1853.40  1878.19
                             1894.14  1927.18  1946.26  1962.24  2002.65
                             2018.20  2050.73  2075.69  2084.87  2103.46
                             2155.18  2168.09  2177.44  2189.79  2194.66
                             2203.99  2207.70  2216.28  2217.82  2225.84
                             2235.58  2246.34  2446.19  4244.22  4266.23
                             4283.56  4318.34  4344.49  4356.01  4411.96
                             4420.39  4432.43  4435.43  4445.82  4471.87
                             4477.29  4479.33  4485.88  4505.50  4521.54
                             4594.75  5001.25  5119.13

 Zero-point correction=                           0.300614 (Hartree/Particle)
 Thermal correction to Energy=                    0.314837
 Thermal correction to Enthalpy=                  0.315781
 Thermal correction to Gibbs Free Energy=         0.261161
 Sum of electronic and zero-point Energies=           -614.637040
 Sum of electronic and thermal Energies=              -614.622817
 Sum of electronic and thermal Enthalpies=            -614.621873
 Sum of electronic and thermal Free Energies=         -614.676493

                     E (Thermal)             CV                S
                      KCal/Mol        Cal/Mol-Kelvin    Cal/Mol-Kelvin
 Total                  197.563             54.860            114.958
 Electronic               0.000              0.000              0.000
 Translational            0.889              2.981             41.602
 Rotational               0.889              2.981             31.074
 Vibrational            195.785             48.898             42.282
 Vibration     1          0.597              1.971              4.282
 Vibration     2          0.598              1.968              4.118
 Vibration     3          0.611              1.925              2.971
 Vibration     4          0.618              1.904              2.685
 Vibration     5          0.627              1.875              2.394
 Vibration     6          0.628              1.870              2.352
 Vibration     7          0.638              1.838              2.124
 Vibration     8          0.650              1.802              1.912
 Vibration     9          0.654              1.790              1.856
 Vibration    10          0.667              1.749              1.676
 Vibration    11          0.680              1.712              1.537
 Vibration    12          0.686              1.692              1.472
 Vibration    13          0.693              1.671              1.409
 Vibration    14          0.714              1.611              1.248
 Vibration    15          0.718              1.602              1.227
 Vibration    16          0.743              1.533              1.077
 Vibration    17          0.755              1.500              1.016
 Vibration    18          0.774              1.448              0.926
 Vibration    19          0.823              1.327              0.750
 Vibration    20          0.836              1.296              0.712
 Vibration    21          0.873              1.211              0.616
 Vibration    22          0.880              1.194              0.598
 Vibration    23          0.953              1.041              0.457

                           ! Non-Optimized Parameters !
 Normal termination of Gaussian 16 at Wed Dec  9 22:44:39 2020.

 ----------------------------------------------------------------------
 # B3LYP/6-311++G(d,p) empiricaldispersion=gd3bj scf=xqc pop=npa geom=c
 heck
 ----------------------------------------------------------------------

 ---------------------------------------
 CID_131025322_JID_3169_Energie_neutraal
 ---------------------------------------
 Structure from the checkpoint file:  "JID_3169.chk"
 Charge =  0 Multiplicity = 1

 SCF Done:  E(RB3LYP) =  -615.122546501     A.U. after   15 cycles
 Normal termination of Gaussian 16 at Wed Dec  9 22:50:18 2020.

 ----------------------------------------------------------------------
 # B3LYP/6-311++G(d,p) empiricaldispersion=gd3bj scf=xqc pop=npa geom=c
 heck
 ----------------------------------------------------------------------

 -------------------------------------
 CID_131025322_JID_3169_Energie_kation
 -------------------------------------
 Structure from the checkpoint file:  "JID_3169.chk"
 Charge =  1 Multiplicity = 2

 SCF Done:  E(UB3LYP) =  -614.851108069     A.U. after   22 cycles
 Normal termination of Gaussian 16 at Wed Dec  9 23:02:01 2020.
 Gaussian 16:  ES64L-G16RevA.03 25-Dec-2016

 ----------------------------------------------------------------------
 # B3LYP/6-311++G(d,p) empiricaldispersion=gd3bj scf=xqc pop=npa geom=c
 heck
 ----------------------------------------------------------------------

 ------------------------------------
 CID_131025322_JID_3169_Energie_anion
 ------------------------------------
 Structure from the checkpoint file:  "JID_3169.chk"
 Charge = -1 Multiplicity = 2

                         Standard orientation:
 ---------------------------------------------------------------------
 Center     Atomic      Atomic             Coordinates (Angstroms)
 Number     Number       Type             X           Y           Z
 ---------------------------------------------------------------------
      1          6           0        1.989601    1.636200   -0.580229
      2          7           0        1.533933    0.281244   -0.880614
      3          6           0        2.700102   -0.599383   -0.962251
      4          6           0        0.366029   -0.190081   -0.092842
      5          6           0        0.165779   -1.700629   -0.373934
      6          6           0       -1.187153   -2.237357    0.077327
      7          8           0       -2.251076   -1.554664   -0.566993
      8          6           0       -2.232111   -0.179295   -0.236792
      9          6           0       -0.920277    0.502332   -0.665806
     10          8           0       -0.983593    1.920975   -0.472841
     11          6           0       -1.668870    2.443017    0.652512
     12          6           0        0.504266    0.071473    1.428408
     13          7           0        1.608048   -0.686693    2.028915
     14          1           0        2.645948    1.968805   -1.393080
     15          1           0        2.571116    1.703073    0.358469
     16          1           0        1.141876    2.316055   -0.526416
     17          1           0        3.218719   -0.728641   -0.000956
     18          1           0        2.433121   -1.583231   -1.352360
     19          1           0        3.399608   -0.153816   -1.679246
     20          1           0        0.244805   -1.857993   -1.455253
     21          1           0        0.964025   -2.284558    0.094614
     22          1           0       -1.289658   -3.290630   -0.199563
     23          1           0       -1.303421   -2.166691    1.173183
     24          1           0       -2.412048   -0.056969    0.842932
     25          1           0       -3.066421    0.282945   -0.772394
     26          1           0       -0.830592    0.387556   -1.750052
     27          1           0       -2.754353    2.285579    0.593101
     28          1           0       -1.308870    2.038972    1.606833
     29          1           0       -1.479470    3.519742    0.639755
     30          1           0        0.725352    1.131707    1.571551
     31          1           0       -0.463653   -0.111806    1.924630
     32          1           0        1.811063   -0.314192    2.954269
     33          1           0        1.332129   -1.655905    2.172186
 ---------------------------------------------------------------------

 SCF Done:  E(UB3LYP) =  -615.111217781     A.U. after   26 cycles

 The electronic state is 2-A.
 Alpha  occ. eigenvalues --  -19.02772 -19.02594 -14.19629 -14.18182 -10.11995
 Alpha  occ. eigenvalues --  -10.11719 -10.11434 -10.11187 -10.10662 -10.08167
 Alpha  occ. eigenvalues --  -10.07438 -10.07146 -10.06651  -0.94718  -0.93276
 Alpha  occ. eigenvalues --   -0.81653  -0.76813  -0.68901  -0.66492  -0.60310
 Alpha  occ. eigenvalues --   -0.59878  -0.57483  -0.54275  -0.51844  -0.49355
 Alpha  occ. eigenvalues --   -0.43724  -0.40957  -0.39685  -0.39374  -0.38909
 Alpha  occ. eigenvalues --   -0.36620  -0.36021  -0.34507  -0.33966  -0.33078
 Alpha  occ. eigenvalues --   -0.32376  -0.31488  -0.30953  -0.30383  -0.28656
 Alpha  occ. eigenvalues --   -0.27259  -0.26517  -0.26111  -0.25695  -0.25156
 Alpha  occ. eigenvalues --   -0.22602  -0.22218  -0.20675  -0.17058  -0.15167
 Alpha  occ. eigenvalues --   -0.13913  -0.10001   0.04445
 Alpha virt. eigenvalues --    0.06834   0.07600   0.07777   0.09227   0.09550
 Alpha virt. eigenvalues --    0.09807   0.10048   0.10788   0.11825   0.11960
 Alpha virt. eigenvalues --    0.12926   0.13108   0.13458   0.13616   0.14391

  Beta  occ. eigenvalues --  -19.02767 -19.02584 -14.19628 -14.18125 -10.11993
  Beta  occ. eigenvalues --  -10.11705 -10.11404 -10.11155 -10.10663 -10.08140
  Beta  occ. eigenvalues --  -10.07430 -10.07137 -10.06636  -0.94704  -0.93254
  Beta  occ. eigenvalues --   -0.81638  -0.76725  -0.68871  -0.66461  -0.60265
  Beta  occ. eigenvalues --   -0.59844  -0.57443  -0.54207  -0.51795  -0.49312
  Beta  occ. eigenvalues --   -0.43687  -0.40925  -0.39650  -0.39332  -0.38878
  Beta  occ. eigenvalues --   -0.36584  -0.35990  -0.34472  -0.33936  -0.33045
  Beta  occ. eigenvalues --   -0.32303  -0.31454  -0.30927  -0.30361  -0.28627
  Beta  occ. eigenvalues --   -0.27236  -0.26493  -0.26094  -0.25672  -0.25131
  Beta  occ. eigenvalues --   -0.22578  -0.22192  -0.20642  -0.17031  -0.15141
  Beta  occ. eigenvalues --   -0.13867  -0.09987
  Beta virt. eigenvalues --    0.06885   0.07637   0.08134   0.08475   0.09625
  Beta virt. eigenvalues --    0.09757   0.10278   0.10768   0.11066   0.12177
  Beta virt. eigenvalues --    0.12307   0.13257   0.13483   0.13680   0.13934

 Mulliken charges and spin densities:
               1          2
     1  C    0.005431  -0.286969
     2  N    0.351634   0.025921
     3  C   -0.191087  -0.115014
     4  C   -0.135416  -0.263621
     5  C   -1.783985   1.574803
     6  C    0.918247  -1.585193
     7  O   -0.154535   0.046739
     8  C    0.364880  -0.752795
     9  C   -0.703806   0.407316
    10  O   -0.080474   0.023806
    11  C    0.808918  -1.079902
    12  C    1.740050  -2.297652
    13  N   -0.692270   0.384114
    14  H    0.066061   0.059946
    15  H   -0.027216   0.157372
    16  H    0.161536  -0.019203
    17  H    0.210799  -0.010808
    18  H   -0.164021   0.280523
    19  H    0.064959   0.055635
    20  H    0.226569  -0.039257
    21  H   -0.057539   0.194795
    22  H   -0.433288   0.638998
    23  H   -0.294462   0.454389
    24  H    0.013324   0.192396
    25  H    0.156529   0.035755
    26  H    0.171555   0.061145
    27  H   -0.272362   0.416531
    28  H   -0.359587   0.526155
    29  H   -0.184286   0.335542
    30  H   -0.106616   0.291623
    31  H   -0.167765   0.349620
    32  H   -0.320412   0.576749
    33  H   -0.131363   0.360541
 Sum of Mulliken charges =  -1.00000   1.00000

 Dipole moment (field-independent basis, Debye):
    X=              0.6364    Y=              1.1893    Z=             -6.3467  Tot=              6.4884
 Quadrupole moment (field-independent basis, Debye-Ang):
   XX=           -126.4846   YY=           -129.8437   ZZ=           -131.3429
   XY=              1.8685   XZ=             -2.5712   YZ=              1.1846

 Summary of Natural Population Analysis:

                                       Natural Population
                Natural  -----------------------------------------------
    Atom  No    Charge         Core      Valence    Rydberg      Total
 -----------------------------------------------------------------------
      C    1   -0.18284      0.99963     2.17612    0.00709     3.18284
      N    2   -0.28814      0.99970     2.77611    0.01233     3.78814
      C    3   -0.17722      0.99963     2.17085    0.00673     3.17722
      C    4    0.06534      0.99950     1.91468    0.02048     2.93466
      C    5   -0.21668      0.99958     2.20588    0.01122     3.21668
      C    6   -0.00929      0.99957     1.99621    0.01352     3.00929
      O    7   -0.29694      0.99989     3.28820    0.00885     4.29694
      C    8   -0.02456      0.99955     2.01245    0.01256     3.02456
      C    9    0.05926      0.99945     1.92492    0.01637     2.94074
      O   10   -0.30635      0.99988     3.29668    0.00980     4.30635
      C   11   -0.10163      0.99959     2.09211    0.00993     3.10163
      C   12   -0.10704      0.99954     2.09254    0.01495     3.10704
      N   13   -0.42614      0.99977     2.91427    0.01211     3.92614
      H   14    0.08837      0.00000     0.41066    0.00097     0.41163
      H   15    0.08140      0.00000     0.41716    0.00144     0.41860
      H   16    0.10928      0.00000     0.38933    0.00139     0.39072
      H   17    0.09555      0.00000     0.40273    0.00171     0.40445
      H   18    0.09231      0.00000     0.40660    0.00109     0.40769
      H   19    0.08750      0.00000     0.41149    0.00101     0.41250
      H   20    0.10381      0.00000     0.39483    0.00136     0.39619
      H   21    0.11054      0.00000     0.38792    0.00154     0.38946
      H   22    0.09249      0.00000     0.40624    0.00127     0.40751
      H   23    0.08229      0.00000     0.41561    0.00210     0.41771
      H   24    0.08383      0.00000     0.41429    0.00188     0.41617
      H   25    0.09302      0.00000     0.40569    0.00129     0.40698
      H   26    0.09634      0.00000     0.40159    0.00207     0.40366
      H   27    0.07948      0.00000     0.41915    0.00137     0.42052
      H   28    0.08505      0.00000     0.41310    0.00185     0.41495
      H   29    0.09013      0.00000     0.40889    0.00098     0.40987
      H   30    0.09830      0.00000     0.39971    0.00199     0.40170
      H   31    0.08547      0.00000     0.41104    0.00349     0.41453
      H   32    0.18120      0.00000     0.31485    0.00395     0.31880
      H   33    0.17589      0.00000     0.32014    0.00397     0.32411
 =======================================================================
   * Total *   -0.00000     12.99529    38.81206    0.19265    52.00000

 Normal termination of Gaussian 16 at Wed Dec  9 23:15:33 2020.
