 Gaussian 16, Revision A.03,

 -----------------------------------------------------------
 # opt freq B3LYP/6-31G(d) empiricaldispersion=gd3bj scf=xqc
 -----------------------------------------------------------

 -------------------------------
 CID_129826820_JID_3052_neutraal
 -------------------------------
 Symbolic Z-matrix:
 Charge =  0 Multiplicity = 1

 SCF Done:  E(RB3LYP) =  -1081.67402971     A.U. after   17 cycles
 SCF Done:  E(RB3LYP) =  -1081.68748052     A.U. after   13 cycles
 SCF Done:  E(RB3LYP) =  -1081.68871913     A.U. after   12 cycles
 SCF Done:  E(RB3LYP) =  -1081.68889778     A.U. after   11 cycles
 SCF Done:  E(RB3LYP) =  -1081.68891879     A.U. after   10 cycles
 SCF Done:  E(RB3LYP) =  -1081.68892414     A.U. after    9 cycles
 SCF Done:  E(RB3LYP) =  -1081.68892714     A.U. after    9 cycles
 SCF Done:  E(RB3LYP) =  -1081.68892859     A.U. after    8 cycles
 SCF Done:  E(RB3LYP) =  -1081.68893367     A.U. after   11 cycles
 SCF Done:  E(RB3LYP) =  -1081.68894058     A.U. after   11 cycles
 SCF Done:  E(RB3LYP) =  -1081.69706206     A.U. after    8 cycles
 SCF Done:  E(RB3LYP) =  -1081.69706219     A.U. after    7 cycles
 SCF Done:  E(RB3LYP) =  -1081.69706238     A.U. after    7 cycles
 SCF Done:  E(RB3LYP) =  -1081.69706253     A.U. after    7 cycles
 SCF Done:  E(RB3LYP) =  -1081.69706264     A.U. after    7 cycles
 SCF Done:  E(RB3LYP) =  -1081.69706268     A.U. after    7 cycles
 Optimization completed.
    -- Stationary point found.
 Normal termination of Gaussian 16 at Wed Dec  9 22:34:09 2020.

 --------------------------------------------------------------------
 #N Geom=AllCheck Guess=TCheck SCRF=Check GenChk RB3LYP/6-31G(d) Freq
 --------------------------------------------------------------------

 Structure from the checkpoint file:  "JID_3052.chk"
 -------------------------------
 CID_129826820_JID_3052_neutraal
 -------------------------------
 Charge =  0 Multiplicity = 1

 SCF Done:  E(RB3LYP) =  -1081.69706268     A.U. after    1 cycles

  Exact polarizability: 133.526   5.825 106.276  10.384   0.691  58.088
 Approx polarizability: 180.746  15.057 189.714  23.984  -0.572  98.390

                      1                      2                      3
                      A                      A                      A
 Frequencies --     24.9534                42.6728                72.7580
 Red. masses --      8.6798                 9.0925                 6.6109
 Frc consts  --      0.0032                 0.0098                 0.0206
 IR Inten    --      0.6063                 0.6638                 1.0541

                      4                      5                      6
                      A                      A                      A
 Frequencies --     86.9798               140.2773               157.8734
 Red. masses --      1.0604                 6.1684                 7.9681
 Frc consts  --      0.0047                 0.0715                 0.1170
 IR Inten    --      0.0653                 1.7258                10.0336

                      7                      8                      9
                      A                      A                      A
 Frequencies --    210.0577               231.1502               243.7296
 Red. masses --      4.3398                 2.5722                 2.9646
 Frc consts  --      0.1128                 0.0810                 0.1038
 IR Inten    --      2.7788                 1.9747                11.5180

                     10                     11                     12
                      A                      A                      A
 Frequencies --    268.0132               317.7410               349.8344
 Red. masses --      2.3585                 4.7517                 3.0189
 Frc consts  --      0.0998                 0.2827                 0.2177
 IR Inten    --     32.0325                 6.0222                43.0894

                     13                     14                     15
                      A                      A                      A
 Frequencies --    383.9692               433.7219               444.1388
 Red. masses --      4.7254                 4.5029                10.9918
 Frc consts  --      0.4105                 0.4991                 1.2775
 IR Inten    --      0.0964                18.5557                 0.9733

                     16                     17                     18
                      A                      A                      A
 Frequencies --    501.9043               536.4668               565.5942
 Red. masses --     12.2792                12.1926                 4.9346
 Frc consts  --      1.8225                 2.0674                 0.9301
 IR Inten    --     26.2009                58.5308                19.2539

                     19                     20                     21
                      A                      A                      A
 Frequencies --    605.9051               646.3085               653.0899
 Red. masses --      6.4019                 5.5109                 4.6295
 Frc consts  --      1.3847                 1.3563                 1.1634
 IR Inten    --     27.7297                53.5531                 2.5286

                     22                     23                     24
                      A                      A                      A
 Frequencies --    725.4555               743.0214               803.4400
 Red. masses --      6.5485                 7.5217                 8.7383
 Frc consts  --      2.0305                 2.4466                 3.3234
 IR Inten    --     77.1327               179.6313               271.4066

                     25                     26                     27
                      A                      A                      A
 Frequencies --    829.2315               876.6360               999.8440
 Red. masses --      1.5105                 7.1771                 1.7097
 Frc consts  --      0.6119                 3.2497                 1.0070
 IR Inten    --     74.2890                 8.4943                 0.1655

                     28                     29                     30
                      A                      A                      A
 Frequencies --   1004.4967              1042.5431              1073.5947
 Red. masses --      1.5492                 5.1870                 1.4885
 Frc consts  --      0.9210                 3.3216                 1.0108
 IR Inten    --      4.4039                41.3479                 2.0530

                     31                     32                     33
                      A                      A                      A
 Frequencies --   1124.5947              1179.7309              1182.9708
 Red. masses --      4.9147                 8.5898                 1.2870
 Frc consts  --      3.6621                 7.0437                 1.0611
 IR Inten    --     26.1749               209.6074                94.8394

                     34                     35                     36
                      A                      A                      A
 Frequencies --   1191.6396              1287.8809              1327.7203
 Red. masses --      1.6248                 5.9343                 8.1791
 Frc consts  --      1.3594                 5.7992                 8.4952
 IR Inten    --      5.9508                16.1680                31.7705

                     37                     38                     39
                      A                      A                      A
 Frequencies --   1427.4870              1440.4191              1447.3693
 Red. masses --      1.4258                 9.8961                 1.2344
 Frc consts  --      1.7118                12.0974                 1.5236
 IR Inten    --     29.5681               226.1125                 1.3027

                     40                     41                     42
                      A                      A                      A
 Frequencies --   1471.6426              1511.3322              1516.7385
 Red. masses --      4.3044                 1.0427                 1.1756
 Frc consts  --      5.4925                 1.4033                 1.5935
 IR Inten    --    129.3453                 6.9185                 8.4721

                     43                     44                     45
                      A                      A                      A
 Frequencies --   1575.0777              1651.0788              1785.7856
 Red. masses --      5.9952                 6.3402                 9.4987
 Frc consts  --      8.7631                10.1834                17.8472
 IR Inten    --    175.3957                53.6573               322.7926

                     46                     47                     48
                      A                      A                      A
 Frequencies --   2934.9555              3056.7854              3109.1282
 Red. masses --      1.0830                 1.0386                 1.1013
 Frc consts  --      5.4962                 5.7179                 6.2721
 IR Inten    --    115.5020                18.1455                10.8709

                     49                     50                     51
                      A                      A                      A
 Frequencies --   3150.4948              3287.2706              3686.2754
 Red. masses --      1.0996                 1.0980                 1.0659
 Frc consts  --      6.4305                 6.9908                 8.5339
 IR Inten    --     11.6483                 1.1166               140.7853

 - Thermochemistry -
 -------------------
 Temperature   298.150 Kelvin.  Pressure   1.00000 Atm.
 Atom     1 has atomic number  6 and mass  12.00000

 Molecular mass:   205.98851 amu.
 Principal axes and moments of inertia in atomic units:
                           1         2         3
     Eigenvalues --  1257.396464377.245505148.74253
           X            0.99979  -0.01922   0.00642
           Y            0.01924   0.99981  -0.00242
           Z           -0.00638   0.00254   0.99998
 This molecule is an asymmetric top.
 Rotational symmetry number  1.
 Warning -- assumption of classical behavior for rotation
           may cause significant error
 Rotational temperatures (Kelvin)      0.06888     0.01979     0.01682
 Rotational constants (GHZ):           1.43530     0.41230     0.35052
 Zero-point vibrational energy     331137.0 (Joules/Mol)
                                   79.14364 (Kcal/Mol)
 Warning -- explicit consideration of  19 degrees of freedom as
           vibrations may cause significant error
 Vibrational temperatures:     35.90    61.40   104.68   125.14   201.83
          (Kelvin)            227.14   302.23   332.57   350.67   385.61
                              457.16   503.33   552.45   624.03   639.02
                              722.13   771.86   813.76   871.76   929.89
                              939.65  1043.77  1069.04  1155.97  1193.08
                             1261.28  1438.55  1445.25  1499.99  1544.66
                             1618.04  1697.37  1702.03  1714.50  1852.97
                             1910.29  2053.84  2072.44  2082.44  2117.37
                             2174.47  2182.25  2266.19  2375.53  2569.35
                             4222.75  4398.03  4473.34  4532.86  4729.65
                             5303.73

 Zero-point correction=                           0.126123 (Hartree/Particle)
 Thermal correction to Energy=                    0.138885
 Thermal correction to Enthalpy=                  0.139829
 Thermal correction to Gibbs Free Energy=         0.085075
 Sum of electronic and zero-point Energies=          -1081.570939
 Sum of electronic and thermal Energies=             -1081.558178
 Sum of electronic and thermal Enthalpies=           -1081.557233
 Sum of electronic and thermal Free Energies=        -1081.611987

                     E (Thermal)             CV                S
                      KCal/Mol        Cal/Mol-Kelvin    Cal/Mol-Kelvin
 Total                   87.152             45.194            115.239
 Electronic               0.000              0.000              0.000
 Translational            0.889              2.981             41.872
 Rotational               0.889              2.981             31.716
 Vibrational             85.374             39.233             41.651
 Vibration     1          0.593              1.985              6.195
 Vibration     2          0.595              1.980              5.131
 Vibration     3          0.599              1.967              4.077
 Vibration     4          0.601              1.958              3.727
 Vibration     5          0.615              1.913              2.800
 Vibration     6          0.621              1.894              2.575
 Vibration     7          0.642              1.825              2.043
 Vibration     8          0.653              1.793              1.870
 Vibration     9          0.659              1.773              1.775
 Vibration    10          0.673              1.732              1.609
 Vibration    11          0.704              1.640              1.322
 Vibration    12          0.727              1.576              1.167
 Vibration    13          0.753              1.504              1.023
 Vibration    14          0.794              1.397              0.847
 Vibration    15          0.804              1.374              0.814
 Vibration    16          0.857              1.246              0.653
 Vibration    17          0.891              1.169              0.573
 Vibration    18          0.921              1.106              0.513
 Vibration    19          0.965              1.019              0.440

 Optimization completed.
    -- Stationary point found.
 Normal termination of Gaussian 16 at Wed Dec  9 22:38:03 2020.

 ----------------------------------------------------------------------
 # B3LYP/6-311++G(d,p) empiricaldispersion=gd3bj scf=xqc pop=npa geom=c
 heck
 ----------------------------------------------------------------------

 ---------------------------------------
 CID_129826820_JID_3052_Energie_neutraal
 ---------------------------------------
 Structure from the checkpoint file:  "JID_3052.chk"
 Charge =  0 Multiplicity = 1

 SCF Done:  E(RB3LYP) =  -1081.92826645     A.U. after   16 cycles
 Normal termination of Gaussian 16 at Wed Dec  9 22:39:34 2020.

 ----------------------------------------------------------------------
 # B3LYP/6-311++G(d,p) empiricaldispersion=gd3bj scf=xqc pop=npa geom=c
 heck
 ----------------------------------------------------------------------

 -------------------------------------
 CID_129826820_JID_3052_Energie_kation
 -------------------------------------
 Structure from the checkpoint file:  "JID_3052.chk"
 Charge =  1 Multiplicity = 2

 SCF Done:  E(UB3LYP) =  -1081.59270488     A.U. after   30 cycles
 Normal termination of Gaussian 16 at Wed Dec  9 22:43:09 2020.
 Gaussian 16:  ES64L-G16RevA.03 25-Dec-2016

 ----------------------------------------------------------------------
 # B3LYP/6-311++G(d,p) empiricaldispersion=gd3bj scf=xqc pop=npa geom=c
 heck
 ----------------------------------------------------------------------

 ------------------------------------
 CID_129826820_JID_3052_Energie_anion
 ------------------------------------
 Structure from the checkpoint file:  "JID_3052.chk"
 Charge = -1 Multiplicity = 2

                         Standard orientation:
 ---------------------------------------------------------------------
 Center     Atomic      Atomic             Coordinates (Angstroms)
 Number     Number       Type             X           Y           Z
 ---------------------------------------------------------------------
      1          6           0        3.001859   -2.186023    0.284902
      2          6           0        1.977069   -1.143639   -0.039549
      3          6           0        2.137961    0.228594   -0.062103
      4          8           0        0.948771    0.837042   -0.404526
      5          6           0        0.066063   -0.153795   -0.598568
      6          6           0        0.614687   -1.387135   -0.395359
      7          8           0       -1.178459    0.228674   -0.986528
      8         16           0       -2.369115    0.241049    0.195464
      9          8           0       -1.772601    0.535582    1.473835
     10          8           0       -3.454607    0.977158   -0.410899
     11          8           0       -2.748988   -1.340522    0.223926
     12          6           0        3.288562    1.079082    0.187327
     13          8           0        3.289697    2.293808    0.105731
     14          1           0        2.683403   -2.786058    1.145067
     15          1           0        3.138586   -2.872243   -0.558798
     16          1           0        3.973334   -1.746923    0.522467
     17          1           0        0.106858   -2.336352   -0.479263
     18          1           0       -3.386340   -1.506576   -0.497787
     19          1           0        4.202300    0.514943    0.468672
 ---------------------------------------------------------------------

 SCF Done:  E(UB3LYP) =  -1081.95361851     A.U. after   26 cycles

 The electronic state is 2-A.
 Alpha  occ. eigenvalues --  -88.99147 -19.08210 -19.07302 -19.05139 -19.03577
 Alpha  occ. eigenvalues --  -19.03396 -18.94510 -10.14871 -10.08982 -10.08420
 Alpha  occ. eigenvalues --  -10.06980 -10.05867 -10.05104  -8.05197  -6.01475
 Alpha  occ. eigenvalues --   -6.01418  -6.01298  -1.07889  -1.00305  -0.95524
 Alpha  occ. eigenvalues --   -0.94328  -0.93754  -0.88048  -0.70181  -0.64271
 Alpha  occ. eigenvalues --   -0.60313  -0.57805  -0.52071  -0.47618  -0.46502
 Alpha  occ. eigenvalues --   -0.42485  -0.42012  -0.40191  -0.37460  -0.34720
 Alpha  occ. eigenvalues --   -0.34214  -0.33072  -0.32452  -0.31292  -0.30111
 Alpha  occ. eigenvalues --   -0.28873  -0.28085  -0.27302  -0.27213  -0.26230
 Alpha  occ. eigenvalues --   -0.24707  -0.23869  -0.23503  -0.22396  -0.21851
 Alpha  occ. eigenvalues --   -0.15776  -0.10791  -0.10628   0.02963
 Alpha virt. eigenvalues --    0.05791   0.07920   0.09980   0.10756   0.11702
 Alpha virt. eigenvalues --    0.11827   0.13782   0.14215   0.14753   0.15439
 Alpha virt. eigenvalues --    0.15707   0.16292   0.16479   0.17343   0.17732

  Beta  occ. eigenvalues --  -88.99023 -19.08082 -19.07200 -19.04912 -19.03495
  Beta  occ. eigenvalues --  -19.03307 -18.94054 -10.14568 -10.08760 -10.08394
  Beta  occ. eigenvalues --  -10.06991 -10.05699 -10.05183  -8.05047  -6.01358
  Beta  occ. eigenvalues --   -6.01225  -6.01197  -1.07523  -0.99926  -0.95189
  Beta  occ. eigenvalues --   -0.94030  -0.93490  -0.87233  -0.69944  -0.63819
  Beta  occ. eigenvalues --   -0.60166  -0.57336  -0.51631  -0.47496  -0.45994
  Beta  occ. eigenvalues --   -0.42317  -0.41774  -0.39923  -0.37157  -0.34462
  Beta  occ. eigenvalues --   -0.33665  -0.32869  -0.32213  -0.31058  -0.29829
  Beta  occ. eigenvalues --   -0.28628  -0.27746  -0.27062  -0.26915  -0.26005
  Beta  occ. eigenvalues --   -0.24499  -0.23452  -0.22296  -0.21911  -0.21534
  Beta  occ. eigenvalues --   -0.15051  -0.10231  -0.09381
  Beta virt. eigenvalues --    0.06574   0.07877   0.08823   0.10271   0.10977
  Beta virt. eigenvalues --    0.11732   0.12283   0.14077   0.14442   0.14676
  Beta virt. eigenvalues --    0.15482   0.15780   0.16423   0.16534   0.17510

 Mulliken charges and spin densities:
               1          2
     1  C   -0.674512   0.026549
     2  C    0.513845   0.097795
     3  C    0.032371  -0.021625
     4  O   -0.094434   0.059755
     5  C   -0.361014   0.201639
     6  C    0.221635   0.018722
     7  O   -0.201915  -0.000416
     8  S    0.601133  -0.114843
     9  O   -0.213274   0.014966
    10  O   -0.206847  -0.021628
    11  O   -0.240928  -0.014102
    12  C   -0.381573   0.108942
    13  O   -0.366281   0.150434
    14  H    0.127683   0.005738
    15  H    0.121674   0.004993
    16  H    0.147334   0.001432
    17  H    0.054274   0.100731
    18  H   -0.095887   0.396929
    19  H    0.016715  -0.016013
 Sum of Mulliken charges =  -1.00000   1.00000

 Dipole moment (field-independent basis, Debye):
    X=             -1.2546    Y=             -5.9338    Z=             -0.5271  Tot=              6.0878
 Quadrupole moment (field-independent basis, Debye-Ang):
   XX=           -126.7461   YY=           -105.0811   ZZ=            -92.9756
   XY=            -14.1846   XZ=              1.5082   YZ=              0.5607

 Summary of Natural Population Analysis:

                                       Natural Population
                Natural  -----------------------------------------------
    Atom  No    Charge         Core      Valence    Rydberg      Total
 -----------------------------------------------------------------------
      C    1   -0.29340      0.99964     2.28952    0.00424     3.29340
      C    2   -0.00772      0.99950     2.00018    0.00804     3.00772
      C    3    0.09611      0.99938     1.89132    0.01319     2.90389
      O    4   -0.20458      0.99984     3.19593    0.00881     4.20458
      C    5    0.34890      0.99939     1.63189    0.01982     2.65110
      C    6   -0.19397      0.99945     2.18599    0.00853     3.19397
      O    7   -0.34522      0.99986     3.33740    0.00797     4.34522
      S    8    1.23586      4.99949     1.65874    0.10591     6.76414
      O    9   -0.42360      0.99989     3.41769    0.00602     4.42360
      O   10   -0.43980      0.99989     3.43392    0.00599     4.43980
      O   11   -0.42582      0.99990     3.41884    0.00707     4.42582
      C   12    0.20312      0.99967     1.77684    0.02036     2.79688
      O   13   -0.24431      0.99988     3.23620    0.00823     4.24431
      H   14    0.10016      0.00000     0.39872    0.00112     0.39984
      H   15    0.09878      0.00000     0.40007    0.00115     0.40122
      H   16    0.10289      0.00000     0.39597    0.00114     0.39711
      H   17    0.10682      0.00000     0.39221    0.00097     0.39318
      H   18    0.24977      0.00000     0.24107    0.00916     0.25023
      H   19    0.03601      0.00000     0.46165    0.00234     0.46399
 =======================================================================
   * Total *   -0.00000     16.99580    35.76416    0.24005    53.00000

 Normal termination of Gaussian 16 at Wed Dec  9 22:46:46 2020.
