 Gaussian 16, Revision A.03,

 -----------------------------------------------------------
 # opt freq B3LYP/6-31G(d) empiricaldispersion=gd3bj scf=xqc
 -----------------------------------------------------------

 ------------------------------
 CID_61277911_JID_9805_neutraal
 ------------------------------
 Symbolic Z-matrix:
 Charge =  0 Multiplicity = 1

 SCF Done:  E(RB3LYP) =  -1275.49563643     A.U. after   15 cycles
 SCF Done:  E(RB3LYP) =  -1275.50132087     A.U. after   13 cycles
 SCF Done:  E(RB3LYP) =  -1275.50092654     A.U. after   13 cycles
 SCF Done:  E(RB3LYP) =  -1275.50186170     A.U. after   12 cycles
 SCF Done:  E(RB3LYP) =  -1275.50321931     A.U. after   12 cycles
 SCF Done:  E(RB3LYP) =  -1275.50366955     A.U. after   11 cycles
 SCF Done:  E(RB3LYP) =  -1275.50393260     A.U. after   12 cycles
 SCF Done:  E(RB3LYP) =  -1275.50418739     A.U. after   12 cycles
 SCF Done:  E(RB3LYP) =  -1275.50449247     A.U. after   12 cycles
 SCF Done:  E(RB3LYP) =  -1275.50464463     A.U. after   12 cycles
 SCF Done:  E(RB3LYP) =  -1275.50946281     A.U. after   12 cycles
 SCF Done:  E(RB3LYP) =  -1275.50946656     A.U. after   11 cycles
 SCF Done:  E(RB3LYP) =  -1275.50946473     A.U. after   11 cycles
 SCF Done:  E(RB3LYP) =  -1275.50946665     A.U. after   11 cycles
 SCF Done:  E(RB3LYP) =  -1275.50946668     A.U. after    7 cycles
 Optimization completed.
    -- Stationary point found.
 Normal termination of Gaussian 16 at Mon Dec 14 17:58:39 2020.

 --------------------------------------------------------------------
 #N Geom=AllCheck Guess=TCheck SCRF=Check GenChk RB3LYP/6-31G(d) Freq
 --------------------------------------------------------------------

 Structure from the checkpoint file:  "JID_9805.chk"
 ------------------------------
 CID_61277911_JID_9805_neutraal
 ------------------------------
 Charge =  0 Multiplicity = 1

 SCF Done:  E(RB3LYP) =  -1275.50946668     A.U. after    1 cycles

  Exact polarizability: 195.455   2.846 183.789  17.207 -12.166 115.567
 Approx polarizability: 289.967   3.685 267.289  47.286 -17.687 191.286

                      1                      2                      3
                      A                      A                      A
 Frequencies --     14.0093                20.7499                40.7957
 Red. masses --      6.7705                 4.3663                 4.6570
 Frc consts  --      0.0008                 0.0011                 0.0046
 IR Inten    --      0.7990                 0.2922                 0.1821

                      4                      5                      6
                      A                      A                      A
 Frequencies --     51.2869                56.5739                70.4434
 Red. masses --      3.9141                 4.1486                 3.8933
 Frc consts  --      0.0061                 0.0078                 0.0114
 IR Inten    --      2.8306                 0.4609                 0.4525

                      7                      8                      9
                      A                      A                      A
 Frequencies --     88.7897               127.5897               158.5508
 Red. masses --      3.6230                 1.3730                 1.2494
 Frc consts  --      0.0168                 0.0132                 0.0185
 IR Inten    --      5.5535                27.3927                 0.3870

                     10                     11                     12
                      A                      A                      A
 Frequencies --    161.7365               176.9296               214.2973
 Red. masses --      3.7447                 3.4731                 3.7300
 Frc consts  --      0.0577                 0.0641                 0.1009
 IR Inten    --      2.5464                 2.3984                 4.3541

                     13                     14                     15
                      A                      A                      A
 Frequencies --    238.1498               258.4841               284.2070
 Red. masses --      3.1544                 3.6291                 7.7672
 Frc consts  --      0.1054                 0.1429                 0.3696
 IR Inten    --      0.7895                 3.4788                 4.0679

                     16                     17                     18
                      A                      A                      A
 Frequencies --    291.2123               312.1184               319.5010
 Red. masses --      3.6108                 4.2216                 3.9916
 Frc consts  --      0.1804                 0.2423                 0.2401
 IR Inten    --     11.7524                 4.5219                 3.4924

                     19                     20                     21
                      A                      A                      A
 Frequencies --    353.8730               372.3273               426.9333
 Red. masses --      3.8950                 3.9957                 5.4797
 Frc consts  --      0.2874                 0.3264                 0.5885
 IR Inten    --      6.1826                 0.6278                 0.6324

                     22                     23                     24
                      A                      A                      A
 Frequencies --    448.5490               467.3780               488.5991
 Red. masses --      3.8962                 5.7102                 4.4316
 Frc consts  --      0.4619                 0.7349                 0.6233
 IR Inten    --      2.1193                 1.8874                12.8872

                     25                     26                     27
                      A                      A                      A
 Frequencies --    529.7434               556.1550               570.1969
 Red. masses --      5.0124                 1.5913                 2.6158
 Frc consts  --      0.8288                 0.2900                 0.5011
 IR Inten    --     56.4107               146.6894                 4.2883

                     28                     29                     30
                      A                      A                      A
 Frequencies --    607.7866               629.2005               665.8956
 Red. masses --      3.8198                 3.7350                 5.0872
 Frc consts  --      0.8314                 0.8712                 1.3291
 IR Inten    --      5.7666                 1.3744                16.4323

                     31                     32                     33
                      A                      A                      A
 Frequencies --    669.9389               679.7265               685.5573
 Red. masses --      4.0273                 5.1864                 2.8259
 Frc consts  --      1.0650                 1.4118                 0.7825
 IR Inten    --     24.9604                73.9438               185.7139

                     34                     35                     36
                      A                      A                      A
 Frequencies --    726.3462               747.4376               799.7864
 Red. masses --      3.8434                 6.0059                 2.7133
 Frc consts  --      1.1947                 1.9769                 1.0226
 IR Inten    --      6.5891                18.4633                 3.6111

                     37                     38                     39
                      A                      A                      A
 Frequencies --    826.8362               838.0567               878.9383
 Red. masses --      3.1287                 1.2860                 2.0404
 Frc consts  --      1.2602                 0.5322                 0.9287
 IR Inten    --      7.2289                18.1442               112.1621

                     40                     41                     42
                      A                      A                      A
 Frequencies --    890.3991               910.8945               947.0005
 Red. masses --      2.0134                 1.4039                 3.6077
 Frc consts  --      0.9405                 0.6863                 1.9062
 IR Inten    --     21.6907                10.4754                14.2607

                     43                     44                     45
                      A                      A                      A
 Frequencies --    956.5801               967.0660               972.1363
 Red. masses --      2.5776                 1.3378                 3.3429
 Frc consts  --      1.3897                 0.7371                 1.8613
 IR Inten    --      7.7993                 3.9367                60.8526

                     46                     47                     48
                      A                      A                      A
 Frequencies --    993.8371              1027.3533              1049.2359
 Red. masses --      2.3921                 1.6179                 1.9470
 Frc consts  --      1.3921                 1.0061                 1.2629
 IR Inten    --      3.3867                 5.7908                 3.2210

                     49                     50                     51
                      A                      A                      A
 Frequencies --   1066.4419              1074.3258              1103.1421
 Red. masses --      3.4835                 1.5284                 2.3103
 Frc consts  --      2.3342                 1.0393                 1.6565
 IR Inten    --      2.4269                 4.9037                53.8846

                     52                     53                     54
                      A                      A                      A
 Frequencies --   1111.1314              1112.5447              1136.9261
 Red. masses --      2.8348                 1.7890                 3.2618
 Frc consts  --      2.0620                 1.3047                 2.4841
 IR Inten    --     37.7186                26.3689               139.2307

                     55                     56                     57
                      A                      A                      A
 Frequencies --   1142.1299              1164.8530              1214.1096
 Red. masses --      2.9595                 1.7742                 2.0091
 Frc consts  --      2.2746                 1.4184                 1.7449
 IR Inten    --     11.4584                34.3145                28.9643

                     58                     59                     60
                      A                      A                      A
 Frequencies --   1235.9662              1252.0203              1264.7421
 Red. masses --      1.3016                 1.5107                 1.6439
 Frc consts  --      1.1715                 1.3953                 1.5493
 IR Inten    --     33.3967                60.3359                99.1400

                     61                     62                     63
                      A                      A                      A
 Frequencies --   1292.1086              1292.5731              1316.4190
 Red. masses --      1.3218                 2.0252                 1.3756
 Frc consts  --      1.3002                 1.9936                 1.4045
 IR Inten    --      8.6102                99.2535                 4.7957

                     64                     65                     66
                      A                      A                      A
 Frequencies --   1330.3129              1337.0103              1342.0011
 Red. masses --      1.1881                 1.4033                 5.0078
 Frc consts  --      1.2388                 1.4780                 5.3138
 IR Inten    --      2.3246                23.9644               153.4643

                     67                     68                     69
                      A                      A                      A
 Frequencies --   1361.4050              1372.7367              1408.5200
 Red. masses --      5.9654                 1.3007                 1.4360
 Frc consts  --      6.5142                 1.4441                 1.6785
 IR Inten    --     11.3351                25.2351                19.6021

                     70                     71                     72
                      A                      A                      A
 Frequencies --   1429.1035              1443.4717              1457.5455
 Red. masses --      1.7228                 1.3493                 2.2921
 Frc consts  --      2.0731                 1.6564                 2.8690
 IR Inten    --    135.1879                 3.9860                15.5503

                     73                     74                     75
                      A                      A                      A
 Frequencies --   1463.2409              1511.4975              1524.7805
 Red. masses --      2.2960                 1.0535                 1.0879
 Frc consts  --      2.8964                 1.4181                 1.4902
 IR Inten    --     56.4836                 9.5788                 1.5533

                     76                     77                     78
                      A                      A                      A
 Frequencies --   1526.5382              1536.5250              1548.1135
 Red. masses --      1.1045                 1.0818                 2.7802
 Frc consts  --      1.5165                 1.5047                 3.9259
 IR Inten    --      6.9243                 2.1219                79.0812

                     79                     80                     81
                      A                      A                      A
 Frequencies --   1553.2504              1619.3888              1631.6200
 Red. masses --      1.1066                 1.1152                 6.0327
 Frc consts  --      1.5730                 1.7231                 9.4624
 IR Inten    --      2.9924                31.7696                14.0264

                     82                     83                     84
                      A                      A                      A
 Frequencies --   1661.8804              1783.5851              3006.8251
 Red. masses --      6.1349                 8.1755                 1.0717
 Frc consts  --      9.9829                15.3233                 5.7086
 IR Inten    --     14.7480               375.1617                72.4883

                     85                     86                     87
                      A                      A                      A
 Frequencies --   3039.2318              3041.1551              3083.5966
 Red. masses --      1.0445                 1.0655                 1.0598
 Frc consts  --      5.6843                 5.8059                 5.9374
 IR Inten    --     20.2322                33.1437                12.7630

                     88                     89                     90
                      A                      A                      A
 Frequencies --   3096.9201              3113.8013              3122.2623
 Red. masses --      1.0929                 1.0899                 1.0950
 Frc consts  --      6.1759                 6.2260                 6.2891
 IR Inten    --     12.2899                 7.8596                20.7777

                     91                     92                     93
                      A                      A                      A
 Frequencies --   3130.8229              3139.7708              3142.3216
 Red. masses --      1.1001                 1.1035                 1.1011
 Frc consts  --      6.3530                 6.4093                 6.4058
 IR Inten    --     22.0320                28.7091                13.2632

                     94                     95                     96
                      A                      A                      A
 Frequencies --   3196.5055              3237.0591              3254.7478
 Red. masses --      1.0898                 1.0927                 1.0908
 Frc consts  --      6.5608                 6.7461                 6.8081
 IR Inten    --     13.9463                 1.1633                 1.2562

                     97                     98                     99
                      A                      A                      A
 Frequencies --   3492.1977              3574.0371              3603.6816
 Red. masses --      1.0468                 1.0753                 1.0980
 Frc consts  --      7.5214                 8.0925                 8.4011
 IR Inten    --     39.1667                24.2267                33.7756

 - Thermochemistry -
 -------------------
 Temperature   298.150 Kelvin.  Pressure   1.00000 Atm.
 Atom     1 has atomic number  6 and mass  12.00000

 Molecular mass:   284.08308 amu.
 Principal axes and moments of inertia in atomic units:
                           1         2         3
     Eigenvalues --  4102.025147349.21980**********
           X            0.99974  -0.02230  -0.00541
           Y            0.02218   0.99953  -0.02112
           Z            0.00588   0.02099   0.99976
 This molecule is an asymmetric top.
 Rotational symmetry number  1.
 Warning -- assumption of classical behavior for rotation
           may cause significant error
 Rotational temperatures (Kelvin)      0.02111     0.01179     0.00855
 Rotational constants (GHZ):           0.43996     0.24557     0.17806
 Zero-point vibrational energy     738491.2 (Joules/Mol)
                                  176.50363 (Kcal/Mol)
 Warning -- explicit consideration of  28 degrees of freedom as
           vibrations may cause significant error
 Vibrational temperatures:     20.16    29.85    58.70    73.79    81.40
          (Kelvin)            101.35   127.75   183.57   228.12   232.70
                              254.56   308.33   342.64   371.90   408.91
                              418.99   449.07   459.69   509.14   535.70
                              614.26   645.36   672.45   702.99   762.18
                              800.18   820.39   874.47   905.28   958.08
                              963.89   977.97   986.36  1045.05  1075.40
                             1150.71  1189.63  1205.78  1264.60  1281.09
                             1310.57  1362.52  1376.31  1391.39  1398.69
                             1429.91  1478.13  1509.62  1534.37  1545.72
                             1587.18  1598.67  1600.70  1635.78  1643.27
                             1675.96  1746.83  1778.28  1801.38  1819.68
                             1859.06  1859.72  1894.03  1914.02  1923.66
                             1930.84  1958.76  1975.06  2026.55  2056.16
                             2076.83  2097.08  2105.28  2174.71  2193.82
                             2196.35  2210.72  2227.39  2234.78  2329.94
                             2347.54  2391.08  2566.18  4326.15  4372.78
                             4375.54  4436.61  4455.78  4480.07  4492.24
                             4504.56  4517.43  4521.10  4599.06  4657.41
                             4682.86  5024.49  5142.24  5184.89

 Zero-point correction=                           0.281276 (Hartree/Particle)
 Thermal correction to Energy=                    0.300030
 Thermal correction to Enthalpy=                  0.300974
 Thermal correction to Gibbs Free Energy=         0.231082
 Sum of electronic and zero-point Energies=          -1275.228190
 Sum of electronic and thermal Energies=             -1275.209437
 Sum of electronic and thermal Enthalpies=           -1275.208492
 Sum of electronic and thermal Free Energies=        -1275.278384

                     E (Thermal)             CV                S
                      KCal/Mol        Cal/Mol-Kelvin    Cal/Mol-Kelvin
 Total                  188.272             69.392            147.100
 Electronic               0.000              0.000              0.000
 Translational            0.889              2.981             42.830
 Rotational               0.889              2.981             34.079
 Vibrational            186.494             63.430             70.191
 Vibration     1          0.593              1.986              7.341
 Vibration     2          0.593              1.986              6.561
 Vibration     3          0.594              1.981              5.220
 Vibration     4          0.596              1.977              4.767
 Vibration     5          0.596              1.975              4.573
 Vibration     6          0.598              1.968              4.141
 Vibration     7          0.602              1.957              3.687
 Vibration     8          0.611              1.926              2.982
 Vibration     9          0.621              1.893              2.567
 Vibration    10          0.622              1.889              2.529
 Vibration    11          0.628              1.871              2.361
 Vibration    12          0.644              1.819              2.007
 Vibration    13          0.656              1.782              1.817
 Vibration    14          0.667              1.748              1.672
 Vibration    15          0.683              1.703              1.508
 Vibration    16          0.687              1.690              1.467
 Vibration    17          0.700              1.651              1.351
 Vibration    18          0.705              1.636              1.313
 Vibration    19          0.730              1.567              1.149
 Vibration    20          0.744              1.529              1.070
 Vibration    21          0.789              1.412              0.869
 Vibration    22          0.808              1.364              0.800
 Vibration    23          0.825              1.322              0.745
 Vibration    24          0.844              1.275              0.687
 Vibration    25          0.885              1.184              0.588
 Vibration    26          0.912              1.126              0.532
 Vibration    27          0.926              1.096              0.504
 Vibration    28          0.967              1.015              0.436

                           ! Non-Optimized Parameters !
 Normal termination of Gaussian 16 at Mon Dec 14 18:14:31 2020.

 ----------------------------------------------------------------------
 # B3LYP/6-311++G(d,p) empiricaldispersion=gd3bj scf=xqc pop=npa geom=c
 heck
 ----------------------------------------------------------------------

 --------------------------------------
 CID_61277911_JID_9805_Energie_neutraal
 --------------------------------------
 Structure from the checkpoint file:  "JID_9805.chk"
 Charge =  0 Multiplicity = 1

 SCF Done:  E(RB3LYP) =  -1275.79197231     A.U. after   16 cycles
 Normal termination of Gaussian 16 at Mon Dec 14 18:22:07 2020.

 ----------------------------------------------------------------------
 # B3LYP/6-311++G(d,p) empiricaldispersion=gd3bj scf=xqc pop=npa geom=c
 heck
 ----------------------------------------------------------------------

 ------------------------------------
 CID_61277911_JID_9805_Energie_kation
 ------------------------------------
 Structure from the checkpoint file:  "JID_9805.chk"
 Charge =  1 Multiplicity = 2

 SCF Done:  E(UB3LYP) =  -1275.47733043     A.U. after   27 cycles
 Normal termination of Gaussian 16 at Mon Dec 14 18:40:49 2020.
 Gaussian 16:  ES64L-G16RevA.03 25-Dec-2016

 ----------------------------------------------------------------------
 # B3LYP/6-311++G(d,p) empiricaldispersion=gd3bj scf=xqc pop=npa geom=c
 heck
 ----------------------------------------------------------------------

 -----------------------------------
 CID_61277911_JID_9805_Energie_anion
 -----------------------------------
 Structure from the checkpoint file:  "JID_9805.chk"
 Charge = -1 Multiplicity = 2

                         Standard orientation:
 ---------------------------------------------------------------------
 Center     Atomic      Atomic             Coordinates (Angstroms)
 Number     Number       Type             X           Y           Z
 ---------------------------------------------------------------------
      1          6           0        0.109002    3.999369   -0.368406
      2          6           0       -0.613362    2.682507   -0.265680
      3          6           0        0.012665    1.572093    0.341372
      4          6           0       -0.662783    0.356438    0.448228
      5          6           0       -1.932050    0.226686   -0.105986
      6          6           0       -2.568640    1.297070   -0.725889
      7          6           0       -1.902681    2.521358   -0.780586
      8         16           0       -2.735131   -1.365264   -0.016105
      9          8           0       -3.856729   -1.347025   -0.959310
     10          8           0       -1.694831   -2.398718   -0.056666
     11          7           0       -3.344846   -1.398172    1.567458
     12          7           0        1.322566    1.703859    0.850200
     13          6           0        2.396643    0.833493    0.745879
     14          8           0        3.400676    1.036839    1.414461
     15          6           0        2.297183   -0.313185   -0.245137
     16          6           0        2.115985   -1.702266    0.442443
     17          6           0        3.272403   -2.545619   -0.143509
     18          8           0        3.675407   -1.881114   -1.333889
     19          6           0        3.621600   -0.498744   -1.023988
     20          1           0        0.242832    4.467377    0.616511
     21          1           0        1.108747    3.867088   -0.797164
     22          1           0       -0.446581    4.704118   -0.992308
     23          1           0       -0.201799   -0.481777    0.953304
     24          1           0       -3.550694    1.165949   -1.165181
     25          1           0       -2.384459    3.368411   -1.260720
     26          1           0       -4.351757   -1.246787    1.555199
     27          1           0       -3.119061   -2.301908    1.979212
     28          1           0        1.528786    2.504669    1.437079
     29          1           0        1.481226   -0.146306   -0.950243
     30          1           0        1.141069   -2.126664    0.188803
     31          1           0        2.189532   -1.631139    1.531620
     32          1           0        4.110185   -2.591920    0.569529
     33          1           0        2.979695   -3.563868   -0.410907
     34          1           0        3.653397    0.060116   -1.962648
     35          1           0        4.464972   -0.197995   -0.387229
 ---------------------------------------------------------------------

 SCF Done:  E(UB3LYP) =  -1275.79890274     A.U. after   33 cycles
 SCF Done:  E(UB3LYP) =  -1275.79890274     a.u. after    1 cycles

 The electronic state is 2-A.
 Alpha  occ. eigenvalues --  -88.93359 -19.03230 -18.99315 -18.99278 -18.98544
 Alpha  occ. eigenvalues --  -14.23573 -14.22122 -10.16798 -10.12392 -10.11883
 Alpha  occ. eigenvalues --  -10.08846 -10.08387 -10.07615 -10.06160 -10.05290
 Alpha  occ. eigenvalues --  -10.05100 -10.04700 -10.04335 -10.03989  -7.99537
 Alpha  occ. eigenvalues --   -5.95854  -5.95820  -5.95564  -0.99494  -0.95344
 Alpha  occ. eigenvalues --   -0.93819  -0.88793  -0.82505  -0.79007  -0.73084
 Alpha  occ. eigenvalues --   -0.69456  -0.66406  -0.64755  -0.62272  -0.59264
 Alpha  occ. eigenvalues --   -0.54709  -0.52643  -0.50929  -0.50195  -0.46987
 Alpha  occ. eigenvalues --   -0.45281  -0.42782  -0.41724  -0.41195  -0.39678
 Alpha  occ. eigenvalues --   -0.38397  -0.36869  -0.36608  -0.35760  -0.35287
 Alpha  occ. eigenvalues --   -0.34039  -0.32750  -0.31825  -0.31495  -0.31129
 Alpha  occ. eigenvalues --   -0.30871  -0.30461  -0.28234  -0.26608  -0.25585
 Alpha  occ. eigenvalues --   -0.25129  -0.24856  -0.23847  -0.23788  -0.23721
 Alpha  occ. eigenvalues --   -0.22594  -0.20742  -0.19726  -0.19129  -0.18243
 Alpha  occ. eigenvalues --   -0.17659  -0.17450  -0.15431  -0.13350  -0.11716
 Alpha  occ. eigenvalues --    0.04453
 Alpha virt. eigenvalues --    0.06882   0.07499   0.08059   0.09231   0.09478
 Alpha virt. eigenvalues --    0.09708   0.10464   0.10696   0.10958   0.11557
 Alpha virt. eigenvalues --    0.11921   0.12570   0.12880   0.13131   0.13427

  Beta  occ. eigenvalues --  -88.93336 -19.03228 -18.99272 -18.99227 -18.98498
  Beta  occ. eigenvalues --  -14.23600 -14.22020 -10.16732 -10.12391 -10.11872
  Beta  occ. eigenvalues --  -10.08862 -10.08390 -10.07607 -10.06201 -10.05032
  Beta  occ. eigenvalues --  -10.04953 -10.04754 -10.04161 -10.03487  -7.99513
  Beta  occ. eigenvalues --   -5.95812  -5.95764  -5.95556  -0.99360  -0.95336
  Beta  occ. eigenvalues --   -0.93732  -0.88704  -0.82453  -0.78815  -0.72637
  Beta  occ. eigenvalues --   -0.69418  -0.65812  -0.64736  -0.61960  -0.58950
  Beta  occ. eigenvalues --   -0.54605  -0.52376  -0.50906  -0.50076  -0.46564
  Beta  occ. eigenvalues --   -0.45222  -0.42585  -0.41694  -0.41051  -0.39603
  Beta  occ. eigenvalues --   -0.38166  -0.36704  -0.36531  -0.35600  -0.35183
  Beta  occ. eigenvalues --   -0.33798  -0.32637  -0.31626  -0.31414  -0.30828
  Beta  occ. eigenvalues --   -0.30727  -0.30334  -0.28147  -0.26576  -0.25493
  Beta  occ. eigenvalues --   -0.24814  -0.24329  -0.23725  -0.23606  -0.23521
  Beta  occ. eigenvalues --   -0.22450  -0.20546  -0.19521  -0.18896  -0.17920
  Beta  occ. eigenvalues --   -0.17506  -0.17255  -0.15385  -0.12015  -0.10364
  Beta virt. eigenvalues --    0.07235   0.07575   0.08008   0.09328   0.09480
  Beta virt. eigenvalues --    0.09674   0.10076   0.10501   0.10815   0.11152
  Beta virt. eigenvalues --    0.11708   0.12177   0.12584   0.12903   0.13150

 Mulliken charges and spin densities:
               1          2
     1  C   -0.562554  -0.085243
     2  C    0.421823   0.296286
     3  C   -0.348390  -0.022000
     4  C   -0.456677   0.080481
     5  C    0.131423   0.324587
     6  C   -0.400066   0.168474
     7  C   -0.453103  -0.003336
     8  S    0.553160  -0.225803
     9  O   -0.223066   0.012975
    10  O   -0.282011   0.010685
    11  N   -0.290601  -0.049939
    12  N   -0.118401  -0.009747
    13  C   -0.230783   0.037284
    14  O   -0.340000   0.017752
    15  C    0.534532  -0.016758
    16  C   -0.396685   0.015555
    17  C   -0.413388  -0.016212
    18  O   -0.111833   0.000064
    19  C   -0.635723   0.027218
    20  H    0.077423   0.063653
    21  H    0.154796   0.013187
    22  H    0.132384   0.000819
    23  H    0.196765  -0.005383
    24  H    0.182338  -0.004369
    25  H    0.103349   0.003315
    26  H    0.134743   0.146991
    27  H    0.069702   0.210912
    28  H    0.305623  -0.005661
    29  H    0.242898   0.002227
    30  H    0.198881   0.001411
    31  H    0.178515   0.002539
    32  H    0.128085   0.004695
    33  H    0.165512   0.000031
    34  H    0.155904   0.002267
    35  H    0.195425   0.001044
 Sum of Mulliken charges =  -1.00000   1.00000

 Dipole moment (field-independent basis, Debye):
    X=              2.5256    Y=              1.5285    Z=              0.6732  Tot=              3.0279
 Quadrupole moment (field-independent basis, Debye-Ang):
   XX=           -178.3457   YY=           -146.3084   ZZ=           -139.9444
   XY=             -9.0956   XZ=             -5.7960   YZ=             -7.6352

 Summary of Natural Population Analysis:

                                       Natural Population
                Natural  -----------------------------------------------
    Atom  No    Charge         Core      Valence    Rydberg      Total
 -----------------------------------------------------------------------
      C    1   -0.29793      0.99965     2.29394    0.00434     3.29793
      C    2    0.06548      0.99949     1.92714    0.00789     2.93452
      C    3    0.05811      0.99943     1.93024    0.01221     2.94189
      C    4   -0.08619      0.99947     2.07857    0.00815     3.08619
      C    5   -0.09813      0.99939     2.08115    0.01759     3.09813
      C    6   -0.03175      0.99951     2.02718    0.00506     3.03175
      C    7   -0.12561      0.99957     2.11253    0.01351     3.12561
      S    8    1.10366      4.99926     1.79559    0.10149     6.89634
      O    9   -0.47201      0.99991     3.46598    0.00612     4.47201
      O   10   -0.47552      0.99991     3.46915    0.00646     4.47552
      N   11   -0.51370      0.99978     3.00229    0.01163     4.01370
      N   12   -0.31378      0.99964     2.80322    0.01092     3.81378
      C   13    0.35585      0.99965     1.62208    0.02242     2.64415
      O   14   -0.33151      0.99988     3.32498    0.00665     4.33151
      C   15   -0.16757      0.99956     2.15792    0.01008     3.16757
      C   16   -0.20393      0.99963     2.19779    0.00651     3.20393
      C   17   -0.01140      0.99962     2.00117    0.01060     3.01140
      O   18   -0.30059      0.99989     3.29022    0.01047     4.30059
      C   19   -0.00593      0.99959     1.99519    0.01115     3.00593
      H   20    0.09930      0.00000     0.39962    0.00107     0.40070
      H   21    0.10327      0.00000     0.39565    0.00108     0.39673
      H   22    0.09815      0.00000     0.40104    0.00082     0.40185
      H   23    0.10632      0.00000     0.39220    0.00148     0.39368
      H   24    0.10130      0.00000     0.39722    0.00148     0.39870
      H   25    0.09100      0.00000     0.40756    0.00143     0.40900
      H   26    0.18961      0.00000     0.30815    0.00224     0.31039
      H   27    0.19197      0.00000     0.30474    0.00330     0.30803
      H   28    0.19440      0.00000     0.30386    0.00174     0.30560
      H   29    0.11778      0.00000     0.38108    0.00114     0.38222
      H   30    0.11548      0.00000     0.38360    0.00092     0.38452
      H   31    0.10254      0.00000     0.39656    0.00090     0.39746
      H   32    0.07493      0.00000     0.42359    0.00148     0.42507
      H   33    0.08933      0.00000     0.40965    0.00102     0.41067
      H   34    0.08942      0.00000     0.40959    0.00099     0.41058
      H   35    0.08769      0.00000     0.41097    0.00134     0.41231
 =======================================================================
   * Total *    0.00006     22.99282    51.70144    0.30567    74.99994

 Normal termination of Gaussian 16 at Mon Dec 14 19:03:49 2020.
