 Gaussian 16, Revision A.03,

 -----------------------------------------------------------
 # opt freq B3LYP/6-31G(d) empiricaldispersion=gd3bj scf=xqc
 -----------------------------------------------------------

 -------------------------------
 CID_115225657_JID_1649_neutraal
 -------------------------------
 Symbolic Z-matrix:
 Charge =  0 Multiplicity = 1

 SCF Done:  E(RB3LYP) =  -480.560006823     A.U. after   13 cycles
 SCF Done:  E(RB3LYP) =  -480.565426578     A.U. after   11 cycles
 SCF Done:  E(RB3LYP) =  -480.566107998     A.U. after   10 cycles
 SCF Done:  E(RB3LYP) =  -480.566254619     A.U. after   10 cycles
 SCF Done:  E(RB3LYP) =  -480.566291089     A.U. after    9 cycles
 SCF Done:  E(RB3LYP) =  -480.566314513     A.U. after    9 cycles
 SCF Done:  E(RB3LYP) =  -480.566329674     A.U. after    9 cycles
 SCF Done:  E(RB3LYP) =  -480.566332916     A.U. after    8 cycles
 SCF Done:  E(RB3LYP) =  -480.566334216     A.U. after    8 cycles
 SCF Done:  E(RB3LYP) =  -480.566334283     A.U. after    7 cycles
 SCF Done:  E(RB3LYP) =  -480.566334261     A.U. after    6 cycles
 Optimization completed.
    -- Stationary point found.

 1\1\GINC-NODE121\FOpt\RB3LYP\6-31G(d)\C8H19N3\VSC10255\08-Dec-2020\0\\
 # opt freq B3LYP/6-31G(d) empiricaldispersion=gd3bj scf=xqc\\CID_11522
 5657_JID_1649_neutraal\\0,1\C,-2.3621324931,0.063157364,-0.0131183241\
 N,-0.9452770485,0.009693875,0.3036462317\C,-0.3834633849,-1.3073506856
 ,0.0069609219\C,1.0811373465,-1.3831917333,0.4379173479\C,1.9052215262
 ,-0.2704914146,-0.2203595628\C,1.2507394558,1.095866303,0.064075402\C,
 -0.2104586196,1.0629442122,-0.3963230481\N,1.9497751832,2.2826838186,-
 0.4476777889\C,3.2766821034,2.4613699177,0.1157770372\C,1.8641544057,2

 Normal termination of Gaussian 16 at Tue Dec  8 20:53:00 2020.

 --------------------------------------------------------------------
 #N Geom=AllCheck Guess=TCheck SCRF=Check GenChk RB3LYP/6-31G(d) Freq
 --------------------------------------------------------------------

 Structure from the checkpoint file:  "JID_1649.chk"
 -------------------------------
 CID_115225657_JID_1649_neutraal
 -------------------------------
 Charge =  0 Multiplicity = 1

 SCF Done:  E(RB3LYP) =  -480.566334260     A.U. after    1 cycles

  Exact polarizability: 118.433   0.371 102.073  -0.945  -1.342  93.068
 Approx polarizability: 143.432  -0.756 141.574   1.045  -3.275 140.773

                      1                      2                      3
                      A                      A                      A
 Frequencies --     42.3252               108.3340               143.1132
 Red. masses --      3.4437                 2.9447                 2.3849
 Frc consts  --      0.0036                 0.0204                 0.0288
 IR Inten    --      0.5070                 0.9838                 2.8262

                      4                      5                      6
                      A                      A                      A
 Frequencies --    163.0175               176.9721               221.0086
 Red. masses --      2.4143                 2.6956                 2.2493
 Frc consts  --      0.0378                 0.0497                 0.0647
 IR Inten    --      1.5048                 3.2300                 2.7898

                      7                      8                      9
                      A                      A                      A
 Frequencies --    225.4517               245.4532               258.7314
 Red. masses --      1.1037                 1.1246                 1.2235
 Frc consts  --      0.0331                 0.0399                 0.0483
 IR Inten    --     37.5905                 1.1615                 1.2868

                     10                     11                     12
                      A                      A                      A
 Frequencies --    290.0921               323.1653               367.8821
 Red. masses --      1.8267                 2.7916                 2.5127
 Frc consts  --      0.0906                 0.1718                 0.2004
 IR Inten    --      0.3652                 0.0677                 2.1669

                     13                     14                     15
                      A                      A                      A
 Frequencies --    385.3526               430.0992               430.8702
 Red. masses --      2.6656                 3.0694                 2.2464
 Frc consts  --      0.2332                 0.3345                 0.2457
 IR Inten    --     15.9772                 0.2541                 1.7599

                     16                     17                     18
                      A                      A                      A
 Frequencies --    490.9760               509.0788               561.6491
 Red. masses --      2.4731                 2.7122                 2.0224
 Frc consts  --      0.3512                 0.4141                 0.3759
 IR Inten    --      0.9133                 1.5100                 2.2605

                     19                     20                     21
                      A                      A                      A
 Frequencies --    586.6614               800.0469               831.0752
 Red. masses --      3.4673                 2.0472                 2.9060
 Frc consts  --      0.7031                 0.7720                 1.1826
 IR Inten    --      7.2273                 6.7344                10.5620

                     22                     23                     24
                      A                      A                      A
 Frequencies --    874.1221               882.0875               891.3263
 Red. masses --      1.4113                 1.7169                 1.6964
 Frc consts  --      0.6353                 0.7871                 0.7940
 IR Inten    --    117.4757                 7.7187                 4.2367

                     25                     26                     27
                      A                      A                      A
 Frequencies --    925.2586               976.2000               995.7920
 Red. masses --      2.3057                 2.0678                 1.7088
 Frc consts  --      1.1630                 1.1610                 0.9983
 IR Inten    --      1.1281                10.2097                 2.1816

                     28                     29                     30
                      A                      A                      A
 Frequencies --   1001.1118              1039.5451              1062.8279
 Red. masses --      2.6537                 2.0888                 1.8252
 Frc consts  --      1.5670                 1.3299                 1.2147
 IR Inten    --     35.7010                 8.0615                 6.8225

                     31                     32                     33
                      A                      A                      A
 Frequencies --   1088.5100              1096.6382              1122.8593
 Red. masses --      1.7537                 1.6795                 2.5736
 Frc consts  --      1.2243                 1.1900                 1.9118
 IR Inten    --      2.9515                45.1449                20.8028

                     34                     35                     36
                      A                      A                      A
 Frequencies --   1130.1841              1146.7620              1164.6703
 Red. masses --      2.0890                 1.7687                 1.3440
 Frc consts  --      1.5721                 1.3704                 1.0741
 IR Inten    --     31.9215                14.7582                 7.1436

                     37                     38                     39
                      A                      A                      A
 Frequencies --   1175.3994              1188.8080              1210.0300
 Red. masses --      1.7388                 1.2107                 2.2944
 Frc consts  --      1.4154                 1.0081                 1.9793
 IR Inten    --     11.8055                 0.8183                32.2203

                     40                     41                     42
                      A                      A                      A
 Frequencies --   1238.8766              1268.8696              1296.5780
 Red. masses --      1.6110                 1.7919                 1.4767
 Frc consts  --      1.4568                 1.6998                 1.4626
 IR Inten    --     13.5997                31.0047                 5.3076

                     43                     44                     45
                      A                      A                      A
 Frequencies --   1304.1689              1324.8497              1341.3044
 Red. masses --      1.6773                 1.7693                 1.4173
 Frc consts  --      1.6808                 1.8297                 1.5023
 IR Inten    --     19.1011                 9.8154                 9.9373

                     46                     47                     48
                      A                      A                      A
 Frequencies --   1357.6877              1382.1475              1392.3330
 Red. masses --      1.2949                 1.5460                 1.3270
 Frc consts  --      1.4064                 1.7401                 1.5157
 IR Inten    --      3.3481                16.9950                 7.5440

                     49                     50                     51
                      A                      A                      A
 Frequencies --   1398.1957              1407.7766              1427.6984
 Red. masses --      1.4313                 1.3091                 1.4581
 Frc consts  --      1.6487                 1.5286                 1.7512
 IR Inten    --      7.4840                 6.1890                16.6975

                     52                     53                     54
                      A                      A                      A
 Frequencies --   1445.4722              1453.9948              1482.6333
 Red. masses --      1.4590                 1.2267                 1.1793
 Frc consts  --      1.7961                 1.5279                 1.5274
 IR Inten    --      4.2136                27.2255                 5.4366

                     55                     56                     57
                      A                      A                      A
 Frequencies --   1486.4211              1511.2621              1515.8259
 Red. masses --      1.1870                 1.0892                 1.0555
 Frc consts  --      1.5452                 1.4656                 1.4289
 IR Inten    --      8.3363                 3.9784                14.7521

                     58                     59                     60
                      A                      A                      A
 Frequencies --   1516.4726              1522.1269              1530.7017
 Red. masses --      1.0635                 1.0829                 1.1094
 Frc consts  --      1.4410                 1.4782                 1.5315
 IR Inten    --     11.0868                 2.1042                 3.0039

                     61                     62                     63
                      A                      A                      A
 Frequencies --   1535.2220              1538.1257              1547.9306
 Red. masses --      1.0797                 1.0721                 1.0969
 Frc consts  --      1.4993                 1.4944                 1.5486
 IR Inten    --      2.2212                 1.5742                 4.5708

                     64                     65                     66
                      A                      A                      A
 Frequencies --   1553.1573              1684.9489              2898.4159
 Red. masses --      1.0532                 1.0908                 1.0731
 Frc consts  --      1.4968                 1.8245                 5.3112
 IR Inten    --      9.0918                32.4311                48.3957

                     67                     68                     69
                      A                      A                      A
 Frequencies --   2922.0798              2933.6405              2961.5411
 Red. masses --      1.0676                 1.0658                 1.0596
 Frc consts  --      5.3710                 5.4045                 5.4754
 IR Inten    --     33.2687               142.8612                79.6225

                     70                     71                     72
                      A                      A                      A
 Frequencies --   2972.1608              3017.7466              3040.0319
 Red. masses --      1.0744                 1.0833                 1.0617
 Frc consts  --      5.5919                 5.8127                 5.7813
 IR Inten    --     94.1761                31.5069                26.7689

                     73                     74                     75
                      A                      A                      A
 Frequencies --   3056.7710              3062.4316              3070.1402
 Red. masses --      1.0637                 1.0729                 1.0831
 Frc consts  --      5.8562                 5.9282                 6.0150
 IR Inten    --     52.6027                44.2754                36.3827

                     76                     77                     78
                      A                      A                      A
 Frequencies --   3073.9226              3080.1039              3081.6193
 Red. masses --      1.0744                 1.0886                 1.1010
 Frc consts  --      5.9813                 6.0846                 6.1600
 IR Inten    --     49.5551                73.1349                16.4721

                     79                     80                     81
                      A                      A                      A
 Frequencies --   3100.4619              3106.9708              3112.8272
 Red. masses --      1.0888                 1.1029                 1.1003
 Frc consts  --      6.1665                 6.2729                 6.2817
 IR Inten    --     34.9105                31.5534                31.1941

                     82                     83                     84
                      A                      A                      A
 Frequencies --   3118.3854              3452.8774              3540.8826
 Red. masses --      1.1040                 1.0495                 1.0922
 Frc consts  --      6.3252                 7.3723                 8.0684
 IR Inten    --     36.5720                 3.4040                 1.1796

 - Thermochemistry -
 -------------------
 Temperature   298.150 Kelvin.  Pressure   1.00000 Atm.
 Atom     1 has atomic number  6 and mass  12.00000

 Molecular mass:   157.15790 amu.
 Principal axes and moments of inertia in atomic units:
                           1         2         3
     Eigenvalues --  1026.039982631.788732896.56684
           X            0.99992   0.01084  -0.00571
           Y           -0.01097   0.99968  -0.02275
           Z            0.00546   0.02281   0.99972
 This molecule is an asymmetric top.
 Rotational symmetry number  1.
 Warning -- assumption of classical behavior for rotation
           may cause significant error
 Rotational temperatures (Kelvin)      0.08442     0.03291     0.02990
 Rotational constants (GHZ):           1.75894     0.68575     0.62306
 Zero-point vibrational energy     733497.9 (Joules/Mol)
                                  175.31022 (Kcal/Mol)
 Warning -- explicit consideration of  19 degrees of freedom as
           vibrations may cause significant error
 Vibrational temperatures:     60.90   155.87   205.91   234.55   254.62
          (Kelvin)            317.98   324.37   353.15   372.26   417.38
                              464.96   529.30   554.44   618.82   619.93
                              706.41   732.45   808.09   844.07  1151.09
                             1195.73  1257.67  1269.13  1282.42  1331.24
                             1404.53  1432.72  1440.38  1495.67  1529.17
                             1566.12  1577.82  1615.54  1626.08  1649.93
                             1675.70  1691.14  1710.43  1740.96  1782.47
                             1825.62  1865.49  1876.41  1906.16  1929.84
                             1953.41  1988.60  2003.26  2011.69  2025.48
                             2054.14  2079.71  2091.97  2133.18  2138.63
                             2174.37  2180.94  2181.87  2190.00  2202.34
                             2208.84  2213.02  2227.13  2234.65  2424.27
                             4170.17  4204.22  4220.85  4261.00  4276.28
                             4341.86  4373.93  4398.01  4406.16  4417.25
                             4422.69  4431.58  4433.76  4460.87  4470.24
                             4478.66  4486.66  4967.92  5094.54

 Zero-point correction=                           0.279375 (Hartree/Particle)
 Thermal correction to Energy=                    0.291432
 Thermal correction to Enthalpy=                  0.292376
 Thermal correction to Gibbs Free Energy=         0.241967
 Sum of electronic and zero-point Energies=           -480.286960
 Sum of electronic and thermal Energies=              -480.274903
 Sum of electronic and thermal Enthalpies=            -480.273958
 Sum of electronic and thermal Free Energies=         -480.324367

                     E (Thermal)             CV                S
                      KCal/Mol        Cal/Mol-Kelvin    Cal/Mol-Kelvin
 Total                  182.876             46.361            106.094
 Electronic               0.000              0.000              0.000
 Translational            0.889              2.981             41.066
 Rotational               0.889              2.981             30.437
 Vibrational            181.099             40.400             34.591
 Vibration     1          0.595              1.980              5.147
 Vibration     2          0.606              1.943              3.299
 Vibration     3          0.616              1.910              2.762
 Vibration     4          0.623              1.888              2.514
 Vibration     5          0.628              1.871              2.360
 Vibration     6          0.648              1.809              1.951
 Vibration     7          0.650              1.802              1.915
 Vibration     8          0.660              1.770              1.763
 Vibration     9          0.668              1.748              1.670
 Vibration    10          0.686              1.692              1.473
 Vibration    11          0.708              1.629              1.294
 Vibration    12          0.740              1.538              1.089
 Vibration    13          0.754              1.501              1.018
 Vibration    14          0.791              1.405              0.858
 Vibration    15          0.792              1.403              0.856
 Vibration    16          0.847              1.270              0.681
 Vibration    17          0.864              1.230              0.636
 Vibration    18          0.917              1.114              0.521
 Vibration    19          0.944              1.060              0.473

 Optimization completed.
    -- Stationary point found.

 1\1\GINC-NODE121\Freq\RB3LYP\6-31G(d)\C8H19N3\VSC10255\08-Dec-2020\0\\
 #N Geom=AllCheck Guess=TCheck SCRF=Check GenChk RB3LYP/6-31G(d) Freq\\
 CID_115225657_JID_1649_neutraal\\0,1\C,-2.3621324931,0.063157364,-0.01
 31183241\N,-0.9452770485,0.009693875,0.3036462317\C,-0.3834633849,-1.3
 073506856,0.0069609219\C,1.0811373465,-1.3831917333,0.4379173479\C,1.9
 052215262,-0.2704914146,-0.2203595628\C,1.2507394558,1.095866303,0.064
 075402\C,-0.2104586196,1.0629442122,-0.3963230481\N,1.9497751832,2.282
 6838186,-0.4476777889\C,3.2766821034,2.4613699177,0.1157770372\C,1.864

 Normal termination of Gaussian 16 at Tue Dec  8 21:00:47 2020.

 ----------------------------------------------------------------------
 # B3LYP/6-311++G(d,p) empiricaldispersion=gd3bj scf=xqc pop=npa geom=c
 heck
 ----------------------------------------------------------------------

 ---------------------------------------
 CID_115225657_JID_1649_Energie_neutraal
 ---------------------------------------
 Structure from the checkpoint file:  "JID_1649.chk"
 Charge =  0 Multiplicity = 1

 SCF Done:  E(RB3LYP) =  -480.708551917     A.U. after   14 cycles
 Normal termination of Gaussian 16 at Tue Dec  8 21:06:37 2020.

 ----------------------------------------------------------------------
 # B3LYP/6-311++G(d,p) empiricaldispersion=gd3bj scf=xqc pop=npa geom=c
 heck
 ----------------------------------------------------------------------

 -------------------------------------
 CID_115225657_JID_1649_Energie_kation
 -------------------------------------
 Structure from the checkpoint file:  "JID_1649.chk"
 Charge =  1 Multiplicity = 2

 SCF Done:  E(UB3LYP) =  -480.435745381     A.U. after   20 cycles
 Normal termination of Gaussian 16 at Tue Dec  8 21:14:09 2020.
 Gaussian 16:  ES64L-G16RevA.03 25-Dec-2016

 ------------------------------------
 CID_115225657_JID_1649_Energie_anion
 ------------------------------------
 Structure from the checkpoint file:  "JID_1649.chk"
 Charge = -1 Multiplicity = 2

                         Standard orientation:
 ---------------------------------------------------------------------
 Center     Atomic      Atomic             Coordinates (Angstroms)
 Number     Number       Type             X           Y           Z
 ---------------------------------------------------------------------
      1          6           0       -3.052097   -1.441952   -0.248172
      2          7           0       -2.083215   -0.370451   -0.402548
      3          6           0       -2.320357    0.703688    0.560910
      4          6           0       -1.360072    1.868957    0.323145
      5          6           0        0.097868    1.397016    0.370344
      6          6           0        0.295448    0.227064   -0.613708
      7          6           0       -0.716077   -0.878968   -0.294867
      8          7           0        1.657915   -0.308975   -0.737902
      9          6           0        2.620235    0.662479   -1.228118
     10          6           0        2.168032   -1.164441    0.306667
     11          7           0        2.319687   -0.518429    1.626470
     12          1           0       -3.003938   -1.933518    0.744524
     13          1           0       -4.064719   -1.045108   -0.379518
     14          1           0       -2.882368   -2.207403   -1.013194
     15          1           0       -3.359238    1.036935    0.451194
     16          1           0       -2.204749    0.337009    1.603154
     17          1           0       -1.537857    2.648752    1.073781
     18          1           0       -1.578460    2.306155   -0.660003
     19          1           0        0.364292    1.056625    1.376324
     20          1           0        0.769633    2.227036    0.120423
     21          1           0        0.034462    0.592674   -1.617428
     22          1           0       -0.529920   -1.282440    0.720359
     23          1           0       -0.588851   -1.700918   -1.008524
     24          1           0        2.870137    1.472368   -0.519405
     25          1           0        3.551732    0.147982   -1.492569
     26          1           0        2.227193    1.135246   -2.135527
     27          1           0        1.482929   -2.005285    0.448629
     28          1           0        3.113594   -1.584184   -0.077276
     29          1           0        2.597120   -1.219300    2.313733
     30          1           0        3.080417    0.159308    1.591971
 ---------------------------------------------------------------------

 SCF Done:  E(UB3LYP) =  -480.692488315     A.U. after   27 cycles

 The electronic state is 2-A.
 Alpha  occ. eigenvalues --  -14.20385 -14.19290 -14.17713 -10.10399 -10.08907
 Alpha  occ. eigenvalues --  -10.08805 -10.08782 -10.08301 -10.07770 -10.06264
 Alpha  occ. eigenvalues --  -10.04804  -0.83448  -0.81909  -0.74804  -0.68505
 Alpha  occ. eigenvalues --   -0.64604  -0.59273  -0.58210  -0.54055  -0.51168
 Alpha  occ. eigenvalues --   -0.47538  -0.44606  -0.40119  -0.37775  -0.37538
 Alpha  occ. eigenvalues --   -0.36363  -0.34845  -0.34322  -0.32347  -0.32022
 Alpha  occ. eigenvalues --   -0.31220  -0.30370  -0.29555  -0.28339  -0.27398
 Alpha  occ. eigenvalues --   -0.25778  -0.25485  -0.24006  -0.22752  -0.22170
 Alpha  occ. eigenvalues --   -0.21115  -0.13409  -0.12305  -0.10340   0.04681
 Alpha virt. eigenvalues --    0.06492   0.07390   0.08000   0.09097   0.09211
 Alpha virt. eigenvalues --    0.09694   0.10162   0.10943   0.11503   0.11879
 Alpha virt. eigenvalues --    0.12171   0.13007   0.13484   0.14154   0.14603

  Beta  occ. eigenvalues --  -14.20376 -14.19290 -14.17663 -10.10372 -10.08895
  Beta  occ. eigenvalues --  -10.08799 -10.08759 -10.08290 -10.07731 -10.06255
  Beta  occ. eigenvalues --  -10.04795  -0.83430  -0.81886  -0.74722  -0.68482
  Beta  occ. eigenvalues --   -0.64580  -0.59228  -0.58137  -0.54005  -0.51130
  Beta  occ. eigenvalues --   -0.47479  -0.44565  -0.40081  -0.37733  -0.37498
  Beta  occ. eigenvalues --   -0.36308  -0.34817  -0.34285  -0.32298  -0.31984
  Beta  occ. eigenvalues --   -0.31177  -0.30325  -0.29526  -0.28312  -0.27365
  Beta  occ. eigenvalues --   -0.25742  -0.25461  -0.23978  -0.22730  -0.22150
  Beta  occ. eigenvalues --   -0.21087  -0.13355  -0.12259  -0.10319
  Beta virt. eigenvalues --    0.06753   0.07564   0.07969   0.08551   0.09698
  Beta virt. eigenvalues --    0.09789   0.10160   0.10600   0.11143   0.11979
  Beta virt. eigenvalues --    0.12297   0.12595   0.13242   0.13772   0.14567

 Mulliken charges and spin densities:
               1          2
     1  C    0.455668  -0.712289
     2  N   -0.003462   0.113688
     3  C    0.089356  -0.382548
     4  C    0.111025  -0.676139
     5  C   -0.402754   0.156983
     6  C   -0.517272   0.379027
     7  C   -0.426447  -0.195115
     8  N    0.005674   0.168627
     9  C    0.898573  -1.183725
    10  C    0.903424  -1.402265
    11  N   -0.338201   0.034093
    12  H   -0.145103   0.249568
    13  H   -0.192616   0.323446
    14  H   -0.156288   0.278476
    15  H   -0.074451   0.234365
    16  H    0.091565   0.012753
    17  H   -0.177685   0.332092
    18  H    0.107348   0.024807
    19  H    0.232421  -0.003010
    20  H   -0.053513   0.178490
    21  H    0.078894   0.087493
    22  H    0.215720  -0.075531
    23  H    0.185324   0.005596
    24  H   -0.272303   0.415388
    25  H   -0.388344   0.516989
    26  H   -0.149523   0.284597
    27  H   -0.404974   0.561045
    28  H   -0.298945   0.438520
    29  H   -0.293541   0.535091
    30  H   -0.079569   0.299487
 Sum of Mulliken charges =  -1.00000   1.00000

 Dipole moment (field-independent basis, Debye):
    X=             -4.4576    Y=              1.4638    Z=             -1.6913  Tot=              4.9873
 Quadrupole moment (field-independent basis, Debye-Ang):
   XX=           -144.2402   YY=           -108.7051   ZZ=           -106.8966
   XY=              1.0076   XZ=             -4.9871   YZ=              2.4796

 Summary of Natural Population Analysis:

                                       Natural Population
                Natural  -----------------------------------------------
    Atom  No    Charge         Core      Valence    Rydberg      Total
 -----------------------------------------------------------------------
      C    1   -0.17486      0.99965     2.16667    0.00854     3.17486
      N    2   -0.27911      0.99971     2.76740    0.01199     3.77911
      C    3   -0.08303      0.99961     2.07238    0.01103     3.08303
      C    4   -0.19273      0.99963     2.18499    0.00812     3.19273
      C    5   -0.20584      0.99960     2.19778    0.00845     3.20584
      C    6   -0.00151      0.99956     1.98842    0.01354     3.00151
      C    7   -0.08993      0.99958     2.07839    0.01195     3.08993
      N    8   -0.28230      0.99971     2.76762    0.01497     3.78230
      C    9   -0.17740      0.99964     2.16875    0.00902     3.17740
      C   10    0.00978      0.99962     1.97460    0.01599     2.99022
      N   11   -0.43461      0.99977     2.92322    0.01161     3.93461
      H   12    0.07979      0.00000     0.41884    0.00137     0.42021
      H   13    0.09389      0.00000     0.40495    0.00116     0.40611
      H   14    0.09464      0.00000     0.40426    0.00110     0.40536
      H   15    0.09438      0.00000     0.40432    0.00131     0.40562
      H   16    0.07826      0.00000     0.42021    0.00153     0.42174
      H   17    0.09769      0.00000     0.40146    0.00084     0.40231
      H   18    0.09402      0.00000     0.40448    0.00150     0.40598
      H   19    0.11078      0.00000     0.38711    0.00211     0.38922
      H   20    0.09914      0.00000     0.39970    0.00116     0.40086
      H   21    0.09257      0.00000     0.40494    0.00250     0.40743
      H   22    0.08430      0.00000     0.41381    0.00189     0.41570
      H   23    0.09957      0.00000     0.39875    0.00168     0.40043
      H   24    0.08203      0.00000     0.41609    0.00188     0.41797
      H   25    0.09643      0.00000     0.40224    0.00132     0.40357
      H   26    0.09313      0.00000     0.40569    0.00119     0.40687
      H   27    0.08829      0.00000     0.41018    0.00153     0.41171
      H   28    0.08023      0.00000     0.41758    0.00219     0.41977
      H   29    0.17738      0.00000     0.31883    0.00379     0.32262
      H   30    0.17504      0.00000     0.32161    0.00334     0.32496
 =======================================================================
   * Total *    0.00000     10.99609    32.84530    0.15860    44.00000

 Normal termination of Gaussian 16 at Tue Dec  8 21:24:40 2020.
