 Gaussian 16, Revision A.03,

 -----------------------------------------------------------
 # opt freq B3LYP/6-31G(d) empiricaldispersion=gd3bj scf=xqc
 -----------------------------------------------------------

 -------------------------------
 CID_123551846_JID_3721_neutraal
 -------------------------------
 Symbolic Z-matrix:
 Charge =  0 Multiplicity = 1

 SCF Done:  E(RB3LYP) =  -952.801378022     A.U. after   14 cycles
 SCF Done:  E(RB3LYP) =  -952.806161342     A.U. after   13 cycles
 SCF Done:  E(RB3LYP) =  -952.806464899     A.U. after   12 cycles
 SCF Done:  E(RB3LYP) =  -952.807410664     A.U. after   12 cycles
 SCF Done:  E(RB3LYP) =  -952.807569101     A.U. after   11 cycles
 SCF Done:  E(RB3LYP) =  -952.807611627     A.U. after   10 cycles
 SCF Done:  E(RB3LYP) =  -952.807650119     A.U. after   11 cycles
 SCF Done:  E(RB3LYP) =  -952.807837728     A.U. after   14 cycles
 SCF Done:  E(RB3LYP) =  -952.808125046     A.U. after   11 cycles
 SCF Done:  E(RB3LYP) =  -952.808499901     A.U. after   12 cycles
 SCF Done:  E(RB3LYP) =  -952.809336849     A.U. after    9 cycles
 SCF Done:  E(RB3LYP) =  -952.809337995     A.U. after    8 cycles
 SCF Done:  E(RB3LYP) =  -952.809338522     A.U. after    8 cycles
 SCF Done:  E(RB3LYP) =  -952.809338599     A.U. after    7 cycles
 SCF Done:  E(RB3LYP) =  -952.809338608     A.U. after    7 cycles
 Optimization completed.
    -- Stationary point found.
 Normal termination of Gaussian 16 at Mon Dec 14 18:50:59 2020.

 --------------------------------------------------------------------
 #N Geom=AllCheck Guess=TCheck SCRF=Check GenChk RB3LYP/6-31G(d) Freq
 --------------------------------------------------------------------

 Structure from the checkpoint file:  "JID_3721.chk"
 -------------------------------
 CID_123551846_JID_3721_neutraal
 -------------------------------
 Charge =  0 Multiplicity = 1

 SCF Done:  E(RB3LYP) =  -952.809338608     A.U. after    1 cycles

  Exact polarizability: 140.372   7.014 122.034  -3.117   0.846 103.141
 Approx polarizability: 168.598   8.884 197.789  -4.700   4.682 153.918

                      1                      2                      3
                      A                      A                      A
 Frequencies --     43.6629                52.2026                89.4627
 Red. masses --      3.9206                 4.6467                 3.1620
 Frc consts  --      0.0044                 0.0075                 0.0149
 IR Inten    --      0.0161                 1.5460                 1.3642

                      4                      5                      6
                      A                      A                      A
 Frequencies --    101.1302               119.8626               147.5948
 Red. masses --      5.2605                 3.5349                 2.6099
 Frc consts  --      0.0317                 0.0299                 0.0335
 IR Inten    --      0.6054                 0.1544                 0.7358

                      7                      8                      9
                      A                      A                      A
 Frequencies --    166.8753               189.4477               232.2238
 Red. masses --      1.4594                 2.8950                 1.9584
 Frc consts  --      0.0239                 0.0612                 0.0622
 IR Inten    --      0.6741                 0.6611                 1.3412

                     10                     11                     12
                      A                      A                      A
 Frequencies --    260.1859               264.5288               286.6177
 Red. masses --      1.4640                 3.6035                 3.5647
 Frc consts  --      0.0584                 0.1486                 0.1725
 IR Inten    --      2.2032                 3.2614                 4.5832

                     13                     14                     15
                      A                      A                      A
 Frequencies --    341.5842               368.3178               396.9305
 Red. masses --      2.3234                 2.1087                 2.0343
 Frc consts  --      0.1597                 0.1685                 0.1888
 IR Inten    --      1.9163                 0.3234                 3.3224

                     16                     17                     18
                      A                      A                      A
 Frequencies --    414.5202               472.6437               502.9162
 Red. masses --      2.3673                 5.3670                 3.5212
 Frc consts  --      0.2397                 0.7064                 0.5247
 IR Inten    --      0.4363                10.0519                 3.0459

                     19                     20                     21
                      A                      A                      A
 Frequencies --    514.0281               553.2478               637.7417
 Red. masses --      3.2082                 2.5793                 2.4397
 Frc consts  --      0.4994                 0.4651                 0.5846
 IR Inten    --      4.1619                20.2428                 1.6031

                     22                     23                     24
                      A                      A                      A
 Frequencies --    661.8051               696.8428               702.4834
 Red. masses --      1.4254                 5.1346                 2.0432
 Frc consts  --      0.3678                 1.4690                 0.5941
 IR Inten    --    114.9072                 4.0666                16.6345

                     25                     26                     27
                      A                      A                      A
 Frequencies --    783.3798               790.4424               826.1333
 Red. masses --      6.9150                 2.8831                 1.5869
 Frc consts  --      2.5003                 1.0613                 0.6381
 IR Inten    --     57.8343                 9.1424                 0.3679

                     28                     29                     30
                      A                      A                      A
 Frequencies --    872.4555               884.5946               919.4829
 Red. masses --      2.7836                 2.4196                 2.3151
 Frc consts  --      1.2484                 1.1155                 1.1532
 IR Inten    --      8.9409                 3.1881                 0.3403

                     31                     32                     33
                      A                      A                      A
 Frequencies --    955.8586               992.5022              1000.7203
 Red. masses --      3.3456                 1.2140                 1.3442
 Frc consts  --      1.8010                 0.7046                 0.7931
 IR Inten    --     32.5100                 1.2855                19.7694

                     34                     35                     36
                      A                      A                      A
 Frequencies --   1016.1992              1031.9519              1051.1836
 Red. masses --      2.1789                 1.5452                 2.1527
 Frc consts  --      1.3257                 0.9695                 1.4015
 IR Inten    --      6.9317                 2.7605                13.0391

                     37                     38                     39
                      A                      A                      A
 Frequencies --   1071.2036              1079.0164              1135.1063
 Red. masses --      2.0932                 1.8918                 1.7705
 Frc consts  --      1.4152                 1.2977                 1.3441
 IR Inten    --     14.6452                22.9549                14.6002

                     40                     41                     42
                      A                      A                      A
 Frequencies --   1147.0152              1183.3292              1184.8010
 Red. masses --      1.6811                 2.3568                 1.5000
 Frc consts  --      1.3031                 1.9444                 1.2406
 IR Inten    --     11.2967                28.8974                 3.8611

                     43                     44                     45
                      A                      A                      A
 Frequencies --   1197.7490              1227.4056              1296.7358
 Red. masses --      2.1925                 1.1329                 1.3260
 Frc consts  --      1.8532                 1.0056                 1.3137
 IR Inten    --     37.1026                 5.3717                12.0621

                     46                     47                     48
                      A                      A                      A
 Frequencies --   1321.5187              1344.1909              1353.6999
 Red. masses --      2.4387                 1.3129                 1.4503
 Frc consts  --      2.5093                 1.3976                 1.5659
 IR Inten    --     27.3008                12.2702                44.0487

                     49                     50                     51
                      A                      A                      A
 Frequencies --   1369.5449              1376.0366              1382.4725
 Red. masses --      1.3915                 2.1582                 1.2081
 Frc consts  --      1.5377                 2.4077                 1.3604
 IR Inten    --     17.1324               299.0918                 2.0074

                     52                     53                     54
                      A                      A                      A
 Frequencies --   1385.8608              1409.7249              1419.7499
 Red. masses --      1.2511                 1.4057                 1.4236
 Frc consts  --      1.4157                 1.6459                 1.6907
 IR Inten    --      1.3055                 1.2949                10.9696

                     55                     56                     57
                      A                      A                      A
 Frequencies --   1437.2159              1441.9451              1487.3733
 Red. masses --      1.9532                 1.5372                 1.2070
 Frc consts  --      2.3771                 1.8831                 1.5733
 IR Inten    --    106.9492                80.6126                 0.3400

                     58                     59                     60
                      A                      A                      A
 Frequencies --   1488.3468              1498.1021              1500.0688
 Red. masses --      1.0622                 1.3043                 1.0924
 Frc consts  --      1.3863                 1.7247                 1.4482
 IR Inten    --      1.9162                 7.1178                 4.1521

                     61                     62                     63
                      A                      A                      A
 Frequencies --   1510.9346              1516.4370              1517.3776
 Red. masses --      1.0625                 1.0805                 1.0568
 Frc consts  --      1.4291                 1.4639                 1.4337
 IR Inten    --      8.8251                 1.1181                14.5062

                     64                     65                     66
                      A                      A                      A
 Frequencies --   1527.9617              1538.8792              1547.1709
 Red. masses --      1.0874                 1.0595                 1.1059
 Frc consts  --      1.4958                 1.4783                 1.5596
 IR Inten    --      1.1387                 2.8498                 6.6870

                     67                     68                     69
                      A                      A                      A
 Frequencies --   1796.2157              2877.7138              2921.3520
 Red. masses --      6.4870                 1.0738                 1.0724
 Frc consts  --     12.3314                 5.2395                 5.3923
 IR Inten    --    417.3484                68.2818                40.9210

                     70                     71                     72
                      A                      A                      A
 Frequencies --   2941.0824              3052.1676              3063.7052
 Red. masses --      1.0623                 1.0640                 1.0638
 Frc consts  --      5.4141                 5.8399                 5.8831
 IR Inten    --    114.5093                16.4049                13.6129

                     73                     74                     75
                      A                      A                      A
 Frequencies --   3064.8160              3076.3608              3078.4548
 Red. masses --      1.0302                 1.0740                 1.0820
 Frc consts  --      5.7012                 5.9886                 6.0417
 IR Inten    --     18.3254                19.5393                60.5534

                     76                     77                     78
                      A                      A                      A
 Frequencies --   3083.0657              3107.7289              3110.0608
 Red. masses --      1.0836                 1.1006                 1.1044
 Frc consts  --      6.0688                 6.2629                 6.2941
 IR Inten    --     52.2560                16.8712                25.6034

                     79                     80                     81
                      A                      A                      A
 Frequencies --   3119.9984              3121.8580              3150.3610
 Red. masses --      1.0856                 1.1041                 1.1033
 Frc consts  --      6.2263                 6.3397                 6.4516
 IR Inten    --     23.9613                32.6435                 8.0290

                     82                     83                     84
                      A                      A                      A
 Frequencies --   3163.2508              3560.2177              3592.8538
 Red. masses --      1.1081                 1.0753                 1.0747
 Frc consts  --      6.5327                 8.0302                 8.1733
 IR Inten    --      9.4911                37.8412                23.4309

 - Thermochemistry -
 -------------------
 Temperature   298.150 Kelvin.  Pressure   1.00000 Atm.
 Atom     1 has atomic number  6 and mass  12.00000

 Molecular mass:   203.10923 amu.
 Principal axes and moments of inertia in atomic units:
                           1         2         3
     Eigenvalues --  1438.410024658.322655126.54348
           X            0.99982   0.01720  -0.00745
           Y           -0.01735   0.99963  -0.02098
           Z            0.00709   0.02111   0.99975
 This molecule is an asymmetric top.
 Rotational symmetry number  1.
 Warning -- assumption of classical behavior for rotation
           may cause significant error
 Rotational temperatures (Kelvin)      0.06022     0.01859     0.01690
 Rotational constants (GHZ):           1.25468     0.38742     0.35204
 Zero-point vibrational energy     688570.5 (Joules/Mol)
                                  164.57230 (Kcal/Mol)
 Warning -- explicit consideration of  20 degrees of freedom as
           vibrations may cause significant error
 Vibrational temperatures:     62.82    75.11   128.72   145.50   172.46
          (Kelvin)            212.36   240.10   272.57   334.12   374.35
                              380.60   412.38   491.46   529.93   571.09
                              596.40   680.03   723.58   739.57   796.00
                              917.57   952.19  1002.60  1010.72  1127.11
                             1137.27  1188.62  1255.27  1272.73  1322.93
                             1375.27  1427.99  1439.81  1462.08  1484.75
                             1512.42  1541.22  1552.46  1633.16  1650.30
                             1702.55  1704.66  1723.29  1765.96  1865.71
                             1901.37  1933.99  1947.67  1970.47  1979.81
                             1989.07  1993.94  2028.28  2042.70  2067.83
                             2074.64  2140.00  2141.40  2155.43  2158.26
                             2173.90  2181.81  2183.17  2198.40  2214.10
                             2226.03  2584.35  4140.39  4203.17  4231.56
                             4391.39  4407.99  4409.59  4426.20  4429.21
                             4435.84  4471.33  4474.68  4488.98  4491.66
                             4532.67  4551.21  5122.36  5169.32

 Zero-point correction=                           0.262263 (Hartree/Particle)
 Thermal correction to Energy=                    0.276300
 Thermal correction to Enthalpy=                  0.277244
 Thermal correction to Gibbs Free Energy=         0.221054
 Sum of electronic and zero-point Energies=           -952.547076
 Sum of electronic and thermal Energies=              -952.533038
 Sum of electronic and thermal Enthalpies=            -952.532094
 Sum of electronic and thermal Free Energies=         -952.588284

                     E (Thermal)             CV                S
                      KCal/Mol        Cal/Mol-Kelvin    Cal/Mol-Kelvin
 Total                  173.381             52.594            118.262
 Electronic               0.000              0.000              0.000
 Translational            0.889              2.981             41.830
 Rotational               0.889              2.981             31.908
 Vibrational            171.604             46.632             44.524
 Vibration     1          0.595              1.980              5.086
 Vibration     2          0.596              1.977              4.732
 Vibration     3          0.602              1.957              3.672
 Vibration     4          0.604              1.948              3.432
 Vibration     5          0.609              1.933              3.103
 Vibration     6          0.617              1.905              2.703
 Vibration     7          0.624              1.883              2.470
 Vibration     8          0.633              1.854              2.233
 Vibration     9          0.653              1.792              1.862
 Vibration    10          0.668              1.745              1.661
 Vibration    11          0.671              1.738              1.632
 Vibration    12          0.684              1.699              1.494
 Vibration    13          0.721              1.592              1.205
 Vibration    14          0.741              1.537              1.087
 Vibration    15          0.763              1.477              0.974
 Vibration    16          0.778              1.439              0.911
 Vibration    17          0.830              1.311              0.730
 Vibration    18          0.858              1.244              0.651
 Vibration    19          0.869              1.219              0.624
 Vibration    20          0.909              1.133              0.537

 Optimization completed.
    -- Stationary point found.
 Normal termination of Gaussian 16 at Mon Dec 14 18:59:18 2020.

 ----------------------------------------------------------------------
 # B3LYP/6-311++G(d,p) empiricaldispersion=gd3bj scf=xqc pop=npa geom=c
 heck
 ----------------------------------------------------------------------

 ---------------------------------------
 CID_123551846_JID_3721_Energie_neutraal
 ---------------------------------------
 Structure from the checkpoint file:  "JID_3721.chk"
 Charge =  0 Multiplicity = 1

 SCF Done:  E(RB3LYP) =  -953.002372065     A.U. after   15 cycles
 Normal termination of Gaussian 16 at Mon Dec 14 19:03:28 2020.

 ----------------------------------------------------------------------
 # B3LYP/6-311++G(d,p) empiricaldispersion=gd3bj scf=xqc pop=npa geom=c
 heck
 ----------------------------------------------------------------------

 -------------------------------------
 CID_123551846_JID_3721_Energie_kation
 -------------------------------------
 Structure from the checkpoint file:  "JID_3721.chk"
 Charge =  1 Multiplicity = 2

 SCF Done:  E(UB3LYP) =  -952.705869059     A.U. after   28 cycles
 Normal termination of Gaussian 16 at Mon Dec 14 19:14:06 2020.
 Gaussian 16:  ES64L-G16RevA.03 25-Dec-2016

 ----------------------------------------------------------------------
 # B3LYP/6-311++G(d,p) empiricaldispersion=gd3bj scf=xqc pop=npa geom=c
 heck
 ----------------------------------------------------------------------

 ------------------------------------
 CID_123551846_JID_3721_Energie_anion
 ------------------------------------
 Structure from the checkpoint file:  "JID_3721.chk"
 Charge = -1 Multiplicity = 2

                         Standard orientation:
 ---------------------------------------------------------------------
 Center     Atomic      Atomic             Coordinates (Angstroms)
 Number     Number       Type             X           Y           Z
 ---------------------------------------------------------------------
      1          6           0        4.273344    0.097835    0.647991
      2          7           0        2.995354   -0.479536    0.265749
      3          6           0        1.937889   -0.108859    1.206137
      4          6           0        0.632244   -0.828085    0.868860
      5          6           0        0.182020   -0.532029   -0.573280
      6          6           0        1.344542   -0.816154   -1.534349
      7          6           0        2.638432   -0.120240   -1.102252
      8          7           0       -0.250458    0.862193   -0.756328
      9          6           0       -1.194050    1.527789   -0.009851
     10          8           0       -1.106997    2.722102    0.247598
     11          7           0       -2.296716    0.798927    0.478130
     12         16           0       -3.152187   -0.419312   -0.399630
     13          6           0       -2.981475   -1.842904    0.728867
     14          1           0        4.268159    1.205752    0.642037
     15          1           0        4.540870   -0.234113    1.656754
     16          1           0        5.053297   -0.241539   -0.042184
     17          1           0        2.264118   -0.386786    2.214507
     18          1           0        1.769689    0.987475    1.215941
     19          1           0       -0.151254   -0.532509    1.574199
     20          1           0        0.787251   -1.909551    0.972052
     21          1           0       -0.656335   -1.176820   -0.841902
     22          1           0        1.071419   -0.511654   -2.550959
     23          1           0        1.521517   -1.897013   -1.543779
     24          1           0        2.546364    0.982392   -1.217710
     25          1           0        3.455413   -0.425499   -1.765950
     26          1           0        0.494212    1.509392   -0.984464
     27          1           0       -2.911977    1.448036    0.958985
     28          1           0       -3.566234   -2.654734    0.283768
     29          1           0       -1.939893   -2.158464    0.822341
     30          1           0       -3.390589   -1.607403    1.714063
 ---------------------------------------------------------------------

 SCF Done:  E(UB3LYP) =  -952.990874353     A.U. after   33 cycles
 SCF Done:  E(UB3LYP) =  -952.990874353     a.u. after    1 cycles

 The electronic state is 2-A.
 Alpha  occ. eigenvalues --  -88.77700 -18.99540 -14.25481 -14.23668 -14.21428
 Alpha  occ. eigenvalues --  -10.20493 -10.11619 -10.10417 -10.09794 -10.09525
 Alpha  occ. eigenvalues --  -10.09266 -10.07870 -10.07033  -7.86055  -5.82626
 Alpha  occ. eigenvalues --   -5.82057  -5.81304  -0.96062  -0.84714  -0.83392
 Alpha  occ. eigenvalues --   -0.81500  -0.69821  -0.67062  -0.66606  -0.60504
 Alpha  occ. eigenvalues --   -0.55743  -0.54118  -0.53204  -0.50934  -0.46823
 Alpha  occ. eigenvalues --   -0.41177  -0.40122  -0.38495  -0.38162  -0.37322
 Alpha  occ. eigenvalues --   -0.36919  -0.34912  -0.34061  -0.33284  -0.32862
 Alpha  occ. eigenvalues --   -0.32294  -0.30695  -0.30104  -0.30058  -0.27527
 Alpha  occ. eigenvalues --   -0.27221  -0.26390  -0.26092  -0.23761  -0.23067
 Alpha  occ. eigenvalues --   -0.18981  -0.17251  -0.16187  -0.14423  -0.13023
 Alpha  occ. eigenvalues --    0.04243
 Alpha virt. eigenvalues --    0.05889   0.07240   0.07661   0.08214   0.08934
 Alpha virt. eigenvalues --    0.09196   0.09418   0.10282   0.10704   0.11161
 Alpha virt. eigenvalues --    0.11633   0.12376   0.12618   0.13074   0.13812

  Beta  occ. eigenvalues --  -88.77686 -18.99523 -14.25470 -14.23666 -14.21421
  Beta  occ. eigenvalues --  -10.20469 -10.11614 -10.10400 -10.09782 -10.09499
  Beta  occ. eigenvalues --  -10.09183 -10.07856 -10.07015  -7.86042  -5.82600
  Beta  occ. eigenvalues --   -5.82036  -5.81297  -0.96025  -0.84693  -0.83364
  Beta  occ. eigenvalues --   -0.81475  -0.69789  -0.66977  -0.66576  -0.60463
  Beta  occ. eigenvalues --   -0.55631  -0.54059  -0.53163  -0.50891  -0.46785
  Beta  occ. eigenvalues --   -0.41128  -0.40094  -0.38447  -0.38114  -0.37287
  Beta  occ. eigenvalues --   -0.36881  -0.34872  -0.34007  -0.33230  -0.32798
  Beta  occ. eigenvalues --   -0.32252  -0.30639  -0.30055  -0.30013  -0.27474
  Beta  occ. eigenvalues --   -0.27142  -0.26337  -0.26055  -0.23726  -0.23035
  Beta  occ. eigenvalues --   -0.18933  -0.17224  -0.16150  -0.14382  -0.12986
  Beta virt. eigenvalues --    0.06423   0.07116   0.07777   0.07863   0.08775
  Beta virt. eigenvalues --    0.09270   0.09644   0.09959   0.10730   0.11112
  Beta virt. eigenvalues --    0.11466   0.12006   0.12534   0.12908   0.13394

 Mulliken charges and spin densities:
               1          2
     1  C    0.429066  -0.695482
     2  N   -0.094153   0.204590
     3  C    0.403140  -1.068817
     4  C   -0.100843  -0.227067
     5  C   -0.275978   0.644931
     6  C   -0.362831  -0.545538
     7  C    0.204508  -0.448949
     8  N   -0.157459   0.001273
     9  C    0.179358  -0.006576
    10  O   -0.344034   0.008426
    11  N   -0.451635   0.031883
    12  S    0.170235   0.107316
    13  C    0.987691  -1.653012
    14  H   -0.021548   0.122957
    15  H   -0.176250   0.301559
    16  H   -0.255561   0.389884
    17  H   -0.119182   0.317099
    18  H    0.165183  -0.000528
    19  H    0.217713  -0.076126
    20  H   -0.222887   0.425155
    21  H    0.147675   0.017149
    22  H   -0.045959   0.235036
    23  H   -0.122392   0.297515
    24  H    0.065669   0.004824
    25  H   -0.267177   0.461614
    26  H    0.301569  -0.021649
    27  H    0.334442   0.035244
    28  H   -0.743375   0.908546
    29  H   -0.561389   0.753832
    30  H   -0.283595   0.474909
 Sum of Mulliken charges =  -1.00000   1.00000

 Dipole moment (field-independent basis, Debye):
    X=              0.3240    Y=              4.6988    Z=             -1.3076  Tot=              4.8881
 Quadrupole moment (field-independent basis, Debye-Ang):
   XX=           -163.5353   YY=           -143.5504   ZZ=           -121.1582
   XY=             -7.0552   XZ=              3.6640   YZ=              2.0516

 Summary of Natural Population Analysis:

                                       Natural Population
                Natural  -----------------------------------------------
    Atom  No    Charge         Core      Valence    Rydberg      Total
 -----------------------------------------------------------------------
      C    1   -0.17494      0.99965     2.16679    0.00850     3.17494
      N    2   -0.28006      0.99971     2.76741    0.01294     3.78006
      C    3   -0.08585      0.99961     2.07483    0.01141     3.08585
      C    4   -0.20330      0.99960     2.19366    0.01004     3.20330
      C    5   -0.01743      0.99957     2.00330    0.01456     3.01743
      C    6   -0.19604      0.99960     2.18652    0.00992     3.19604
      C    7   -0.08483      0.99961     2.07342    0.01180     3.08483
      N    8   -0.33308      0.99966     2.82368    0.00973     3.83308
      C    9    0.41064      0.99970     1.56652    0.02314     2.58936
      O   10   -0.33266      0.99988     3.32764    0.00515     4.33266
      N   11   -0.40684      0.99969     2.89645    0.01071     3.90684
      S   12    0.19100      4.99962     2.78631    0.02308     7.80900
      C   13   -0.35081      0.99962     2.34373    0.00746     3.35081
      H   14    0.07847      0.00000     0.42026    0.00127     0.42153
      H   15    0.09626      0.00000     0.40257    0.00117     0.40374
      H   16    0.09660      0.00000     0.40210    0.00130     0.40340
      H   17    0.09957      0.00000     0.39925    0.00118     0.40043
      H   18    0.08025      0.00000     0.41827    0.00148     0.41975
      H   19    0.10592      0.00000     0.39257    0.00151     0.39408
      H   20    0.10524      0.00000     0.39256    0.00221     0.39476
      H   21    0.10774      0.00000     0.38917    0.00309     0.39226
      H   22    0.10242      0.00000     0.39659    0.00099     0.39758
      H   23    0.10792      0.00000     0.39048    0.00160     0.39208
      H   24    0.07172      0.00000     0.42668    0.00160     0.42828
      H   25    0.10161      0.00000     0.39686    0.00153     0.39839
      H   26    0.19280      0.00000     0.30481    0.00239     0.30720
      H   27    0.19630      0.00000     0.30198    0.00172     0.30370
      H   28    0.11079      0.00000     0.38610    0.00311     0.38921
      H   29    0.10537      0.00000     0.39159    0.00305     0.39463
      H   30    0.10521      0.00000     0.39232    0.00247     0.39479
 =======================================================================
   * Total *    0.00000     16.99552    37.81441    0.19008    55.00000

 Normal termination of Gaussian 16 at Mon Dec 14 19:25:49 2020.
