 Gaussian 16, Revision A.03,

 -----------------------------------------------------------
 # opt freq B3LYP/6-31G(d) empiricaldispersion=gd3bj scf=xqc
 -----------------------------------------------------------

 -------------------------------
 CID_121307799_JID_7372_neutraal
 -------------------------------
 Symbolic Z-matrix:
 Charge =  0 Multiplicity = 1

 SCF Done:  E(RB3LYP) =  -766.453546893     A.U. after   15 cycles
 SCF Done:  E(RB3LYP) =  -766.456399803     A.U. after   14 cycles
 SCF Done:  E(RB3LYP) =  -766.458304150     A.U. after   13 cycles
 SCF Done:  E(RB3LYP) =  -766.459079200     A.U. after   12 cycles
 SCF Done:  E(RB3LYP) =  -766.459301280     A.U. after   12 cycles
 SCF Done:  E(RB3LYP) =  -766.459312098     A.U. after   11 cycles
 SCF Done:  E(RB3LYP) =  -766.459479896     A.U. after   11 cycles
 SCF Done:  E(RB3LYP) =  -766.459486514     A.U. after    9 cycles
 SCF Done:  E(RB3LYP) =  -766.459488228     A.U. after    8 cycles
 SCF Done:  E(RB3LYP) =  -766.459488794     A.U. after    8 cycles
 SCF Done:  E(RB3LYP) =  -766.459489197     A.U. after    7 cycles
 SCF Done:  E(RB3LYP) =  -766.459489384     A.U. after    8 cycles
 Optimization completed.
    -- Stationary point found.
 Normal termination of Gaussian 16 at Fri Dec 11 12:00:34 2020.

 --------------------------------------------------------------------
 #N Geom=AllCheck Guess=TCheck SCRF=Check GenChk RB3LYP/6-31G(d) Freq
 --------------------------------------------------------------------

 Structure from the checkpoint file:  "JID_7372.chk"
 -------------------------------
 CID_121307799_JID_7372_neutraal
 -------------------------------
 Charge =  0 Multiplicity = 1

 SCF Done:  E(RB3LYP) =  -766.459489384     A.U. after    1 cycles

  Exact polarizability: 237.428  -4.966 163.799 -11.199   0.199  77.531
 Approx polarizability: 345.492   2.285 297.405 -28.648  -6.114 126.685

                      1                      2                      3
                      A                      A                      A
 Frequencies --     42.2234                55.2138                70.0636
 Red. masses --      5.4171                 4.7463                 5.2200
 Frc consts  --      0.0057                 0.0085                 0.0151
 IR Inten    --      0.0455                 0.1593                 0.2673

                      4                      5                      6
                      A                      A                      A
 Frequencies --    131.5335               155.3629               167.0582
 Red. masses --      5.8121                 3.1894                 1.1733
 Frc consts  --      0.0592                 0.0454                 0.0193
 IR Inten    --      1.0418                 0.1955                 1.5095

                      7                      8                      9
                      A                      A                      A
 Frequencies --    193.7563               242.5336               246.4454
 Red. masses --      3.8483                 4.4304                 6.9152
 Frc consts  --      0.0851                 0.1535                 0.2475
 IR Inten    --      0.5768                 0.7379                 0.7382

                     10                     11                     12
                      A                      A                      A
 Frequencies --    259.7299               312.6157               326.7833
 Red. masses --      5.5611                 3.4380                 6.3428
 Frc consts  --      0.2210                 0.1980                 0.3991
 IR Inten    --      2.3971                 0.5356                 4.0851

                     13                     14                     15
                      A                      A                      A
 Frequencies --    354.6438               419.8653               432.5486
 Red. masses --      1.1068                11.1341                 3.9874
 Frc consts  --      0.0820                 1.1564                 0.4396
 IR Inten    --    101.2271                 4.2256                 1.6226

                     16                     17                     18
                      A                      A                      A
 Frequencies --    450.4040               457.8010               484.3285
 Red. masses --      3.9939                 3.2542                 6.0518
 Frc consts  --      0.4774                 0.4018                 0.8364
 IR Inten    --     19.0024                 3.2218                 5.4760

                     19                     20                     21
                      A                      A                      A
 Frequencies --    513.9571               541.9608               557.7793
 Red. masses --      5.1527                 3.5037                 4.3334
 Frc consts  --      0.8019                 0.6063                 0.7943
 IR Inten    --      3.9422                 5.3487                 0.1957

                     22                     23                     24
                      A                      A                      A
 Frequencies --    570.3282               601.7989               651.7471
 Red. masses --      5.5882                 4.8595                 6.0740
 Frc consts  --      1.0710                 1.0369                 1.5201
 IR Inten    --      6.1191                 9.5393                40.6907

                     25                     26                     27
                      A                      A                      A
 Frequencies --    696.0871               706.8126               735.7076
 Red. masses --      4.7010                 5.5498                 4.6344
 Frc consts  --      1.3421                 1.6336                 1.4779
 IR Inten    --      8.3012                 2.6355                 4.4436

                     28                     29                     30
                      A                      A                      A
 Frequencies --    769.8558               783.3125               792.9506
 Red. masses --      1.6042                 2.5229                 3.0677
 Frc consts  --      0.5602                 0.9121                 1.1364
 IR Inten    --     58.7387                15.8599                14.1666

                     31                     32                     33
                      A                      A                      A
 Frequencies --    829.0834               839.0850               856.6070
 Red. masses --      1.2959                 4.4430                 1.6311
 Frc consts  --      0.5248                 1.8431                 0.7052
 IR Inten    --     94.5813                13.5332                18.5559

                     34                     35                     36
                      A                      A                      A
 Frequencies --    877.1787               900.3429               928.0550
 Red. masses --      1.4958                 5.5206                 1.3674
 Frc consts  --      0.6781                 2.6367                 0.6939
 IR Inten    --      1.1868                13.6816                12.7122

                     37                     38                     39
                      A                      A                      A
 Frequencies --    970.3108               971.7925               986.9357
 Red. masses --      1.2958                 1.3266                 1.3526
 Frc consts  --      0.7188                 0.7381                 0.7762
 IR Inten    --      1.0826                 1.9038                 3.4254

                     40                     41                     42
                      A                      A                      A
 Frequencies --    989.8945              1020.1805              1066.8498
 Red. masses --      3.0239                 1.6113                 2.1612
 Frc consts  --      1.7458                 0.9880                 1.4493
 IR Inten    --     22.9513                 4.9385                 6.2956

                     43                     44                     45
                      A                      A                      A
 Frequencies --   1073.1822              1141.0788              1144.3737
 Red. masses --      1.4640                 1.9228                 1.8000
 Frc consts  --      0.9935                 1.4751                 1.3889
 IR Inten    --      1.5466                 1.2601                 9.3949

                     46                     47                     48
                      A                      A                      A
 Frequencies --   1174.2646              1193.1673              1202.8585
 Red. masses --      1.4973                 1.1806                 1.4832
 Frc consts  --      1.2165                 0.9902                 1.2644
 IR Inten    --      5.8511                 1.4943               153.4614

                     49                     50                     51
                      A                      A                      A
 Frequencies --   1248.7960              1274.9482              1298.6309
 Red. masses --      2.0437                 1.7310                 2.9592
 Frc consts  --      1.8778                 1.6578                 2.9403
 IR Inten    --    397.1729                29.9519               104.2680

                     52                     53                     54
                      A                      A                      A
 Frequencies --   1325.4773              1339.8282              1360.7999
 Red. masses --      2.5391                 2.0698                 2.9376
 Frc consts  --      2.6283                 2.1891                 3.2050
 IR Inten    --    162.3008                 7.0054               141.7400

                     55                     56                     57
                      A                      A                      A
 Frequencies --   1380.6105              1398.8671              1442.1372
 Red. masses --      5.5392                 3.1641                 1.4189
 Frc consts  --      6.2207                 3.6480                 1.7386
 IR Inten    --    150.4810                 2.7864                25.4111

                     58                     59                     60
                      A                      A                      A
 Frequencies --   1443.4556              1464.2766              1499.8077
 Red. masses --      1.7184                 3.1155                 2.9911
 Frc consts  --      2.1095                 3.9358                 3.9642
 IR Inten    --     93.7848                 9.0351                36.8655

                     61                     62                     63
                      A                      A                      A
 Frequencies --   1520.6345              1529.7341              1542.9999
 Red. masses --      1.0426                 1.2756                 2.1411
 Frc consts  --      1.4205                 1.7587                 3.0034
 IR Inten    --      6.7235                23.9247               148.1039

                     64                     65                     66
                      A                      A                      A
 Frequencies --   1556.8968              1634.0560              1639.0351
 Red. masses --      2.3357                 5.9525                 3.3968
 Frc consts  --      3.3357                 9.3644                 5.3765
 IR Inten    --     31.7490               202.4312               100.5242

                     67                     68                     69
                      A                      A                      A
 Frequencies --   1663.2578              1675.3691              1692.9744
 Red. masses --      7.4951                 6.0589                 5.3614
 Frc consts  --     12.2165                10.0200                 9.0538
 IR Inten    --     77.1506                43.1031               190.6152

                     70                     71                     72
                      A                      A                      A
 Frequencies --   3021.5982              3065.9688              3136.0121
 Red. masses --      1.0418                 1.1011                 1.0954
 Frc consts  --      5.6043                 6.0983                 6.3469
 IR Inten    --     33.7931                21.0883                 7.8053

                     73                     74                     75
                      A                      A                      A
 Frequencies --   3190.7331              3205.4824              3208.9244
 Red. masses --      1.0867                 1.0900                 1.0907
 Frc consts  --      6.5183                 6.5986                 6.6171
 IR Inten    --      7.8414                10.9305                10.5310

                     76                     77                     78
                      A                      A                      A
 Frequencies --   3215.1426              3221.4390              3228.7977
 Red. masses --      1.0884                 1.0935                 1.0937
 Frc consts  --      6.6287                 6.6861                 6.7179
 IR Inten    --      3.6791                12.0821                 7.4001

                     79                     80                     81
                      A                      A                      A
 Frequencies --   3230.5429              3274.9097              3760.9896
 Red. masses --      1.0945                 1.0671                 1.0654
 Frc consts  --      6.7300                 6.7432                 8.8787
 IR Inten    --      4.4005               371.7010                64.3065

 - Thermochemistry -
 -------------------
 Temperature   298.150 Kelvin.  Pressure   1.00000 Atm.
 Atom     1 has atomic number  6 and mass  12.00000

 Molecular mass:   228.07864 amu.
 Principal axes and moments of inertia in atomic units:
                           1         2         3
     Eigenvalues --  1780.539056887.617168206.47818
           X            0.99999   0.00259   0.00430
           Y           -0.00266   0.99987   0.01615
           Z           -0.00426  -0.01616   0.99986
 This molecule is an asymmetric top.
 Rotational symmetry number  1.
 Warning -- assumption of classical behavior for rotation
           may cause significant error
 Rotational temperatures (Kelvin)      0.04864     0.01258     0.01055
 Rotational constants (GHZ):           1.01359     0.26203     0.21992
 Zero-point vibrational energy     601623.4 (Joules/Mol)
                                  143.79145 (Kcal/Mol)
 Warning -- explicit consideration of  23 degrees of freedom as
           vibrations may cause significant error
 Vibrational temperatures:     60.75    79.44   100.81   189.25   223.53
          (Kelvin)            240.36   278.77   348.95   354.58   373.69
                              449.78   470.17   510.25   604.09   622.34
                              648.03   658.67   696.84   739.47   779.76
                              802.52   820.58   865.85   937.72  1001.51
                             1016.95  1058.52  1107.65  1127.01  1140.88
                             1192.87  1207.26  1232.47  1262.06  1295.39
                             1335.26  1396.06  1398.19  1419.98  1424.24
                             1467.81  1534.96  1544.07  1641.76  1646.50
                             1689.50  1716.70  1730.65  1796.74  1834.37
                             1868.44  1907.07  1927.71  1957.89  1986.39
                             2012.66  2074.91  2076.81  2106.77  2157.89
                             2187.85  2200.95  2220.03  2240.03  2351.04
                             2358.21  2393.06  2410.48  2435.81  4347.41
                             4411.25  4512.02  4590.75  4611.97  4616.93
                             4625.87  4634.93  4645.52  4648.03  4711.86
                             5411.23

 Zero-point correction=                           0.229146 (Hartree/Particle)
 Thermal correction to Energy=                    0.243358
 Thermal correction to Enthalpy=                  0.244302
 Thermal correction to Gibbs Free Energy=         0.187781
 Sum of electronic and zero-point Energies=           -766.230343
 Sum of electronic and thermal Energies=              -766.216132
 Sum of electronic and thermal Enthalpies=            -766.215188
 Sum of electronic and thermal Free Energies=         -766.271709

                     E (Thermal)             CV                S
                      KCal/Mol        Cal/Mol-Kelvin    Cal/Mol-Kelvin
 Total                  152.709             56.235            118.959
 Electronic               0.000              0.000              0.000
 Translational            0.889              2.981             42.176
 Rotational               0.889              2.981             32.976
 Vibrational            150.932             50.273             43.808
 Vibration     1          0.595              1.980              5.152
 Vibration     2          0.596              1.975              4.621
 Vibration     3          0.598              1.968              4.152
 Vibration     4          0.612              1.922              2.923
 Vibration     5          0.620              1.897              2.605
 Vibration     6          0.624              1.883              2.468
 Vibration     7          0.635              1.849              2.192
 Vibration     8          0.659              1.775              1.784
 Vibration     9          0.661              1.769              1.756
 Vibration    10          0.668              1.746              1.664
 Vibration    11          0.701              1.650              1.348
 Vibration    12          0.710              1.622              1.276
 Vibration    13          0.730              1.566              1.145
 Vibration    14          0.783              1.427              0.892
 Vibration    15          0.793              1.399              0.850
 Vibration    16          0.809              1.360              0.795
 Vibration    17          0.816              1.344              0.773
 Vibration    18          0.840              1.285              0.698
 Vibration    19          0.869              1.219              0.624
 Vibration    20          0.897              1.157              0.561
 Vibration    21          0.913              1.123              0.528
 Vibration    22          0.926              1.095              0.504
 Vibration    23          0.960              1.028              0.447

 Optimization completed.
    -- Stationary point found.
 Normal termination of Gaussian 16 at Fri Dec 11 12:11:21 2020.

 ----------------------------------------------------------------------
 # B3LYP/6-311++G(d,p) empiricaldispersion=gd3bj scf=xqc pop=npa geom=c
 heck
 ----------------------------------------------------------------------

 ---------------------------------------
 CID_121307799_JID_7372_Energie_neutraal
 ---------------------------------------
 Structure from the checkpoint file:  "JID_7372.chk"
 Charge =  0 Multiplicity = 1

 SCF Done:  E(RB3LYP) =  -766.678775430     A.U. after   16 cycles
 Normal termination of Gaussian 16 at Fri Dec 11 12:16:36 2020.

 ----------------------------------------------------------------------
 # B3LYP/6-311++G(d,p) empiricaldispersion=gd3bj scf=xqc pop=npa geom=c
 heck
 ----------------------------------------------------------------------

 -------------------------------------
 CID_121307799_JID_7372_Energie_kation
 -------------------------------------
 Structure from the checkpoint file:  "JID_7372.chk"
 Charge =  1 Multiplicity = 2

 SCF Done:  E(UB3LYP) =  -766.383953513     A.U. after   24 cycles
 Normal termination of Gaussian 16 at Fri Dec 11 12:27:55 2020.
 Gaussian 16:  ES64L-G16RevA.03 25-Dec-2016

 ----------------------------------------------------------------------
 # B3LYP/6-311++G(d,p) empiricaldispersion=gd3bj scf=xqc pop=npa geom=c
 heck
 ----------------------------------------------------------------------

 ------------------------------------
 CID_121307799_JID_7372_Energie_anion
 ------------------------------------
 Structure from the checkpoint file:  "JID_7372.chk"
 Charge = -1 Multiplicity = 2

                         Standard orientation:
 ---------------------------------------------------------------------
 Center     Atomic      Atomic             Coordinates (Angstroms)
 Number     Number       Type             X           Y           Z
 ---------------------------------------------------------------------
      1          6           0        3.128879    2.127779    0.969702
      2          6           0        2.609934    0.828131    0.405272
      3          6           0        3.496851   -0.108290   -0.157298
      4          6           0        3.032501   -1.332038   -0.652475
      5          6           0        1.681048   -1.630980   -0.593997
      6          6           0        0.764954   -0.702184   -0.074433
      7          6           0        1.252192    0.512621    0.429059
      8          6           0       -0.664453   -1.099085    0.012313
      9          8           0       -0.930528   -2.300051    0.217140
     10          6           0       -1.747649   -0.109459   -0.129995
     11          6           0       -1.548191    1.163964   -0.703675
     12          6           0       -2.580992    2.081495   -0.806964
     13          6           0       -3.854373    1.738620   -0.327998
     14          6           0       -4.095812    0.484475    0.210502
     15          6           0       -3.062704   -0.463161    0.287977
     16          8           0       -3.363899   -1.677951    0.767451
     17          8           0        4.837912    0.120648   -0.238042
     18          1           0        3.846869    1.965773    1.786099
     19          1           0        3.627936    2.740414    0.205151
     20          1           0        2.310797    2.727768    1.376449
     21          1           0        3.750928   -2.030270   -1.068822
     22          1           0        1.310648   -2.585113   -0.952517
     23          1           0        0.564976    1.218576    0.883973
     24          1           0       -0.568697    1.412811   -1.095014
     25          1           0       -2.407329    3.051812   -1.260956
     26          1           0       -4.668729    2.454881   -0.396113
     27          1           0       -5.081076    0.193098    0.558833
     28          1           0       -2.547989   -2.233682    0.646402
     29          1           0        5.040686    0.991444    0.136185
 ---------------------------------------------------------------------

 SCF Done:  E(UB3LYP) =  -766.703256540     A.U. after   27 cycles

 The electronic state is 2-A.
 Alpha  occ. eigenvalues --  -19.05050 -18.99129 -18.92682 -10.10924 -10.09010
 Alpha  occ. eigenvalues --  -10.08498 -10.06815 -10.06620 -10.04986 -10.04806
 Alpha  occ. eigenvalues --  -10.04232 -10.03734 -10.03502 -10.03330 -10.03202
 Alpha  occ. eigenvalues --  -10.03021 -10.02919  -0.96240  -0.91643  -0.86189
 Alpha  occ. eigenvalues --   -0.73551  -0.71127  -0.66768  -0.63465  -0.61076
 Alpha  occ. eigenvalues --   -0.59881  -0.58496  -0.51686  -0.49319  -0.49068
 Alpha  occ. eigenvalues --   -0.46235  -0.43867  -0.42291  -0.38180  -0.37189
 Alpha  occ. eigenvalues --   -0.37103  -0.34084  -0.33238  -0.32314  -0.32027
 Alpha  occ. eigenvalues --   -0.30519  -0.29834  -0.29615  -0.29261  -0.28481
 Alpha  occ. eigenvalues --   -0.28298  -0.27081  -0.24944  -0.24654  -0.23601
 Alpha  occ. eigenvalues --   -0.23425  -0.21810  -0.20715  -0.20490  -0.19865
 Alpha  occ. eigenvalues --   -0.13469  -0.12324  -0.11063  -0.09539  -0.08805
 Alpha  occ. eigenvalues --    0.03232
 Alpha virt. eigenvalues --    0.06258   0.08680   0.09385   0.09732   0.10013
 Alpha virt. eigenvalues --    0.10710   0.10859   0.11463   0.12052   0.12319
 Alpha virt. eigenvalues --    0.13000   0.13146   0.13168   0.14440   0.15208

  Beta  occ. eigenvalues --  -19.04994 -18.99058 -18.92060 -10.10718 -10.08861
  Beta  occ. eigenvalues --  -10.08495 -10.06682 -10.06358 -10.05054 -10.04689
  Beta  occ. eigenvalues --  -10.04092 -10.03765 -10.03424 -10.03252 -10.03089
  Beta  occ. eigenvalues --  -10.03002 -10.02952  -0.96097  -0.91435  -0.85087
  Beta  occ. eigenvalues --   -0.73400  -0.70894  -0.66716  -0.63093  -0.60840
  Beta  occ. eigenvalues --   -0.59679  -0.58315  -0.51092  -0.49180  -0.48759
  Beta  occ. eigenvalues --   -0.46124  -0.43558  -0.42117  -0.37952  -0.37066
  Beta  occ. eigenvalues --   -0.36928  -0.34008  -0.33098  -0.32162  -0.31845
  Beta  occ. eigenvalues --   -0.30454  -0.29790  -0.29338  -0.28991  -0.28038
  Beta  occ. eigenvalues --   -0.27806  -0.26660  -0.24718  -0.24362  -0.23193
  Beta  occ. eigenvalues --   -0.22540  -0.21648  -0.20227  -0.19586  -0.18655
  Beta  occ. eigenvalues --   -0.13120  -0.11156  -0.10360  -0.08850  -0.08211
  Beta virt. eigenvalues --    0.06250   0.08649   0.09325   0.09475   0.09790
  Beta virt. eigenvalues --    0.10008   0.10840   0.11207   0.11911   0.12303
  Beta virt. eigenvalues --    0.12372   0.12998   0.13169   0.13607   0.14517

 Mulliken charges and spin densities:
               1          2
     1  C   -0.614874   0.007239
     2  C    0.856045  -0.039039
     3  C   -0.959967   0.132491
     4  C   -0.167403  -0.055058
     5  C    0.103903   0.137768
     6  C    1.003419  -0.040344
     7  C   -0.928796   0.071700
     8  C   -1.097958   0.264546
     9  O   -0.389291   0.222897
    10  C    1.688591  -0.022072
    11  C   -0.912082   0.122656
    12  C   -0.503541  -0.075881
    13  C   -0.215420   0.192957
    14  C   -0.249893  -0.039790
    15  C   -0.050079   0.121846
    16  O   -0.327994   0.020023
    17  O   -0.257896   0.010871
    18  H    0.132532  -0.000468
    19  H    0.135335  -0.000934
    20  H    0.170884  -0.000128
    21  H    0.148758   0.003257
    22  H    0.190493  -0.007370
    23  H    0.154984  -0.006379
    24  H    0.154468  -0.011887
    25  H    0.109089   0.009171
    26  H    0.107803  -0.014510
    27  H    0.131781   0.001067
    28  H    0.324692  -0.005001
    29  H    0.262419   0.000371
 Sum of Mulliken charges =  -1.00000   1.00000

 Dipole moment (field-independent basis, Debye):
    X=              5.1251    Y=              4.9029    Z=              0.2065  Tot=              7.0956
 Quadrupole moment (field-independent basis, Debye-Ang):
   XX=           -144.4374   YY=           -116.9182   ZZ=           -109.4011
   XY=              3.8287   XZ=              4.3238   YZ=              4.0404

 Summary of Natural Population Analysis:

                                       Natural Population
                Natural  -----------------------------------------------
    Atom  No    Charge         Core      Valence    Rydberg      Total
 -----------------------------------------------------------------------
      C    1   -0.30073      0.99965     2.29527    0.00582     3.30073
      C    2   -0.07817      0.99948     2.07090    0.00779     3.07817
      C    3    0.18875      0.99936     1.79994    0.01195     2.81125
      C    4   -0.14864      0.99954     2.13983    0.00927     3.14864
      C    5   -0.04694      0.99954     2.03839    0.00900     3.04694
      C    6   -0.06498      0.99949     2.05540    0.01009     3.06498
      C    7   -0.06029      0.99950     2.05287    0.00791     3.06029
      C    8    0.32068      0.99956     1.66111    0.01865     2.67932
      O    9   -0.26914      0.99987     3.26271    0.00656     4.26914
      C   10   -0.10744      0.99946     2.09955    0.00843     3.10744
      C   11   -0.04828      0.99956     2.04061    0.00811     3.04828
      C   12   -0.15683      0.99957     2.14726    0.01000     3.15683
      C   13   -0.04887      0.99958     2.04002    0.00927     3.04887
      C   14   -0.15142      0.99954     2.14207    0.00981     3.15142
      C   15    0.21125      0.99941     1.77603    0.01332     2.78875
      O   16   -0.35128      0.99987     3.34373    0.00768     4.35128
      O   17   -0.34257      0.99988     3.33616    0.00653     4.34257
      H   18    0.09468      0.00000     0.40391    0.00140     0.40532
      H   19    0.09429      0.00000     0.40432    0.00139     0.40571
      H   20    0.10815      0.00000     0.39102    0.00083     0.39185
      H   21    0.09848      0.00000     0.40039    0.00113     0.40152
      H   22    0.10525      0.00000     0.39352    0.00123     0.39475
      H   23    0.10090      0.00000     0.39805    0.00105     0.39910
      H   24    0.09759      0.00000     0.40091    0.00150     0.40241
      H   25    0.09126      0.00000     0.40763    0.00112     0.40874
      H   26    0.08652      0.00000     0.41241    0.00107     0.41348
      H   27    0.09610      0.00000     0.40220    0.00170     0.40390
      H   28    0.25121      0.00000     0.24530    0.00349     0.24879
      H   29    0.23046      0.00000     0.26717    0.00237     0.26954
 =======================================================================
   * Total *    0.00000     16.99285    42.82866    0.17849    60.00000

 Normal termination of Gaussian 16 at Fri Dec 11 12:40:59 2020.
