 Gaussian 16, Revision A.03,

 -----------------------------------------------------------
 # opt freq B3LYP/6-31G(d) empiricaldispersion=gd3bj scf=xqc
 -----------------------------------------------------------

 ------------------------------
 CID_64368559_JID_8245_neutraal
 ------------------------------
 Symbolic Z-matrix:
 Charge =  0 Multiplicity = 1

 SCF Done:  E(RB3LYP) =  -797.860664559     A.U. after   15 cycles
 SCF Done:  E(RB3LYP) =  -797.866650571     A.U. after   13 cycles
 SCF Done:  E(RB3LYP) =  -797.865974433     A.U. after   13 cycles
 SCF Done:  E(RB3LYP) =  -797.866719701     A.U. after   13 cycles
 SCF Done:  E(RB3LYP) =  -797.868810679     A.U. after   13 cycles
 SCF Done:  E(RB3LYP) =  -797.869374617     A.U. after   12 cycles
 SCF Done:  E(RB3LYP) =  -797.869757039     A.U. after   12 cycles
 SCF Done:  E(RB3LYP) =  -797.870100752     A.U. after   12 cycles
 SCF Done:  E(RB3LYP) =  -797.870298282     A.U. after   12 cycles
 SCF Done:  E(RB3LYP) =  -797.870420495     A.U. after   12 cycles
 SCF Done:  E(RB3LYP) =  -797.877183494     A.U. after   10 cycles
 SCF Done:  E(RB3LYP) =  -797.877188135     A.U. after   10 cycles
 SCF Done:  E(RB3LYP) =  -797.877191151     A.U. after    8 cycles
 SCF Done:  E(RB3LYP) =  -797.877192027     A.U. after    8 cycles
 SCF Done:  E(RB3LYP) =  -797.877192029     A.U. after    7 cycles
 Optimization completed.
    -- Stationary point found.
 Normal termination of Gaussian 16 at Fri Dec 11 20:10:26 2020.

 --------------------------------------------------------------------
 #N Geom=AllCheck Guess=TCheck SCRF=Check GenChk RB3LYP/6-31G(d) Freq
 --------------------------------------------------------------------

 Structure from the checkpoint file:  "JID_8245.chk"
 ------------------------------
 CID_64368559_JID_8245_neutraal
 ------------------------------
 Charge =  0 Multiplicity = 1

 SCF Done:  E(RB3LYP) =  -797.877192029     A.U. after    1 cycles

  Exact polarizability: 204.892  -8.113 163.336  25.840  11.512 126.673
 Approx polarizability: 286.431 -16.650 282.414  55.215  36.094 209.548

                      1                      2                      3
                      A                      A                      A
 Frequencies --     25.8629                39.7512                65.0197
 Red. masses --      3.9671                 3.8231                 4.0345
 Frc consts  --      0.0016                 0.0036                 0.0100
 IR Inten    --      1.8931                 1.1835                 0.5056

                      4                      5                      6
                      A                      A                      A
 Frequencies --     89.5076               141.9370               148.2273
 Red. masses --      3.4848                 1.5795                 1.9687
 Frc consts  --      0.0164                 0.0187                 0.0255
 IR Inten    --      2.1937                 2.3532                 0.5950

                      7                      8                      9
                      A                      A                      A
 Frequencies --    158.4071               176.9999               213.9042
 Red. masses --      3.1762                 3.9726                 2.4708
 Frc consts  --      0.0470                 0.0733                 0.0666
 IR Inten    --      1.2290                 5.2384                 1.8297

                     10                     11                     12
                      A                      A                      A
 Frequencies --    236.4355               246.9977               251.3617
 Red. masses --      1.4470                 1.1302                 2.8048
 Frc consts  --      0.0477                 0.0406                 0.1044
 IR Inten    --      1.1880                 0.2345                 1.0405

                     13                     14                     15
                      A                      A                      A
 Frequencies --    270.5894               293.8671               300.5892
 Red. masses --      3.2346                 1.1112                 2.4074
 Frc consts  --      0.1395                 0.0565                 0.1282
 IR Inten    --      0.1656                 0.4265                 2.0546

                     16                     17                     18
                      A                      A                      A
 Frequencies --    316.0795               341.3306               354.0664
 Red. masses --      3.5704                 1.9508                 2.1411
 Frc consts  --      0.2102                 0.1339                 0.1581
 IR Inten    --      0.5195                 4.2458                 1.5635

                     19                     20                     21
                      A                      A                      A
 Frequencies --    383.3877               391.4934               409.7028
 Red. masses --      1.7273                 2.1353                 2.7433
 Frc consts  --      0.1496                 0.1928                 0.2713
 IR Inten    --      1.5680                 5.4313                 4.9479

                     22                     23                     24
                      A                      A                      A
 Frequencies --    449.4254               472.3869               482.1393
 Red. masses --      2.6477                 2.5838                 2.2707
 Frc consts  --      0.3151                 0.3397                 0.3110
 IR Inten    --      6.9553                 0.5538                 0.9027

                     25                     26                     27
                      A                      A                      A
 Frequencies --    512.1644               536.6467               563.2415
 Red. masses --      4.3029                 4.4787                 3.9929
 Frc consts  --      0.6650                 0.7599                 0.7463
 IR Inten    --      2.3182                10.0551                 3.0714

                     28                     29                     30
                      A                      A                      A
 Frequencies --    565.5971               606.4871               652.9391
 Red. masses --      4.0611                 3.8894                 4.6462
 Frc consts  --      0.7654                 0.8429                 1.1671
 IR Inten    --      5.5546                10.8802                 6.5088

                     31                     32                     33
                      A                      A                      A
 Frequencies --    684.9028               695.5142               703.5407
 Red. masses --      7.3946                 3.4467                 4.9802
 Frc consts  --      2.0437                 0.9823                 1.4524
 IR Inten    --      2.2349                19.3669                 6.1088

                     34                     35                     36
                      A                      A                      A
 Frequencies --    728.2011               732.2902               746.3559
 Red. masses --      1.2891                 3.1695                 2.1919
 Frc consts  --      0.4027                 1.0014                 0.7194
 IR Inten    --     27.0476                51.9818                66.7454

                     37                     38                     39
                      A                      A                      A
 Frequencies --    770.0315               847.2453               893.8657
 Red. masses --      7.2378                 2.5187                 2.0476
 Frc consts  --      2.5286                 1.0653                 0.9639
 IR Inten    --     22.1798                20.9575                 1.9731

                     40                     41                     42
                      A                      A                      A
 Frequencies --    926.7118               928.7471               948.5344
 Red. masses --      4.7951                 1.3411                 1.4846
 Frc consts  --      2.4262                 0.6816                 0.7870
 IR Inten    --      6.4481                 5.0252                 0.3303

                     43                     44                     45
                      A                      A                      A
 Frequencies --    997.8028              1012.4964              1025.5527
 Red. masses --      2.1153                 1.9587                 1.5062
 Frc consts  --      1.2408                 1.1830                 0.9333
 IR Inten    --      9.2855                14.0617                 7.1923

                     46                     47                     48
                      A                      A                      A
 Frequencies --   1027.3846              1058.5232              1080.2399
 Red. masses --      1.9652                 2.2938                 1.4557
 Frc consts  --      1.2221                 1.5142                 1.0008
 IR Inten    --      4.9964                 2.5808                 1.8551

                     49                     50                     51
                      A                      A                      A
 Frequencies --   1082.5352              1105.9850              1119.2875
 Red. masses --      1.5530                 4.6656                 5.7497
 Frc consts  --      1.0723                 3.3624                 4.2440
 IR Inten    --     12.3505                 7.8862                48.2243

                     52                     53                     54
                      A                      A                      A
 Frequencies --   1132.2794              1134.9775              1173.6294
 Red. masses --      1.5146                 1.7744                 2.8295
 Frc consts  --      1.1441                 1.3467                 2.2963
 IR Inten    --     10.6195                 4.0754                 4.2903

                     55                     56                     57
                      A                      A                      A
 Frequencies --   1197.2450              1209.7494              1226.8764
 Red. masses --      1.5166                 1.9468                 2.2367
 Frc consts  --      1.2809                 1.6787                 1.9836
 IR Inten    --      6.0869                37.1964                10.6699

                     58                     59                     60
                      A                      A                      A
 Frequencies --   1246.5631              1282.1812              1294.1418
 Red. masses --      2.3487                 2.5368                 2.2552
 Frc consts  --      2.1503                 2.4572                 2.2254
 IR Inten    --     13.1056                12.9894                15.9322

                     61                     62                     63
                      A                      A                      A
 Frequencies --   1311.6244              1344.6182              1353.2211
 Red. masses --      2.5700                 1.8031                 4.2185
 Frc consts  --      2.6050                 1.9208                 4.5514
 IR Inten    --     20.1818                17.9269                15.1542

                     64                     65                     66
                      A                      A                      A
 Frequencies --   1386.8321              1412.9759              1424.0398
 Red. masses --      1.8040                 1.8961                 1.2596
 Frc consts  --      2.0442                 2.2303                 1.5050
 IR Inten    --     16.1306                11.3959                11.2095

                     67                     68                     69
                      A                      A                      A
 Frequencies --   1435.3181              1443.5960              1450.2118
 Red. masses --      1.2912                 1.3288                 1.6842
 Frc consts  --      1.5672                 1.6315                 2.0870
 IR Inten    --      1.2662                22.2857                 3.7574

                     70                     71                     72
                      A                      A                      A
 Frequencies --   1459.9824              1473.8739              1497.5269
 Red. masses --      5.5186                 1.1656                 2.2512
 Frc consts  --      6.9307                 1.4919                 2.9745
 IR Inten    --     35.3573                 2.0893                31.4914

                     73                     74                     75
                      A                      A                      A
 Frequencies --   1505.9238              1509.2787              1513.4812
 Red. masses --      1.2063                 1.0425                 1.0843
 Frc consts  --      1.6118                 1.3991                 1.4633
 IR Inten    --      2.0022                10.0275                26.0937

                     76                     77                     78
                      A                      A                      A
 Frequencies --   1515.5323              1518.9148              1522.2934
 Red. masses --      1.0726                 1.0609                 1.4199
 Frc consts  --      1.4515                 1.4421                 1.9386
 IR Inten    --      7.4481                 1.1235                 3.8782

                     79                     80                     81
                      A                      A                      A
 Frequencies --   1526.3625              1530.5179              1535.0825
 Red. masses --      1.1461                 1.4608                 1.7292
 Frc consts  --      1.5732                 2.0161                 2.4009
 IR Inten    --     10.0833                11.7200                15.5820

                     82                     83                     84
                      A                      A                      A
 Frequencies --   1537.4907              1545.4413              1550.4781
 Red. masses --      1.0931                 1.0698                 1.0724
 Frc consts  --      1.5225                 1.5054                 1.5189
 IR Inten    --     22.5732                 2.0548                15.1322

                     85                     86                     87
                      A                      A                      A
 Frequencies --   1556.1797              1559.5887              1601.5738
 Red. masses --      3.5044                 1.0676                 3.2365
 Frc consts  --      5.0001                 1.5299                 4.8912
 IR Inten    --     66.4826                 1.8349               514.9736

                     88                     89                     90
                      A                      A                      A
 Frequencies --   1665.4924              2940.5080              2968.1960
 Red. masses --      5.4543                 1.0628                 1.0606
 Frc consts  --      8.9140                 5.4143                 5.5056
 IR Inten    --     14.7283                80.9089               108.7548

                     91                     92                     93
                      A                      A                      A
 Frequencies --   3044.7234              3052.1624              3057.6831
 Red. masses --      1.0398                 1.0358                 1.0380
 Frc consts  --      5.6794                 5.6849                 5.7178
 IR Inten    --     25.0720                18.5546                12.6307

                     94                     95                     96
                      A                      A                      A
 Frequencies --   3075.9500              3085.2217              3090.9380
 Red. masses --      1.0694                 1.0812                 1.0743
 Frc consts  --      5.9615                 6.0633                 6.0475
 IR Inten    --     65.3953                14.5838                40.4437

                     97                     98                     99
                      A                      A                      A
 Frequencies --   3094.0129              3115.9089              3122.8361
 Red. masses --      1.1017                 1.1021                 1.1007
 Frc consts  --      6.2136                 6.3044                 6.3244
 IR Inten    --     14.7939                 4.9778                51.3996

                    100                    101                    102
                      A                      A                      A
 Frequencies --   3129.5285              3137.3982              3152.0194
 Red. masses --      1.1019                 1.1026                 1.0968
 Frc consts  --      6.3584                 6.3945                 6.4203
 IR Inten    --     18.6476                28.1670                23.2709

                    103                    104                    105
                      A                      A                      A
 Frequencies --   3163.3228              3163.9532              3178.5930
 Red. masses --      1.0977                 1.0968                 1.0937
 Frc consts  --      6.4716                 6.4688                 6.5105
 IR Inten    --      2.4800                 4.5833                 5.2891

                    106                    107                    108
                      A                      A                      A
 Frequencies --   3205.2096              3266.9521              3570.4840
 Red. masses --      1.0904                 1.0954                 1.0741
 Frc consts  --      6.6003                 6.8883                 8.0674
 IR Inten    --     23.5459                 3.1212                23.5982

 - Thermochemistry -
 -------------------
 Temperature   298.150 Kelvin.  Pressure   1.00000 Atm.
 Atom     1 has atomic number  6 and mass  12.00000

 Molecular mass:   248.17494 amu.
 Principal axes and moments of inertia in atomic units:
                           1         2         3
     Eigenvalues --  2445.184965794.635976542.63378
           X            0.99997   0.00152   0.00731
           Y           -0.00141   0.99987  -0.01627
           Z           -0.00734   0.01626   0.99984
 This molecule is an asymmetric top.
 Rotational symmetry number  1.
 Warning -- assumption of classical behavior for rotation
           may cause significant error
 Rotational temperatures (Kelvin)      0.03542     0.01495     0.01324
 Rotational constants (GHZ):           0.73808     0.31145     0.27584
 Zero-point vibrational energy     861389.0 (Joules/Mol)
                                  205.87691 (Kcal/Mol)
 Warning -- explicit consideration of  29 degrees of freedom as
           vibrations may cause significant error
 Vibrational temperatures:     37.21    57.19    93.55   128.78   204.22
          (Kelvin)            213.27   227.91   254.66   307.76   340.18
                              355.37   361.65   389.32   422.81   432.48
                              454.77   491.10   509.42   551.61   563.27
                              589.47   646.62   679.66   693.69   736.89
                              772.11   810.38   813.77   872.60   939.43
                              985.42  1000.69  1012.24  1047.72  1053.60
                             1073.84  1107.90  1219.00  1286.07  1333.33
                             1336.26  1364.73  1435.62  1456.76  1475.54
                             1478.18  1522.98  1554.22  1557.53  1591.27
                             1610.41  1629.10  1632.98  1688.59  1722.57
                             1740.56  1765.20  1793.53  1844.77  1861.98
                             1887.13  1934.61  1946.98  1995.34  2032.96
                             2048.88  2065.10  2077.01  2086.53  2100.59
                             2120.58  2154.61  2166.69  2171.52  2177.56
                             2180.51  2185.38  2190.24  2196.10  2202.07
                             2208.64  2212.11  2223.55  2230.79  2239.00
                             2243.90  2304.31  2396.27  4230.74  4270.57
                             4380.68  4391.38  4399.32  4425.61  4438.95
                             4447.17  4451.59  4483.10  4493.06  4502.69
                             4514.02  4535.05  4551.32  4552.22  4573.29
                             4611.58  4700.42  5137.13

 Zero-point correction=                           0.328086 (Hartree/Particle)
 Thermal correction to Energy=                    0.345522
 Thermal correction to Enthalpy=                  0.346466
 Thermal correction to Gibbs Free Energy=         0.283359
 Sum of electronic and zero-point Energies=           -797.549106
 Sum of electronic and thermal Energies=              -797.531670
 Sum of electronic and thermal Enthalpies=            -797.530726
 Sum of electronic and thermal Free Energies=         -797.593833

                     E (Thermal)             CV                S
                      KCal/Mol        Cal/Mol-Kelvin    Cal/Mol-Kelvin
 Total                  216.818             68.323            132.819
 Electronic               0.000              0.000              0.000
 Translational            0.889              2.981             42.427
 Rotational               0.889              2.981             32.894
 Vibrational            215.041             62.362             57.498
 Vibration     1          0.593              1.985              6.124
 Vibration     2          0.594              1.981              5.271
 Vibration     3          0.597              1.971              4.299
 Vibration     4          0.602              1.957              3.671
 Vibration     5          0.615              1.911              2.778
 Vibration     6          0.618              1.905              2.695
 Vibration     7          0.621              1.893              2.569
 Vibration     8          0.628              1.871              2.360
 Vibration     9          0.644              1.820              2.010
 Vibration    10          0.655              1.785              1.830
 Vibration    11          0.661              1.768              1.752
 Vibration    12          0.663              1.760              1.721
 Vibration    13          0.674              1.727              1.592
 Vibration    14          0.689              1.685              1.452
 Vibration    15          0.693              1.673              1.414
 Vibration    16          0.703              1.643              1.330
 Vibration    17          0.721              1.593              1.206
 Vibration    18          0.730              1.567              1.148
 Vibration    19          0.753              1.506              1.026
 Vibration    20          0.759              1.488              0.994
 Vibration    21          0.774              1.449              0.928
 Vibration    22          0.808              1.362              0.798
 Vibration    23          0.829              1.311              0.731
 Vibration    24          0.838              1.290              0.704
 Vibration    25          0.867              1.223              0.628
 Vibration    26          0.892              1.169              0.573
 Vibration    27          0.919              1.111              0.517
 Vibration    28          0.921              1.106              0.513
 Vibration    29          0.965              1.018              0.439

 Optimization completed.
    -- Stationary point found.
 Normal termination of Gaussian 16 at Fri Dec 11 20:28:28 2020.

 ----------------------------------------------------------------------
 # B3LYP/6-311++G(d,p) empiricaldispersion=gd3bj scf=xqc pop=npa geom=c
 heck
 ----------------------------------------------------------------------

 --------------------------------------
 CID_64368559_JID_8245_Energie_neutraal
 --------------------------------------
 Structure from the checkpoint file:  "JID_8245.chk"
 Charge =  0 Multiplicity = 1

 SCF Done:  E(RB3LYP) =  -798.090305738     A.U. after   15 cycles
 Normal termination of Gaussian 16 at Fri Dec 11 20:35:20 2020.

 ----------------------------------------------------------------------
 # B3LYP/6-311++G(d,p) empiricaldispersion=gd3bj scf=xqc pop=npa geom=c
 heck
 ----------------------------------------------------------------------

 ------------------------------------
 CID_64368559_JID_8245_Energie_kation
 ------------------------------------
 Structure from the checkpoint file:  "JID_8245.chk"
 Charge =  1 Multiplicity = 2

 SCF Done:  E(UB3LYP) =  -797.825034013     A.U. after   23 cycles
 Normal termination of Gaussian 16 at Fri Dec 11 20:49:53 2020.
 Gaussian 16:  ES64L-G16RevA.03 25-Dec-2016

 ----------------------------------------------------------------------
 # B3LYP/6-311++G(d,p) empiricaldispersion=gd3bj scf=xqc pop=npa geom=c
 heck
 ----------------------------------------------------------------------

 -----------------------------------
 CID_64368559_JID_8245_Energie_anion
 -----------------------------------
 Structure from the checkpoint file:  "JID_8245.chk"
 Charge = -1 Multiplicity = 2

                         Standard orientation:
 ---------------------------------------------------------------------
 Center     Atomic      Atomic             Coordinates (Angstroms)
 Number     Number       Type             X           Y           Z
 ---------------------------------------------------------------------
      1          6           0        4.304588   -1.345132    0.479835
      2          6           0        2.985265   -0.994795   -0.109364
      3          7           0        2.242700   -1.763201   -0.891673
      4          7           0        1.109747   -1.080878   -1.232547
      5          6           0        1.171241    0.105875   -0.640469
      6          7           0        2.351143    0.207118    0.079991
      7          6           0        2.704689    1.370219    0.748214
      8          6           0        1.829877    2.408450    0.653533
      9          7           0        0.638736    2.365475   -0.013245
     10          6           0        0.291776    1.248400   -0.632546
     11          7           0       -0.869461    1.249561   -1.349177
     12          6           0       -1.753021    0.095729   -1.467609
     13          6           0       -2.613116   -0.162789   -0.196561
     14          6           0       -3.366852    1.133839    0.145593
     15          6           0       -3.650380   -1.255911   -0.529062
     16          7           0       -1.696627   -0.537908    0.908769
     17          6           0       -2.180202   -0.280295    2.258924
     18          6           0       -1.185197   -1.905000    0.831603
     19          1           0        4.565432   -2.357745    0.166335
     20          1           0        4.281554   -1.313736    1.576257
     21          1           0        5.093759   -0.661753    0.141930
     22          1           0        3.644091    1.381575    1.282576
     23          1           0        2.061482    3.348607    1.145202
     24          1           0       -1.338859    2.142684   -1.246919
     25          1           0       -2.422839    0.281430   -2.314352
     26          1           0       -1.144979   -0.773499   -1.716962
     27          1           0       -3.876320    1.506812   -0.750199
     28          1           0       -4.132101    0.967498    0.908958
     29          1           0       -2.689469    1.913175    0.507419
     30          1           0       -3.178381   -2.156025   -0.934389
     31          1           0       -4.212097   -1.541187    0.367368
     32          1           0       -4.369293   -0.892143   -1.271406
     33          1           0       -3.084897   -0.858977    2.528583
     34          1           0       -1.391774   -0.562933    2.964164
     35          1           0       -2.389607    0.779508    2.411748
     36          1           0       -1.935823   -2.666646    1.108628
     37          1           0       -0.804787   -2.127209   -0.164915
     38          1           0       -0.340767   -2.002156    1.522590
 ---------------------------------------------------------------------

 SCF Done:  E(UB3LYP) =  -798.081875434     A.U. after   33 cycles
 SCF Done:  E(UB3LYP) =  -798.081875435     a.u. after    1 cycles

 The electronic state is 2-A.
 Alpha  occ. eigenvalues --  -14.27625 -14.21510 -14.20999 -14.20273 -14.20187
 Alpha  occ. eigenvalues --  -14.18189 -10.12761 -10.12525 -10.11871 -10.11287
 Alpha  occ. eigenvalues --  -10.09429 -10.09363 -10.09288 -10.08495 -10.08273
 Alpha  occ. eigenvalues --  -10.07671 -10.06607 -10.06594  -0.95578  -0.86091
 Alpha  occ. eigenvalues --   -0.83403  -0.81886  -0.77727  -0.71351  -0.69234
 Alpha  occ. eigenvalues --   -0.65334  -0.62105  -0.61401  -0.59147  -0.58226
 Alpha  occ. eigenvalues --   -0.55433  -0.54203  -0.52814  -0.49336  -0.44675
 Alpha  occ. eigenvalues --   -0.43234  -0.41885  -0.39405  -0.38308  -0.37990
 Alpha  occ. eigenvalues --   -0.36965  -0.36567  -0.36038  -0.34980  -0.33451
 Alpha  occ. eigenvalues --   -0.32730  -0.31834  -0.30927  -0.30544  -0.30433
 Alpha  occ. eigenvalues --   -0.29419  -0.29119  -0.28417  -0.27727  -0.27503
 Alpha  occ. eigenvalues --   -0.26295  -0.26110  -0.25415  -0.23897  -0.22629
 Alpha  occ. eigenvalues --   -0.20570  -0.17567  -0.15649  -0.14702  -0.14296
 Alpha  occ. eigenvalues --   -0.11615  -0.09520   0.04392
 Alpha virt. eigenvalues --    0.05914   0.06351   0.07493   0.07946   0.08559
 Alpha virt. eigenvalues --    0.09055   0.09657   0.09966   0.10393   0.10612
 Alpha virt. eigenvalues --    0.10850   0.11542   0.11800   0.12043   0.12940

  Beta  occ. eigenvalues --  -14.27512 -14.21461 -14.20915 -14.20273 -14.20042
  Beta  occ. eigenvalues --  -14.18122 -10.12558 -10.12500 -10.11901 -10.11281
  Beta  occ. eigenvalues --  -10.09422 -10.09332 -10.09199 -10.08472 -10.08241
  Beta  occ. eigenvalues --  -10.07663 -10.06592 -10.06570  -0.95415  -0.85863
  Beta  occ. eigenvalues --   -0.83253  -0.81806  -0.77570  -0.71255  -0.69188
  Beta  occ. eigenvalues --   -0.65140  -0.62015  -0.61353  -0.59044  -0.58172
  Beta  occ. eigenvalues --   -0.55232  -0.54081  -0.52755  -0.49213  -0.44611
  Beta  occ. eigenvalues --   -0.43131  -0.41801  -0.39350  -0.38193  -0.37743
  Beta  occ. eigenvalues --   -0.36847  -0.36453  -0.35949  -0.34927  -0.33418
  Beta  occ. eigenvalues --   -0.32644  -0.31676  -0.30887  -0.30493  -0.30385
  Beta  occ. eigenvalues --   -0.29388  -0.29022  -0.28381  -0.27674  -0.27265
  Beta  occ. eigenvalues --   -0.26190  -0.26001  -0.25163  -0.23674  -0.22196
  Beta  occ. eigenvalues --   -0.20418  -0.17072  -0.15507  -0.14532  -0.14006
  Beta  occ. eigenvalues --   -0.11506  -0.08895
  Beta virt. eigenvalues --    0.06321   0.06841   0.07736   0.08103   0.08310
  Beta virt. eigenvalues --    0.08802   0.09401   0.09903   0.10074   0.10589
  Beta virt. eigenvalues --    0.10739   0.11059   0.11755   0.11918   0.12169

 Mulliken charges and spin densities:
               1          2
     1  C    0.883892  -1.421898
     2  C   -0.534471   0.774007
     3  N    0.080699   0.055259
     4  N   -0.222787   0.060094
     5  C   -0.572196  -0.027874
     6  N    0.126526   0.088744
     7  C    0.455794  -0.235138
     8  C   -0.189523  -0.173958
     9  N   -0.041317   0.047416
    10  C   -0.260826   0.058280
    11  N    0.118921   0.040926
    12  C   -0.498620  -0.183897
    13  C   -1.097252   0.898557
    14  C    0.081878  -0.573166
    15  C    0.171722  -0.748403
    16  N    0.365387   0.034438
    17  C    0.454334  -0.735800
    18  C   -0.463087  -0.069727
    19  H    0.070305   0.103402
    20  H   -0.114783   0.274493
    21  H   -0.239454   0.403593
    22  H   -0.325856   0.479176
    23  H   -0.034307   0.197676
    24  H    0.263853  -0.004222
    25  H    0.122076   0.017571
    26  H    0.292633  -0.037188
    27  H   -0.050225   0.199948
    28  H   -0.197970   0.368623
    29  H    0.112729   0.069235
    30  H    0.087917   0.068911
    31  H    0.028891   0.134222
    32  H   -0.017206   0.155358
    33  H   -0.142706   0.276155
    34  H    0.044918   0.084611
    35  H   -0.065224   0.211162
    36  H    0.038421   0.062126
    37  H    0.093166   0.068515
    38  H    0.173746  -0.021229
 Sum of Mulliken charges =  -1.00000   1.00000

 Dipole moment (field-independent basis, Debye):
    X=             -2.6162    Y=             -0.2536    Z=             -0.5977  Tot=              2.6956
 Quadrupole moment (field-independent basis, Debye-Ang):
   XX=           -183.6906   YY=           -145.9913   ZZ=           -140.1545
   XY=              0.1816   XZ=              7.6098   YZ=             -5.2697

 Summary of Natural Population Analysis:

                                       Natural Population
                Natural  -----------------------------------------------
    Atom  No    Charge         Core      Valence    Rydberg      Total
 -----------------------------------------------------------------------
      C    1   -0.30744      0.99964     2.30233    0.00548     3.30744
      C    2    0.16371      0.99963     1.82022    0.01644     2.83629
      N    3   -0.14742      0.99969     2.63522    0.01251     3.64742
      N    4   -0.15497      0.99969     2.64129    0.01399     3.65497
      C    5    0.14636      0.99956     1.83906    0.01502     2.85364
      N    6   -0.17673      0.99958     2.66747    0.00968     3.67673
      C    7   -0.02173      0.99955     2.01011    0.01207     3.02173
      C    8   -0.00191      0.99958     1.98815    0.01418     3.00191
      N    9   -0.26835      0.99967     2.75773    0.01095     3.76835
      C   10    0.25005      0.99952     1.73453    0.01590     2.74995
      N   11   -0.29462      0.99967     2.78508    0.00987     3.79462
      C   12   -0.09520      0.99955     2.08249    0.01317     3.09520
      C   13    0.06857      0.99956     1.91855    0.01332     2.93143
      C   14   -0.29911      0.99962     2.29191    0.00758     3.29911
      C   15   -0.29950      0.99961     2.29297    0.00691     3.29950
      N   16   -0.28785      0.99970     2.77519    0.01297     3.78785
      C   17   -0.17570      0.99964     2.16763    0.00843     3.17570
      C   18   -0.18417      0.99964     2.17594    0.00859     3.18417
      H   19    0.11373      0.00000     0.38511    0.00116     0.38627
      H   20    0.10479      0.00000     0.39392    0.00129     0.39521
      H   21    0.10697      0.00000     0.39140    0.00163     0.39303
      H   22    0.10275      0.00000     0.39584    0.00141     0.39725
      H   23    0.09166      0.00000     0.40727    0.00108     0.40834
      H   24    0.18669      0.00000     0.31071    0.00260     0.31331
      H   25    0.09125      0.00000     0.40780    0.00095     0.40875
      H   26    0.11798      0.00000     0.38033    0.00170     0.38202
      H   27    0.09942      0.00000     0.39977    0.00081     0.40058
      H   28    0.10409      0.00000     0.39495    0.00096     0.39591
      H   29    0.10783      0.00000     0.39080    0.00137     0.39217
      H   30    0.10226      0.00000     0.39701    0.00073     0.39774
      H   31    0.10217      0.00000     0.39693    0.00089     0.39783
      H   32    0.09979      0.00000     0.39933    0.00088     0.40021
      H   33    0.07819      0.00000     0.42028    0.00152     0.42181
      H   34    0.09560      0.00000     0.40349    0.00091     0.40440
      H   35    0.09768      0.00000     0.40127    0.00106     0.40232
      H   36    0.07753      0.00000     0.42137    0.00111     0.42247
      H   37    0.10957      0.00000     0.38921    0.00122     0.39043
      H   38    0.09609      0.00000     0.40305    0.00086     0.40391
 =======================================================================
   * Total *    0.00000     17.99308    48.77572    0.23120    67.00000

 Normal termination of Gaussian 16 at Fri Dec 11 21:11:21 2020.
