 Gaussian 16, Revision A.03,

 -----------------------------------------------------------
 # opt freq B3LYP/6-31G(d) empiricaldispersion=gd3bj scf=xqc
 -----------------------------------------------------------

 -------------------------------
 CID_130566297_JID_4374_neutraal
 -------------------------------
 Symbolic Z-matrix:
 Charge =  0 Multiplicity = 1

 SCF Done:  E(RB3LYP) =  -601.152909541     A.U. after   13 cycles
 SCF Done:  E(RB3LYP) =  -601.156261701     A.U. after   11 cycles
 SCF Done:  E(RB3LYP) =  -601.155984697     A.U. after   11 cycles
 SCF Done:  E(RB3LYP) =  -601.156816879     A.U. after   10 cycles
 SCF Done:  E(RB3LYP) =  -601.157047215     A.U. after   10 cycles
 SCF Done:  E(RB3LYP) =  -601.157087228     A.U. after    9 cycles
 SCF Done:  E(RB3LYP) =  -601.157138851     A.U. after   10 cycles
 SCF Done:  E(RB3LYP) =  -601.157178810     A.U. after    9 cycles
 SCF Done:  E(RB3LYP) =  -601.157265492     A.U. after   10 cycles
 SCF Done:  E(RB3LYP) =  -601.157338455     A.U. after   10 cycles
 SCF Done:  E(RB3LYP) =  -601.157353971     A.U. after   10 cycles
 SCF Done:  E(RB3LYP) =  -601.157468564     A.U. after   10 cycles
 SCF Done:  E(RB3LYP) =  -601.157456574     A.U. after    9 cycles
 SCF Done:  E(RB3LYP) =  -601.157470367     A.U. after    9 cycles
 SCF Done:  E(RB3LYP) =  -601.157470801     A.U. after    8 cycles
 SCF Done:  E(RB3LYP) =  -601.157470805     A.U. after    7 cycles
 Optimization completed.
    -- Stationary point found.
 Normal termination of Gaussian 16 at Thu Dec 10 09:37:35 2020.

 --------------------------------------------------------------------
 #N Geom=AllCheck Guess=TCheck SCRF=Check GenChk RB3LYP/6-31G(d) Freq
 --------------------------------------------------------------------

 Structure from the checkpoint file:  "JID_4374.chk"
 -------------------------------
 CID_130566297_JID_4374_neutraal
 -------------------------------
 Charge =  0 Multiplicity = 1

 SCF Done:  E(RB3LYP) =  -601.157470805     A.U. after    1 cycles

  Exact polarizability: 146.461   1.830 128.112  -0.717   0.799 113.528
 Approx polarizability: 180.727   1.312 182.847   0.025  -1.149 176.602

                      1                      2                      3
                      A                      A                      A
 Frequencies --     52.4152                58.5728                91.2438
 Red. masses --      3.1307                 2.9619                 2.5850
 Frc consts  --      0.0051                 0.0060                 0.0127
 IR Inten    --      0.4038                 0.4620                 0.0749

                      4                      5                      6
                      A                      A                      A
 Frequencies --    122.8150               147.8243               157.7700
 Red. masses --      2.5966                 2.7393                 2.6140
 Frc consts  --      0.0231                 0.0353                 0.0383
 IR Inten    --      3.0652                16.7586                 0.6393

                      7                      8                      9
                      A                      A                      A
 Frequencies --    180.5865               222.1421               240.3442
 Red. masses --      2.7153                 1.4657                 1.3293
 Frc consts  --      0.0522                 0.0426                 0.0452
 IR Inten    --      0.2755                57.1085                 0.4466

                     10                     11                     12
                      A                      A                      A
 Frequencies --    257.8011               270.4844               310.5370
 Red. masses --      1.8041                 2.4445                 2.1744
 Frc consts  --      0.0706                 0.1054                 0.1235
 IR Inten    --     46.6823                 1.5607                 0.6984

                     13                     14                     15
                      A                      A                      A
 Frequencies --    324.4124               367.1141               387.9752
 Red. masses --      2.0403                 2.2128                 2.4095
 Frc consts  --      0.1265                 0.1757                 0.2137
 IR Inten    --      2.3362                 0.3177                 2.3388

                     16                     17                     18
                      A                      A                      A
 Frequencies --    412.9113               428.0939               452.8261
 Red. masses --      2.6011                 2.2851                 3.1169
 Frc consts  --      0.2613                 0.2467                 0.3766
 IR Inten    --      0.8528                 1.0873                 1.6428

                     19                     20                     21
                      A                      A                      A
 Frequencies --    477.3381               517.4870               589.5627
 Red. masses --      2.4901                 2.9002                 3.0540
 Frc consts  --      0.3343                 0.4576                 0.6254
 IR Inten    --      3.0172                 5.8893                40.9968

                     22                     23                     24
                      A                      A                      A
 Frequencies --    605.4350               639.8990               705.4764
 Red. masses --      2.5368                 1.8394                 2.2551
 Frc consts  --      0.5479                 0.4438                 0.6613
 IR Inten    --     18.9371                21.8677                16.1815

                     25                     26                     27
                      A                      A                      A
 Frequencies --    757.0953               798.3073               814.8218
 Red. masses --      1.7585                 1.5522                 2.2927
 Frc consts  --      0.5939                 0.5828                 0.8969
 IR Inten    --      0.9795                 1.2271                18.3242

                     28                     29                     30
                      A                      A                      A
 Frequencies --    833.9015               845.9769               891.3262
 Red. masses --      1.6290                 1.7732                 1.8880
 Frc consts  --      0.6674                 0.7477                 0.8837
 IR Inten    --      1.9006                 1.2416                 1.1286

                     31                     32                     33
                      A                      A                      A
 Frequencies --    908.9157               936.8355               945.6603
 Red. masses --      2.4385                 2.2467                 2.3191
 Frc consts  --      1.1869                 1.1618                 1.2219
 IR Inten    --      1.5640                 0.0740                 3.6569

                     34                     35                     36
                      A                      A                      A
 Frequencies --    970.5000               991.8812              1008.5615
 Red. masses --      2.2902                 1.5660                 1.9235
 Frc consts  --      1.2709                 0.9077                 1.1528
 IR Inten    --     18.4821                 2.6941                 4.0754

                     37                     38                     39
                      A                      A                      A
 Frequencies --   1013.9652              1030.4872              1040.7593
 Red. masses --      1.6667                 1.7080                 1.9889
 Frc consts  --      1.0096                 1.0686                 1.2693
 IR Inten    --      2.1450                 6.9701                 1.5634

                     40                     41                     42
                      A                      A                      A
 Frequencies --   1065.8614              1068.7089              1073.3023
 Red. masses --      2.9413                 1.7309                 2.1775
 Frc consts  --      1.9687                 1.1648                 1.4779
 IR Inten    --     12.7708                 0.3751                 3.6445

                     43                     44                     45
                      A                      A                      A
 Frequencies --   1090.0996              1096.1241              1116.2427
 Red. masses --      1.7712                 2.6966                 2.3917
 Frc consts  --      1.2401                 1.9089                 1.7558
 IR Inten    --     21.0361                57.4800                 3.8018

                     46                     47                     48
                      A                      A                      A
 Frequencies --   1133.7359              1145.1442              1178.6123
 Red. masses --      1.4507                 2.3445                 2.4980
 Frc consts  --      1.0986                 1.8114                 2.0445
 IR Inten    --      6.2207                 9.1114                 1.9714

                     49                     50                     51
                      A                      A                      A
 Frequencies --   1197.5600              1206.7634              1214.0862
 Red. masses --      1.5094                 1.6801                 1.2184
 Frc consts  --      1.2754                 1.4416                 1.0582
 IR Inten    --      2.7809                 3.2509                 3.6858

                     52                     53                     54
                      A                      A                      A
 Frequencies --   1232.6145              1248.9711              1254.1796
 Red. masses --      1.2776                 1.1817                 1.2530
 Frc consts  --      1.1436                 1.0860                 1.1613
 IR Inten    --      6.0135                 3.5392                44.7377

                     55                     56                     57
                      A                      A                      A
 Frequencies --   1284.3439              1292.3778              1306.3325
 Red. masses --      1.5997                 1.3212                 1.2711
 Frc consts  --      1.5547                 1.3002                 1.2780
 IR Inten    --      1.1959                 0.3762                 0.5229

                     58                     59                     60
                      A                      A                      A
 Frequencies --   1315.9988              1335.2498              1342.0468
 Red. masses --      1.2568                 1.3880                 1.3418
 Frc consts  --      1.2824                 1.4581                 1.4239
 IR Inten    --      0.3904                 0.4468                 7.8230

                     61                     62                     63
                      A                      A                      A
 Frequencies --   1359.9402              1374.5021              1382.1142
 Red. masses --      1.4375                 1.4131                 1.4284
 Frc consts  --      1.5664                 1.5730                 1.6077
 IR Inten    --      0.4543                 0.6889                 1.8005

                     64                     65                     66
                      A                      A                      A
 Frequencies --   1388.0575              1399.2422              1402.0250
 Red. masses --      1.3590                 1.4108                 1.4349
 Frc consts  --      1.5427                 1.6275                 1.6618
 IR Inten    --      1.6658                 4.1389                 2.0385

                     67                     68                     69
                      A                      A                      A
 Frequencies --   1404.0146              1415.7725              1429.6993
 Red. masses --      1.5071                 1.4546                 1.4843
 Frc consts  --      1.7503                 1.7178                 1.7875
 IR Inten    --      0.8308                 2.0806                 0.5657

                     70                     71                     72
                      A                      A                      A
 Frequencies --   1440.9919              1449.8558              1473.9492
 Red. masses --      1.2471                 1.3081                 1.4527
 Frc consts  --      1.5257                 1.6201                 1.8595
 IR Inten    --      2.9623                 4.5661                 1.1408

                     73                     74                     75
                      A                      A                      A
 Frequencies --   1508.7677              1519.0129              1520.0309
 Red. masses --      1.0796                 1.0840                 1.0786
 Frc consts  --      1.4480                 1.4736                 1.4683
 IR Inten    --      0.7566                 0.7435                 2.7471

                     76                     77                     78
                      A                      A                      A
 Frequencies --   1524.3278              1529.7754              1533.3199
 Red. masses --      1.0826                 1.0661                 1.0631
 Frc consts  --      1.4821                 1.4699                 1.4727
 IR Inten    --     10.7936                 6.9806                 4.3558

                     79                     80                     81
                      A                      A                      A
 Frequencies --   1535.6946              1545.3817              1547.9152
 Red. masses --      1.0795                 1.0787                 1.0853
 Frc consts  --      1.5000                 1.5178                 1.5321
 IR Inten    --      5.7899                 1.7492                 4.8136

                     82                     83                     84
                      A                      A                      A
 Frequencies --   1564.4562              2997.0034              3006.7706
 Red. masses --      1.0899                 1.0633                 1.0822
 Frc consts  --      1.5717                 5.6269                 5.7645
 IR Inten    --      1.3296                35.7792                28.4944

                     85                     86                     87
                      A                      A                      A
 Frequencies --   3015.8381              3028.4285              3031.6307
 Red. masses --      1.0686                 1.0691                 1.0646
 Frc consts  --      5.7264                 5.7773                 5.7648
 IR Inten    --     46.6354                12.3549                25.2549

                     88                     89                     90
                      A                      A                      A
 Frequencies --   3035.0880              3038.3084              3043.3716
 Red. masses --      1.0673                 1.0608                 1.0552
 Frc consts  --      5.7928                 5.7698                 5.7584
 IR Inten    --     32.4908                44.0197                34.1068

                     91                     92                     93
                      A                      A                      A
 Frequencies --   3044.5539              3044.7587              3047.8858
 Red. masses --      1.0857                 1.0603                 1.0813
 Frc consts  --      5.9293                 5.7915                 5.9180
 IR Inten    --     35.5252                25.5098                63.6748

                     94                     95                     96
                      A                      A                      A
 Frequencies --   3062.0342              3066.3881              3069.3417
 Red. masses --      1.0846                 1.0908                 1.0934
 Frc consts  --      5.9916                 6.0429                 6.0689
 IR Inten    --     88.8207                23.5407                33.2718

                     97                     98                     99
                      A                      A                      A
 Frequencies --   3075.7422              3079.2285              3092.5114
 Red. masses --      1.0946                 1.1009                 1.0918
 Frc consts  --      6.1011                 6.1503                 6.1518
 IR Inten    --     64.7632                58.7929                24.7069

                    100                    101                    102
                      A                      A                      A
 Frequencies --   3103.0920              3108.1469              3112.3284
 Red. masses --      1.1010                 1.1013                 1.0941
 Frc consts  --      6.2464                 6.2684                 6.2442
 IR Inten    --     44.5493                47.0330                29.3605

                    103                    104                    105
                      A                      A                      A
 Frequencies --   3114.7941              3559.1403              3760.5866
 Red. masses --      1.1016                 1.0763                 1.0665
 Frc consts  --      6.2970                 8.0327                 8.8864
 IR Inten    --     53.6182                 0.7454                15.9688

 - Thermochemistry -
 -------------------
 Temperature   298.150 Kelvin.  Pressure   1.00000 Atm.
 Atom     1 has atomic number  6 and mass  12.00000

 Molecular mass:   197.17796 amu.
 Principal axes and moments of inertia in atomic units:
                           1         2         3
     Eigenvalues --  1621.952953844.426984617.47865
           X            0.99999  -0.00268  -0.00473
           Y            0.00272   0.99995   0.00953
           Z            0.00471  -0.00955   0.99994
 This molecule is an asymmetric top.
 Rotational symmetry number  1.
 Warning -- assumption of classical behavior for rotation
           may cause significant error
 Rotational temperatures (Kelvin)      0.05340     0.02253     0.01876
 Rotational constants (GHZ):           1.11270     0.46944     0.39085
 Zero-point vibrational energy     901949.8 (Joules/Mol)
                                  215.57118 (Kcal/Mol)
 Warning -- explicit consideration of  22 degrees of freedom as
           vibrations may cause significant error
 Vibrational temperatures:     75.41    84.27   131.28   176.70   212.69
          (Kelvin)            227.00   259.82   319.61   345.80   370.92
                              389.17   446.79   466.76   528.20   558.21
                              594.09   615.93   651.52   686.78   744.55
                              848.25   871.09   920.67  1015.02  1089.29
                             1148.59  1172.35  1199.80  1217.17  1282.42
                             1307.73  1347.90  1360.59  1396.33  1427.10
                             1451.10  1458.87  1482.64  1497.42  1533.54
                             1537.63  1544.24  1568.41  1577.08  1606.02
                             1631.19  1647.61  1695.76  1723.02  1736.26
                             1746.80  1773.46  1796.99  1804.48  1847.88
                             1859.44  1879.52  1893.43  1921.13  1930.91
                             1956.65  1977.60  1988.55  1997.11  2013.20
                             2017.20  2020.06  2036.98  2057.02  2073.27
                             2086.02  2120.68  2170.78  2185.52  2186.99
                             2193.17  2201.01  2206.11  2209.52  2223.46
                             2227.10  2250.90  4312.02  4326.07  4339.12
                             4357.23  4361.84  4366.81  4371.45  4378.73
                             4380.43  4380.73  4385.23  4405.58  4411.85
                             4416.10  4425.31  4430.32  4449.43  4464.66
                             4471.93  4477.95  4481.49  5120.81  5410.65

 Zero-point correction=                           0.343535 (Hartree/Particle)
 Thermal correction to Energy=                    0.357915
 Thermal correction to Enthalpy=                  0.358859
 Thermal correction to Gibbs Free Energy=         0.303008
 Sum of electronic and zero-point Energies=           -600.813936
 Sum of electronic and thermal Energies=              -600.799556
 Sum of electronic and thermal Enthalpies=            -600.798612
 Sum of electronic and thermal Free Energies=         -600.854463

                     E (Thermal)             CV                S
                      KCal/Mol        Cal/Mol-Kelvin    Cal/Mol-Kelvin
 Total                  224.595             57.047            117.548
 Electronic               0.000              0.000              0.000
 Translational            0.889              2.981             41.742
 Rotational               0.889              2.981             31.732
 Vibrational            222.817             51.086             44.074
 Vibration     1          0.596              1.977              4.724
 Vibration     2          0.596              1.974              4.505
 Vibration     3          0.602              1.955              3.633
 Vibration     4          0.610              1.930              3.056
 Vibration     5          0.617              1.905              2.700
 Vibration     6          0.621              1.894              2.576
 Vibration     7          0.630              1.866              2.322
 Vibration     8          0.648              1.807              1.942
 Vibration     9          0.657              1.779              1.800
 Vibration    10          0.667              1.750              1.677
 Vibration    11          0.674              1.728              1.593
 Vibration    12          0.699              1.654              1.359
 Vibration    13          0.709              1.627              1.288
 Vibration    14          0.740              1.540              1.092
 Vibration    15          0.756              1.496              1.008
 Vibration    16          0.777              1.442              0.916
 Vibration    17          0.790              1.409              0.865
 Vibration    18          0.811              1.355              0.787
 Vibration    19          0.834              1.300              0.717
 Vibration    20          0.872              1.211              0.616
 Vibration    21          0.947              1.054              0.468
 Vibration    22          0.964              1.020              0.440

 Optimization completed.
    -- Stationary point found.
 Normal termination of Gaussian 16 at Thu Dec 10 09:52:04 2020.

 ----------------------------------------------------------------------
 # B3LYP/6-311++G(d,p) empiricaldispersion=gd3bj scf=xqc pop=npa geom=c
 heck
 ----------------------------------------------------------------------

 ---------------------------------------
 CID_130566297_JID_4374_Energie_neutraal
 ---------------------------------------
 Structure from the checkpoint file:  "JID_4374.chk"
 Charge =  0 Multiplicity = 1

 SCF Done:  E(RB3LYP) =  -601.336121785     A.U. after   14 cycles
 Normal termination of Gaussian 16 at Thu Dec 10 09:59:08 2020.

 ----------------------------------------------------------------------
 # B3LYP/6-311++G(d,p) empiricaldispersion=gd3bj scf=xqc pop=npa geom=c
 heck
 ----------------------------------------------------------------------

 -------------------------------------
 CID_130566297_JID_4374_Energie_kation
 -------------------------------------
 Structure from the checkpoint file:  "JID_4374.chk"
 Charge =  1 Multiplicity = 2

 SCF Done:  E(UB3LYP) =  -601.032651053     A.U. after   22 cycles
 Normal termination of Gaussian 16 at Thu Dec 10 10:14:45 2020.
 Gaussian 16:  ES64L-G16RevA.03 25-Dec-2016

 ----------------------------------------------------------------------
 # B3LYP/6-311++G(d,p) empiricaldispersion=gd3bj scf=xqc pop=npa geom=c
 heck
 ----------------------------------------------------------------------

 ------------------------------------
 CID_130566297_JID_4374_Energie_anion
 ------------------------------------
 Structure from the checkpoint file:  "JID_4374.chk"
 Charge = -1 Multiplicity = 2

                         Standard orientation:
 ---------------------------------------------------------------------
 Center     Atomic      Atomic             Coordinates (Angstroms)
 Number     Number       Type             X           Y           Z
 ---------------------------------------------------------------------
      1          6           0        4.313659   -0.687624   -0.161749
      2          6           0        3.183779    0.047157    0.564866
      3          6           0        2.153891    0.708469   -0.370983
      4          6           0        1.405502   -0.291130   -1.271179
      5          6           0        0.444646   -1.186303   -0.478521
      6          6           0       -0.599077   -0.392989    0.346558
      7          6           0        0.122841    0.672127    1.192784
      8          6           0        1.115964    1.538554    0.405067
      9          6           0       -1.401159   -1.362840    1.239159
     10          6           0       -2.358996   -2.060450    0.267430
     11          7           0       -2.654364   -1.040154   -0.756328
     12          6           0       -1.728878    0.108048   -0.608842
     13          6           0       -2.555832    1.297433   -0.113265
     14          8           0       -1.809868    2.501901   -0.274815
     15          1           0        3.943770   -1.556424   -0.717246
     16          1           0        5.068825   -1.048620    0.545571
     17          1           0        4.816520   -0.026538   -0.878622
     18          1           0        2.685532   -0.648227    1.251791
     19          1           0        3.616620    0.833349    1.198683
     20          1           0        2.714574    1.393382   -1.024576
     21          1           0        0.839660    0.278186   -2.020772
     22          1           0        2.108782   -0.915597   -1.834586
     23          1           0        1.020992   -1.821570    0.207425
     24          1           0       -0.067129   -1.869477   -1.167514
     25          1           0        0.654169    0.147555    1.999224
     26          1           0       -0.611630    1.319352    1.682979
     27          1           0        1.626934    2.222785    1.096006
     28          1           0        0.550350    2.160740   -0.295044
     29          1           0       -0.756439   -2.066241    1.776402
     30          1           0       -1.963886   -0.795205    1.990905
     31          1           0       -3.278643   -2.396836    0.762060
     32          1           0       -1.880930   -2.951007   -0.164922
     33          1           0       -2.611196   -1.429215   -1.690718
     34          1           0       -1.323027    0.396342   -1.585460
     35          1           0       -3.478847    1.321019   -0.708400
     36          1           0       -2.847094    1.142045    0.937979
     37          1           0       -2.346461    3.233364    0.063698
 ---------------------------------------------------------------------

 SCF Done:  E(UB3LYP) =  -601.321251632     A.U. after   30 cycles

 The electronic state is 2-A.
 Alpha  occ. eigenvalues --  -19.01537 -14.19182 -10.10301 -10.09146 -10.08814
 Alpha  occ. eigenvalues --  -10.07524 -10.06465 -10.06307 -10.06268 -10.06160
 Alpha  occ. eigenvalues --  -10.05855 -10.05823 -10.05463 -10.04917  -0.91600
 Alpha  occ. eigenvalues --   -0.81504  -0.73339  -0.68474  -0.64703  -0.63724
 Alpha  occ. eigenvalues --   -0.63425  -0.58659  -0.53825  -0.51582  -0.50576
 Alpha  occ. eigenvalues --   -0.47910  -0.45387  -0.42729  -0.41015  -0.39295
 Alpha  occ. eigenvalues --   -0.38272  -0.36395  -0.35619  -0.33765  -0.33269
 Alpha  occ. eigenvalues --   -0.32392  -0.32238  -0.30111  -0.29404  -0.28222
 Alpha  occ. eigenvalues --   -0.27321  -0.27107  -0.26731  -0.26410  -0.25730
 Alpha  occ. eigenvalues --   -0.24473  -0.23676  -0.23197  -0.22661  -0.21403
 Alpha  occ. eigenvalues --   -0.19975  -0.18907  -0.18471  -0.16912  -0.12360
 Alpha  occ. eigenvalues --    0.04417
 Alpha virt. eigenvalues --    0.06057   0.06678   0.07469   0.08435   0.08701
 Alpha virt. eigenvalues --    0.08988   0.09516   0.09912   0.11043   0.11136
 Alpha virt. eigenvalues --    0.11634   0.11883   0.12278   0.12802   0.13453

  Beta  occ. eigenvalues --  -19.01499 -14.19169 -10.10279 -10.09138 -10.08797
  Beta  occ. eigenvalues --  -10.07525 -10.06462 -10.06294 -10.06257 -10.06135
  Beta  occ. eigenvalues --  -10.05837 -10.05810 -10.05454 -10.04911  -0.91520
  Beta  occ. eigenvalues --   -0.81478  -0.73319  -0.68453  -0.64669  -0.63692
  Beta  occ. eigenvalues --   -0.63397  -0.58615  -0.53775  -0.51526  -0.50542
  Beta  occ. eigenvalues --   -0.47864  -0.45355  -0.42662  -0.40962  -0.39233
  Beta  occ. eigenvalues --   -0.38232  -0.36369  -0.35592  -0.33739  -0.33246
  Beta  occ. eigenvalues --   -0.32366  -0.32213  -0.30088  -0.29375  -0.28192
  Beta  occ. eigenvalues --   -0.27298  -0.27078  -0.26701  -0.26370  -0.25704
  Beta  occ. eigenvalues --   -0.24438  -0.23649  -0.23175  -0.22643  -0.21370
  Beta  occ. eigenvalues --   -0.19959  -0.18885  -0.18449  -0.16875  -0.12336
  Beta virt. eigenvalues --    0.06444   0.07207   0.07518   0.07848   0.08787
  Beta virt. eigenvalues --    0.09023   0.09323   0.09937   0.10313   0.11277
  Beta virt. eigenvalues --    0.11434   0.11953   0.12068   0.12404   0.13245

 Mulliken charges and spin densities:
               1          2
     1  C    0.632566  -1.273636
     2  C   -0.582736   0.263775
     3  C    0.460761   0.094787
     4  C    0.707740  -1.324458
     5  C   -1.048508   0.596323
     6  C    0.097778   0.679258
     7  C   -0.897309   0.955428
     8  C   -0.624718  -0.302471
     9  C    0.466127  -0.772445
    10  C    0.509541  -0.848205
    11  N   -0.217382   0.210659
    12  C   -0.542814  -0.683828
    13  C    1.412039  -1.619880
    14  O   -0.347753   0.091708
    15  H   -0.121503   0.253892
    16  H   -0.176336   0.307213
    17  H   -0.056594   0.185381
    18  H    0.134854  -0.020895
    19  H   -0.006745   0.146420
    20  H   -0.000530   0.195893
    21  H   -0.049028   0.160125
    22  H   -0.044395   0.232892
    23  H   -0.177232   0.364179
    24  H   -0.095804   0.264721
    25  H   -0.090315   0.265353
    26  H   -0.022603   0.216876
    27  H   -0.201170   0.349446
    28  H    0.341542  -0.112721
    29  H    0.023311   0.130848
    30  H    0.036686   0.109783
    31  H    0.084919   0.073212
    32  H   -0.331922   0.477994
    33  H   -0.080237   0.329725
    34  H    0.279950  -0.072187
    35  H    0.003194   0.157636
    36  H   -0.204964   0.371639
    37  H   -0.270409   0.545561
 Sum of Mulliken charges =  -1.00000   1.00000

 Dipole moment (field-independent basis, Debye):
    X=              0.9175    Y=             -0.9186    Z=              0.3551  Tot=              1.3460
 Quadrupole moment (field-independent basis, Debye-Ang):
   XX=           -158.4392   YY=           -144.0481   ZZ=           -121.0237
   XY=              8.8196   XZ=             -0.2626   YZ=             -5.2173

 Summary of Natural Population Analysis:

                                       Natural Population
                Natural  -----------------------------------------------
    Atom  No    Charge         Core      Valence    Rydberg      Total
 -----------------------------------------------------------------------
      C    1   -0.28351      0.99967     2.27961    0.00423     3.28351
      C    2   -0.19161      0.99962     2.18329    0.00870     3.19161
      C    3   -0.10690      0.99959     2.09768    0.00963     3.10690
      C    4   -0.18982      0.99961     2.18078    0.00943     3.18982
      C    5   -0.19284      0.99958     2.18164    0.01162     3.19284
      C    6   -0.03650      0.99954     2.02323    0.01374     3.03650
      C    7   -0.19059      0.99958     2.18078    0.01023     3.19059
      C    8   -0.19054      0.99961     2.18159    0.00935     3.19054
      C    9   -0.19357      0.99959     2.18468    0.00931     3.19357
      C   10   -0.08779      0.99963     2.07760    0.01056     3.08779
      N   11   -0.34914      0.99974     2.83783    0.01157     3.84914
      C   12   -0.01636      0.99954     2.00218    0.01465     3.01636
      C   13   -0.01069      0.99955     1.99756    0.01358     3.01069
      O   14   -0.37503      0.99989     3.36800    0.00714     4.37503
      H   15    0.09685      0.00000     0.40194    0.00120     0.40315
      H   16    0.09710      0.00000     0.40197    0.00093     0.40290
      H   17    0.09397      0.00000     0.40483    0.00120     0.40603
      H   18    0.09451      0.00000     0.40412    0.00137     0.40549
      H   19    0.09429      0.00000     0.40461    0.00110     0.40571
      H   20    0.09364      0.00000     0.40487    0.00149     0.40636
      H   21    0.09642      0.00000     0.40218    0.00140     0.40358
      H   22    0.09941      0.00000     0.39961    0.00099     0.40059
      H   23    0.09679      0.00000     0.40179    0.00142     0.40321
      H   24    0.10139      0.00000     0.39703    0.00158     0.39861
      H   25    0.09378      0.00000     0.40483    0.00139     0.40622
      H   26    0.10665      0.00000     0.39206    0.00129     0.39335
      H   27    0.09480      0.00000     0.40418    0.00102     0.40520
      H   28    0.11000      0.00000     0.38823    0.00177     0.39000
      H   29    0.10299      0.00000     0.39608    0.00093     0.39701
      H   30    0.09810      0.00000     0.40054    0.00135     0.40190
      H   31    0.08888      0.00000     0.40995    0.00117     0.41112
      H   32    0.08628      0.00000     0.41208    0.00164     0.41372
      H   33    0.17969      0.00000     0.31799    0.00232     0.32031
      H   34    0.09711      0.00000     0.40091    0.00198     0.40289
      H   35    0.08258      0.00000     0.41573    0.00169     0.41742
      H   36    0.07608      0.00000     0.42207    0.00185     0.42392
      H   37    0.23357      0.00000     0.25858    0.00785     0.26643
 =======================================================================
   * Total *   -0.00000     13.99472    40.82261    0.18267    55.00000

 Normal termination of Gaussian 16 at Thu Dec 10 10:35:48 2020.
