 Gaussian 16, Revision A.03,

 -----------------------------------------------------------
 # opt freq B3LYP/6-31G(d) empiricaldispersion=gd3bj scf=xqc
 -----------------------------------------------------------

 -------------------------------
 CID_141205916_JID_6486_neutraal
 -------------------------------
 Symbolic Z-matrix:
 Charge =  0 Multiplicity = 1

 SCF Done:  E(RB3LYP) =  -804.858402950     A.U. after   15 cycles
 SCF Done:  E(RB3LYP) =  -804.864252705     A.U. after   13 cycles
 SCF Done:  E(RB3LYP) =  -804.860986672     A.U. after   15 cycles
 SCF Done:  E(RB3LYP) =  -804.858422474     A.U. after   14 cycles
 SCF Done:  E(RB3LYP) =  -804.854938960     A.U. after   14 cycles
 SCF Done:  E(RB3LYP) =  -804.864618546     A.U. after   10 cycles
 SCF Done:  E(RB3LYP) =  -804.867976634     A.U. after   13 cycles
 SCF Done:  E(RB3LYP) =  -804.868669168     A.U. after   12 cycles
 SCF Done:  E(RB3LYP) =  -804.868975375     A.U. after   13 cycles
 SCF Done:  E(RB3LYP) =  -804.869208125     A.U. after   12 cycles
 SCF Done:  E(RB3LYP) =  -804.869377961     A.U. after   11 cycles
 SCF Done:  E(RB3LYP) =  -804.869384858     A.U. after   10 cycles
 SCF Done:  E(RB3LYP) =  -804.869392690     A.U. after    9 cycles
 SCF Done:  E(RB3LYP) =  -804.869395703     A.U. after    9 cycles
 SCF Done:  E(RB3LYP) =  -804.869396518     A.U. after    8 cycles
 SCF Done:  E(RB3LYP) =  -804.869396653     A.U. after    7 cycles
 Optimization completed.
    -- Stationary point found.
 Normal termination of Gaussian 16 at Thu Dec 10 23:19:24 2020.

 --------------------------------------------------------------------
 #N Geom=AllCheck Guess=TCheck SCRF=Check GenChk RB3LYP/6-31G(d) Freq
 --------------------------------------------------------------------

 Structure from the checkpoint file:  "JID_6486.chk"
 -------------------------------
 CID_141205916_JID_6486_neutraal
 -------------------------------
 Charge =  0 Multiplicity = 1

 SCF Done:  E(RB3LYP) =  -804.869396653     A.U. after    1 cycles

  Exact polarizability: 130.252 -10.342 130.516  -0.944   1.890 116.127
 Approx polarizability: 166.952 -19.943 188.878  -2.573   6.240 201.091

                      1                      2                      3
                      A                      A                      A
 Frequencies --     43.4075                54.3333                78.5169
 Red. masses --      4.5896                 3.7779                 3.5635
 Frc consts  --      0.0051                 0.0066                 0.0129
 IR Inten    --      0.8802                 0.1671                 0.8879

                      4                      5                      6
                      A                      A                      A
 Frequencies --     88.0388               119.0888               135.1246
 Red. masses --      3.6305                 2.4088                 4.4249
 Frc consts  --      0.0166                 0.0201                 0.0476
 IR Inten    --      0.5227                 1.4314                 6.5278

                      7                      8                      9
                      A                      A                      A
 Frequencies --    137.1815               147.7535               154.0627
 Red. masses --      1.3743                 3.2435                 2.4763
 Frc consts  --      0.0152                 0.0417                 0.0346
 IR Inten    --      4.9491                 0.3005                 6.0253

                     10                     11                     12
                      A                      A                      A
 Frequencies --    169.3206               188.5061               219.6598
 Red. masses --      1.6146                 4.6970                 3.8869
 Frc consts  --      0.0273                 0.0983                 0.1105
 IR Inten    --      4.7465                 0.7207                11.4618

                     13                     14                     15
                      A                      A                      A
 Frequencies --    237.7944               244.2434               305.9366
 Red. masses --      4.0730                 4.0602                 4.6364
 Frc consts  --      0.1357                 0.1427                 0.2557
 IR Inten    --     24.0278                 3.9194                 3.6981

                     16                     17                     18
                      A                      A                      A
 Frequencies --    333.0814               366.1974               405.2535
 Red. masses --      2.9921                 3.4240                 4.5813
 Frc consts  --      0.1956                 0.2705                 0.4433
 IR Inten    --      1.0335                 3.6260                 0.9107

                     19                     20                     21
                      A                      A                      A
 Frequencies --    420.1669               452.9164               463.7910
 Red. masses --      2.6125                 2.5293                 2.3647
 Frc consts  --      0.2717                 0.3057                 0.2997
 IR Inten    --      1.7175                 3.4286                21.3119

                     22                     23                     24
                      A                      A                      A
 Frequencies --    495.5066               558.7318               577.1886
 Red. masses --      2.6839                 5.2661                 5.8742
 Frc consts  --      0.3883                 0.9686                 1.1530
 IR Inten    --     13.3259                 0.4625                 4.8580

                     25                     26                     27
                      A                      A                      A
 Frequencies --    615.4103               668.9211               685.3544
 Red. masses --      5.5535                 4.6226                 3.7703
 Frc consts  --      1.2392                 1.2187                 1.0434
 IR Inten    --     10.0273                10.8618                 5.3248

                     28                     29                     30
                      A                      A                      A
 Frequencies --    728.7325               756.7126               810.0118
 Red. masses --      1.9076                 3.7881                 1.5295
 Frc consts  --      0.5968                 1.2780                 0.5913
 IR Inten    --     22.5335                20.5627                 5.0014

                     31                     32                     33
                      A                      A                      A
 Frequencies --    872.8816               934.4616               946.5038
 Red. masses --      3.1766                 3.9504                 4.6304
 Frc consts  --      1.4260                 2.0324                 2.4441
 IR Inten    --     53.2989                11.0396                15.6939

                     34                     35                     36
                      A                      A                      A
 Frequencies --    953.8463               957.1951               978.1221
 Red. masses --      4.4081                 4.3911                 2.2228
 Frc consts  --      2.3630                 2.3704                 1.2529
 IR Inten    --     21.1795                29.9370                 1.2917

                     37                     38                     39
                      A                      A                      A
 Frequencies --    987.7815               998.8294              1022.7510
 Red. masses --      1.3901                 1.3229                 2.5658
 Frc consts  --      0.7991                 0.7776                 1.5813
 IR Inten    --      6.2227                 0.5147                10.7616

                     40                     41                     42
                      A                      A                      A
 Frequencies --   1030.4514              1058.1932              1071.2352
 Red. masses --      3.1257                 6.4485                 4.9325
 Frc consts  --      1.9555                 4.2544                 3.3349
 IR Inten    --    214.3878               265.6008               188.7232

                     43                     44                     45
                      A                      A                      A
 Frequencies --   1113.0110              1122.9097              1132.4339
 Red. masses --      2.4811                 2.7040                 2.5665
 Frc consts  --      1.8109                 2.0088                 1.9391
 IR Inten    --     43.0411                25.6984                27.4671

                     46                     47                     48
                      A                      A                      A
 Frequencies --   1168.2718              1182.2281              1190.1128
 Red. masses --      2.0239                 1.5400                 1.7172
 Frc consts  --      1.6275                 1.2682                 1.4330
 IR Inten    --     60.3516                39.2857                42.7435

                     49                     50                     51
                      A                      A                      A
 Frequencies --   1196.5622              1198.7934              1215.8555
 Red. masses --      1.3800                 1.9125                 1.1608
 Frc consts  --      1.1641                 1.6193                 1.0110
 IR Inten    --     13.8100                66.4395                 2.8095

                     52                     53                     54
                      A                      A                      A
 Frequencies --   1241.5137              1249.6870              1278.4382
 Red. masses --      1.5611                 1.6344                 2.3246
 Frc consts  --      1.4177                 1.5039                 2.2385
 IR Inten    --     21.5059                 9.2575                 3.1450

                     55                     56                     57
                      A                      A                      A
 Frequencies --   1339.0074              1345.4081              1354.6009
 Red. masses --      1.1715                 1.3229                 1.2069
 Frc consts  --      1.2376                 1.4109                 1.3048
 IR Inten    --      2.6648                 4.4282                 0.3168

                     58                     59                     60
                      A                      A                      A
 Frequencies --   1390.8726              1408.7644              1436.5804
 Red. masses --      1.2142                 1.4891                 1.2602
 Frc consts  --      1.3839                 1.7412                 1.5323
 IR Inten    --      3.1528                 3.4733                 1.4086

                     61                     62                     63
                      A                      A                      A
 Frequencies --   1445.9257              1446.4642              1458.8336
 Red. masses --      1.2324                 1.1517                 1.5385
 Frc consts  --      1.5180                 1.4197                 1.9291
 IR Inten    --     16.2645                12.1277                18.8979

                     64                     65                     66
                      A                      A                      A
 Frequencies --   1497.8997              1499.2401              1515.8462
 Red. masses --      1.1479                 1.1380                 1.0491
 Frc consts  --      1.5175                 1.5070                 1.4203
 IR Inten    --      1.0092                 5.3024                 6.8617

                     67                     68                     69
                      A                      A                      A
 Frequencies --   1516.6699              1527.4931              1533.9649
 Red. masses --      1.0602                 1.0784                 1.0932
 Frc consts  --      1.4368                 1.4825                 1.5156
 IR Inten    --      2.7236                 1.8199                 1.9631

                     70                     71                     72
                      A                      A                      A
 Frequencies --   1536.1401              1538.4863              1664.0600
 Red. masses --      1.0680                 1.0548                 7.7641
 Frc consts  --      1.4848                 1.4709                12.6672
 IR Inten    --      1.9922                 5.3309                 0.7026

                     73                     74                     75
                      A                      A                      A
 Frequencies --   1732.6587              1818.4651              2999.6455
 Red. masses --      5.6912                10.0678                 1.0872
 Frc consts  --     10.0666                19.6153                 5.7639
 IR Inten    --      1.0497               116.2264                49.3758

                     76                     77                     78
                      A                      A                      A
 Frequencies --   3021.0638              3028.4586              3037.6591
 Red. masses --      1.0407                 1.0438                 1.0546
 Frc consts  --      5.5963                 5.6402                 5.7337
 IR Inten    --     57.9909                47.8649                69.6150

                     79                     80                     81
                      A                      A                      A
 Frequencies --   3048.1109              3086.2359              3089.1547
 Red. masses --      1.0642                 1.1059                 1.0995
 Frc consts  --      5.8257                 6.2062                 6.1818
 IR Inten    --     89.6326                35.3202                38.2255

                     82                     83                     84
                      A                      A                      A
 Frequencies --   3102.8924              3115.7549              3139.1864
 Red. masses --      1.0876                 1.0930                 1.1016
 Frc consts  --      6.1697                 6.2515                 6.3958
 IR Inten    --     27.9204                22.5516                16.2219

                     85                     86                     87
                      A                      A                      A
 Frequencies --   3163.5601              3165.5268              3177.6095
 Red. masses --      1.1043                 1.1000                 1.0855
 Frc consts  --      6.5116                 6.4946                 6.4578
 IR Inten    --     22.8815                13.5409                 4.9340

                     88                     89                     90
                      A                      A                      A
 Frequencies --   3191.8457              3204.0524              3239.8452
 Red. masses --      1.0891                 1.0974                 1.0941
 Frc consts  --      6.5376                 6.6377                 6.7666
 IR Inten    --     21.0493                26.0049                 4.1506

 - Thermochemistry -
 -------------------
 Temperature   298.150 Kelvin.  Pressure   1.00000 Atm.
 Atom     1 has atomic number  6 and mass  12.00000

 Molecular mass:   228.09977 amu.
 Principal axes and moments of inertia in atomic units:
                           1         2         3
     Eigenvalues --  2403.476993825.320074857.24572
           X            0.99994   0.01031  -0.00446
           Y           -0.01033   0.99994  -0.00342
           Z            0.00442   0.00347   0.99998
 This molecule is an asymmetric top.
 Rotational symmetry number  1.
 Warning -- assumption of classical behavior for rotation
           may cause significant error
 Rotational temperatures (Kelvin)      0.03604     0.02264     0.01783
 Rotational constants (GHZ):           0.75089     0.47179     0.37156
 Zero-point vibrational energy     697309.2 (Joules/Mol)
                                  166.66090 (Kcal/Mol)
 Warning -- explicit consideration of  25 degrees of freedom as
           vibrations may cause significant error
 Vibrational temperatures:     62.45    78.17   112.97   126.67   171.34
          (Kelvin)            194.41   197.37   212.58   221.66   243.61
                              271.22   316.04   342.13   351.41   440.17
                              479.23   526.88   583.07   604.53   651.65
                              667.29   712.92   803.89   830.45   885.44
                              962.43   986.07  1048.48  1088.74  1165.43
                             1255.88  1344.48  1361.81  1372.37  1377.19
                             1407.30  1421.20  1437.09  1471.51  1482.59
                             1522.50  1541.27  1601.37  1615.62  1629.32
                             1680.88  1700.96  1712.31  1721.59  1724.80
                             1749.34  1786.26  1798.02  1839.39  1926.53
                             1935.74  1948.97  2001.16  2026.90  2066.92
                             2080.36  2081.14  2098.94  2155.14  2157.07
                             2180.96  2182.15  2197.72  2207.03  2210.16
                             2213.54  2394.21  2492.91  2616.37  4315.82
                             4346.64  4357.28  4370.51  4385.55  4440.41
                             4444.60  4464.37  4482.88  4516.59  4551.66
                             4554.49  4571.87  4592.35  4609.92  4661.41

 Zero-point correction=                           0.265591 (Hartree/Particle)
 Thermal correction to Energy=                    0.281964
 Thermal correction to Enthalpy=                  0.282909
 Thermal correction to Gibbs Free Energy=         0.221746
 Sum of electronic and zero-point Energies=           -804.603806
 Sum of electronic and thermal Energies=              -804.587432
 Sum of electronic and thermal Enthalpies=            -804.586488
 Sum of electronic and thermal Free Energies=         -804.647651

                     E (Thermal)             CV                S
                      KCal/Mol        Cal/Mol-Kelvin    Cal/Mol-Kelvin
 Total                  176.935             60.189            128.727
 Electronic               0.000              0.000              0.000
 Translational            0.889              2.981             42.176
 Rotational               0.889              2.981             32.168
 Vibrational            175.158             54.227             54.383
 Vibration     1          0.595              1.980              5.097
 Vibration     2          0.596              1.976              4.653
 Vibration     3          0.600              1.964              3.928
 Vibration     4          0.601              1.958              3.703
 Vibration     5          0.609              1.933              3.115
 Vibration     6          0.613              1.918              2.872
 Vibration     7          0.614              1.916              2.843
 Vibration     8          0.617              1.905              2.701
 Vibration     9          0.620              1.898              2.621
 Vibration    10          0.625              1.880              2.443
 Vibration    11          0.633              1.856              2.242
 Vibration    12          0.647              1.811              1.962
 Vibration    13          0.656              1.783              1.819
 Vibration    14          0.660              1.772              1.772
 Vibration    15          0.696              1.662              1.384
 Vibration    16          0.715              1.609              1.245
 Vibration    17          0.739              1.542              1.096
 Vibration    18          0.770              1.459              0.944
 Vibration    19          0.783              1.426              0.891
 Vibration    20          0.811              1.354              0.787
 Vibration    21          0.821              1.330              0.755
 Vibration    22          0.851              1.260              0.669
 Vibration    23          0.914              1.121              0.526
 Vibration    24          0.934              1.081              0.491
 Vibration    25          0.975              0.999              0.424

 Optimization completed.
    -- Stationary point found.
 Normal termination of Gaussian 16 at Thu Dec 10 23:31:32 2020.

 ----------------------------------------------------------------------
 # B3LYP/6-311++G(d,p) empiricaldispersion=gd3bj scf=xqc pop=npa geom=c
 heck
 ----------------------------------------------------------------------

 ---------------------------------------
 CID_141205916_JID_6486_Energie_neutraal
 ---------------------------------------
 Structure from the checkpoint file:  "JID_6486.chk"
 Charge =  0 Multiplicity = 1

 SCF Done:  E(RB3LYP) =  -805.105310906     A.U. after   14 cycles
 Normal termination of Gaussian 16 at Thu Dec 10 23:36:35 2020.

 ----------------------------------------------------------------------
 # B3LYP/6-311++G(d,p) empiricaldispersion=gd3bj scf=xqc pop=npa geom=c
 heck
 ----------------------------------------------------------------------

 -------------------------------------
 CID_141205916_JID_6486_Energie_kation
 -------------------------------------
 Structure from the checkpoint file:  "JID_6486.chk"
 Charge =  1 Multiplicity = 2

 SCF Done:  E(UB3LYP) =  -804.798013124     A.U. after   22 cycles
 Normal termination of Gaussian 16 at Thu Dec 10 23:47:54 2020.
 Gaussian 16:  ES64L-G16RevA.03 25-Dec-2016

 ----------------------------------------------------------------------
 # B3LYP/6-311++G(d,p) empiricaldispersion=gd3bj scf=xqc pop=npa geom=c
 heck
 ----------------------------------------------------------------------

 ------------------------------------
 CID_141205916_JID_6486_Energie_anion
 ------------------------------------
 Structure from the checkpoint file:  "JID_6486.chk"
 Charge = -1 Multiplicity = 2

                         Standard orientation:
 ---------------------------------------------------------------------
 Center     Atomic      Atomic             Coordinates (Angstroms)
 Number     Number       Type             X           Y           Z
 ---------------------------------------------------------------------
      1          6           0        2.180469    2.718780   -0.012048
      2          8           0        2.257870    1.370764    0.437595
      3          6           0        2.618111    0.460488   -0.564174
      4          8           0        1.559884    0.163629   -1.452205
      5          6           0        0.593968   -0.819949   -1.018585
      6          6           0        1.243109   -2.151097   -0.746641
      7          6           0        1.446242   -2.580486    0.508766
      8          6           0        1.034387   -1.775495    1.659853
      9          6           0        0.261149   -0.692276    1.508816
     10          6           0       -0.300631   -0.344889    0.156607
     11          6           0       -0.604553    1.167636    0.063728
     12          8           0       -0.872600    1.841011    1.033858
     13          8           0       -1.555837   -1.090477    0.108018
     14          6           0       -2.479770   -0.766322   -0.903531
     15          8           0       -3.026983    0.516386   -0.790397
     16          6           0       -3.786879    0.716847    0.399518
     17          1           0        1.716076    3.292241    0.791665
     18          1           0        1.565846    2.809508   -0.915468
     19          1           0        3.184195    3.116839   -0.220037
     20          1           0        3.412445    0.871152   -1.200618
     21          1           0        2.964039   -0.438919   -0.050381
     22          1           0       -0.047585   -0.909736   -1.898767
     23          1           0        1.594544   -2.716088   -1.605354
     24          1           0        1.949951   -3.526464    0.692449
     25          1           0        1.391700   -2.063455    2.645031
     26          1           0       -0.033848   -0.056548    2.334936
     27          1           0       -0.572168    1.602397   -0.950514
     28          1           0       -2.037833   -0.796971   -1.906136
     29          1           0       -3.252884   -1.541048   -0.811767
     30          1           0       -4.555034   -0.062559    0.503287
     31          1           0       -3.144831    0.718083    1.285533
     32          1           0       -4.266890    1.691638    0.297329
 ---------------------------------------------------------------------

 SCF Done:  E(UB3LYP) =  -805.107755903     A.U. after   30 cycles

 The electronic state is 2-A.
 Alpha  occ. eigenvalues --  -19.01825 -19.00469 -18.99225 -18.98981 -18.96457
 Alpha  occ. eigenvalues --  -10.14160 -10.13115 -10.09975 -10.09913 -10.09682
 Alpha  occ. eigenvalues --  -10.08290 -10.08064 -10.00973 -10.00221  -9.99808
 Alpha  occ. eigenvalues --   -9.99245  -0.95021  -0.93990  -0.89896  -0.88394
 Alpha  occ. eigenvalues --   -0.87719  -0.68035  -0.61683  -0.61208  -0.59159
 Alpha  occ. eigenvalues --   -0.58080  -0.53021  -0.50332  -0.48666  -0.45146
 Alpha  occ. eigenvalues --   -0.42321  -0.39929  -0.39074  -0.37671  -0.37508
 Alpha  occ. eigenvalues --   -0.37158  -0.36259  -0.34512  -0.32853  -0.31594
 Alpha  occ. eigenvalues --   -0.31582  -0.30064  -0.29399  -0.29012  -0.27240
 Alpha  occ. eigenvalues --   -0.26496  -0.25929  -0.24749  -0.24319  -0.23178
 Alpha  occ. eigenvalues --   -0.20913  -0.19273  -0.18848  -0.18068  -0.17224
 Alpha  occ. eigenvalues --   -0.16144  -0.16032  -0.15246  -0.12994  -0.10049
 Alpha  occ. eigenvalues --   -0.07634   0.05486
 Alpha virt. eigenvalues --    0.08220   0.08629   0.09621   0.10165   0.10618
 Alpha virt. eigenvalues --    0.10816   0.11316   0.11964   0.12297   0.12537
 Alpha virt. eigenvalues --    0.13351   0.13738   0.14273   0.15038   0.15159

  Beta  occ. eigenvalues --  -19.01809 -19.00433 -18.99115 -18.98770 -18.96256
  Beta  occ. eigenvalues --  -10.14143 -10.13115 -10.09972 -10.09751 -10.09677
  Beta  occ. eigenvalues --  -10.08298 -10.08074 -10.00854 -10.00133  -9.99498
  Beta  occ. eigenvalues --   -9.98929  -0.94897  -0.93894  -0.89545  -0.88143
  Beta  occ. eigenvalues --   -0.87449  -0.67590  -0.61442  -0.61070  -0.58868
  Beta  occ. eigenvalues --   -0.57777  -0.52831  -0.50141  -0.48240  -0.44769
  Beta  occ. eigenvalues --   -0.41911  -0.39715  -0.38936  -0.37592  -0.37387
  Beta  occ. eigenvalues --   -0.37099  -0.36078  -0.34344  -0.32611  -0.31481
  Beta  occ. eigenvalues --   -0.31453  -0.29890  -0.29187  -0.28911  -0.27010
  Beta  occ. eigenvalues --   -0.26208  -0.25779  -0.24598  -0.23951  -0.22763
  Beta  occ. eigenvalues --   -0.20648  -0.19058  -0.18644  -0.17856  -0.16557
  Beta  occ. eigenvalues --   -0.15952  -0.15529  -0.14689  -0.12767  -0.09826
  Beta  occ. eigenvalues --   -0.05891
  Beta virt. eigenvalues --    0.08146   0.08568   0.09566   0.09981   0.10632
  Beta virt. eigenvalues --    0.10944   0.11109   0.11858   0.12221   0.12387
  Beta virt. eigenvalues --    0.13002   0.13379   0.13708   0.14159   0.15024

 Mulliken charges and spin densities:
               1          2
     1  C   -0.250793  -0.048462
     2  O    0.001069  -0.006899
     3  C   -0.257269   0.060251
     4  O   -0.077362  -0.042809
     5  C   -0.044563  -0.021902
     6  C   -0.118696   0.177498
     7  C   -0.332391   0.128839
     8  C   -0.260810   0.141068
     9  C   -0.090825   0.187733
    10  C   -0.392470   0.063388
    11  C   -0.651724   0.072563
    12  O   -0.166099   0.059747
    13  O    0.037629  -0.008395
    14  C   -0.046149   0.000893
    15  O   -0.048537   0.001198
    16  C   -0.200514  -0.045546
    17  H    0.137530  -0.002019
    18  H    0.120406   0.036562
    19  H    0.115969  -0.007178
    20  H    0.056961   0.030326
    21  H    0.218784  -0.008368
    22  H    0.094492   0.111090
    23  H    0.113401  -0.010362
    24  H    0.085823   0.002764
    25  H    0.113781  -0.003528
    26  H    0.162639  -0.018438
    27  H    0.131174   0.022990
    28  H    0.116911   0.013466
    29  H    0.077705   0.048996
    30  H    0.047886   0.052040
    31  H    0.204026   0.001166
    32  H    0.102017   0.011330
 Sum of Mulliken charges =  -1.00000   1.00000

 Dipole moment (field-independent basis, Debye):
    X=             -0.3971    Y=              1.9071    Z=             -1.7742  Tot=              2.6349
 Quadrupole moment (field-independent basis, Debye-Ang):
   XX=           -115.5163   YY=           -118.7537   ZZ=           -113.4514
   XY=              5.4657   XZ=             -1.5722   YZ=              0.4059

 Summary of Natural Population Analysis:

                                       Natural Population
                Natural  -----------------------------------------------
    Atom  No    Charge         Core      Valence    Rydberg      Total
 -----------------------------------------------------------------------
      C    1   -0.10295      0.99962     2.09545    0.00788     3.10295
      O    2   -0.29092      0.99988     3.28115    0.00988     4.29092
      C    3    0.13715      0.99961     1.84537    0.01788     2.86285
      O    4   -0.30180      0.99989     3.29267    0.00924     4.30180
      C    5    0.04424      0.99947     1.93819    0.01809     2.95576
      C    6   -0.06724      0.99953     2.05589    0.01183     3.06724
      C    7   -0.08645      0.99953     2.07814    0.00877     3.08645
      C    8   -0.10589      0.99953     2.09718    0.00919     3.10589
      C    9   -0.02498      0.99950     2.01502    0.01046     3.02498
      C   10    0.06804      0.99945     1.91545    0.01705     2.93196
      C   11    0.23785      0.99967     1.73540    0.02708     2.76215
      O   12   -0.27454      0.99988     3.26762    0.00705     4.27454
      O   13   -0.28370      0.99988     3.27436    0.00946     4.28370
      C   14    0.14082      0.99963     1.83998    0.01958     2.85918
      O   15   -0.29694      0.99989     3.28803    0.00902     4.29694
      C   16   -0.10414      0.99961     2.09616    0.00837     3.10414
      H   17    0.09397      0.00000     0.40519    0.00084     0.40603
      H   18    0.08489      0.00000     0.41368    0.00143     0.41511
      H   19    0.07050      0.00000     0.42823    0.00127     0.42950
      H   20    0.06496      0.00000     0.43403    0.00100     0.43504
      H   21    0.09203      0.00000     0.40674    0.00123     0.40797
      H   22    0.09502      0.00000     0.40318    0.00181     0.40498
      H   23    0.08483      0.00000     0.41382    0.00135     0.41517
      H   24    0.08707      0.00000     0.41158    0.00135     0.41293
      H   25    0.08754      0.00000     0.41087    0.00158     0.41246
      H   26    0.09724      0.00000     0.40127    0.00149     0.40276
      H   27    0.05137      0.00000     0.44568    0.00295     0.44863
      H   28    0.07300      0.00000     0.42542    0.00158     0.42700
      H   29    0.07218      0.00000     0.42650    0.00133     0.42782
      H   30    0.07391      0.00000     0.42454    0.00155     0.42609
      H   31    0.09761      0.00000     0.40090    0.00149     0.40239
      H   32    0.08533      0.00000     0.41368    0.00099     0.41467
 =======================================================================
   * Total *    0.00000     15.99455    44.78137    0.22408    61.00000

 Normal termination of Gaussian 16 at Fri Dec 11 00:03:04 2020.
