 Gaussian 16, Revision A.03,

 -----------------------------------------------------------
 # opt freq B3LYP/6-31G(d) empiricaldispersion=gd3bj scf=xqc
 -----------------------------------------------------------

 -------------------------------
 CID_151732252_JID_3289_neutraal
 -------------------------------
 Symbolic Z-matrix:
 Charge =  0 Multiplicity = 1

 SCF Done:  E(RB3LYP) =  -910.767059318     A.U. after   16 cycles
 SCF Done:  E(RB3LYP) =  -910.772991129     A.U. after   16 cycles
 SCF Done:  E(RB3LYP) =  -910.774282798     A.U. after   15 cycles
 SCF Done:  E(RB3LYP) =  -910.776341842     A.U. after   16 cycles
 SCF Done:  E(RB3LYP) =  -910.779123849     A.U. after   17 cycles
 SCF Done:  E(RB3LYP) =  -910.781007997     A.U. after   17 cycles
 SCF Done:  E(RB3LYP) =  -910.782080202     A.U. after   14 cycles
 SCF Done:  E(RB3LYP) =  -910.782549266     A.U. after   13 cycles
 SCF Done:  E(RB3LYP) =  -910.782743469     A.U. after   13 cycles
 SCF Done:  E(RB3LYP) =  -910.782888755     A.U. after   13 cycles
 SCF Done:  E(RB3LYP) =  -910.783782172     A.U. after   14 cycles
 SCF Done:  E(RB3LYP) =  -910.784653584     A.U. after   11 cycles
 SCF Done:  E(RB3LYP) =  -910.784671360     A.U. after   13 cycles
 SCF Done:  E(RB3LYP) =  -910.784684803     A.U. after   12 cycles
 SCF Done:  E(RB3LYP) =  -910.784687009     A.U. after    9 cycles
 SCF Done:  E(RB3LYP) =  -910.784687528     A.U. after    8 cycles
 Optimization completed.
    -- Stationary point found.
 Normal termination of Gaussian 16 at Wed Dec  9 22:57:05 2020.

 --------------------------------------------------------------------
 #N Geom=AllCheck Guess=TCheck SCRF=Check GenChk RB3LYP/6-31G(d) Freq
 --------------------------------------------------------------------

 Structure from the checkpoint file:  "JID_3289.chk"
 -------------------------------
 CID_151732252_JID_3289_neutraal
 -------------------------------
 Charge =  0 Multiplicity = 1

 SCF Done:  E(RB3LYP) =  -910.784687528     A.U. after    1 cycles

  Exact polarizability: 234.015  -2.302 141.338  -8.744  -8.145  66.632
 Approx polarizability: 393.130  11.319 223.214 -30.880 -24.578 111.283

                      1                      2                      3
                      A                      A                      A
 Frequencies --     41.8539                69.2962                80.4722
 Red. masses --      5.5723                 6.4377                 3.7096
 Frc consts  --      0.0058                 0.0182                 0.0142
 IR Inten    --      0.1935                 0.7629                 1.5170

                      4                      5                      6
                      A                      A                      A
 Frequencies --    115.2512               120.3913               160.4486
 Red. masses --      3.8109                 6.0729                 1.1404
 Frc consts  --      0.0298                 0.0519                 0.0173
 IR Inten    --      0.3134                 0.2909                 0.1871

                      7                      8                      9
                      A                      A                      A
 Frequencies --    186.0566               192.3239               242.7157
 Red. masses --      2.7684                 3.5338                 4.4390
 Frc consts  --      0.0565                 0.0770                 0.1541
 IR Inten    --      1.8956                 1.6508                 0.2331

                     10                     11                     12
                      A                      A                      A
 Frequencies --    263.1362               333.5707               357.4345
 Red. masses --      6.1380                 4.7881                 6.6106
 Frc consts  --      0.2504                 0.3139                 0.4976
 IR Inten    --      0.2720                 1.8273                 0.3414

                     13                     14                     15
                      A                      A                      A
 Frequencies --    410.1266               475.7469               485.6775
 Red. masses --      8.3001                 3.9824                 4.3076
 Frc consts  --      0.8226                 0.5311                 0.5987
 IR Inten    --      0.9403                 3.9138                 3.5281

                     16                     17                     18
                      A                      A                      A
 Frequencies --    521.5751               547.4559               624.6742
 Red. masses --     11.2054                 4.0131                 6.5174
 Frc consts  --      1.7960                 0.7086                 1.4984
 IR Inten    --      6.2501                 0.3353                15.4483

                     19                     20                     21
                      A                      A                      A
 Frequencies --    672.5400               697.2889               715.9353
 Red. masses --      7.7118                 5.7434                 6.4637
 Frc consts  --      2.0552                 1.6453                 1.9520
 IR Inten    --     25.2620                 0.5528                 3.5592

                     22                     23                     24
                      A                      A                      A
 Frequencies --    748.6855               771.5305               858.2202
 Red. masses --      4.0817                 1.2682                 2.0084
 Frc consts  --      1.3480                 0.4448                 0.8716
 IR Inten    --      1.0444                37.6428                 0.6687

                     25                     26                     27
                      A                      A                      A
 Frequencies --    867.9354               890.3282               955.8583
 Red. masses --      3.0867                 1.5386                 1.3513
 Frc consts  --      1.3700                 0.7186                 0.7274
 IR Inten    --      1.6162                 0.1476                 0.6563

                     28                     29                     30
                      A                      A                      A
 Frequencies --    984.5288               990.2666               997.2295
 Red. masses --      1.1537                 1.2333                 1.1672
 Frc consts  --      0.6589                 0.7126                 0.6839
 IR Inten    --     34.3299                 8.8140                 4.0418

                     31                     32                     33
                      A                      A                      A
 Frequencies --   1011.9952              1060.6803              1071.7414
 Red. masses --      1.3073                 5.2058                 5.6139
 Frc consts  --      0.7888                 3.4507                 3.7992
 IR Inten    --     23.7400                 7.3324                23.5168

                     34                     35                     36
                      A                      A                      A
 Frequencies --   1084.5893              1155.0536              1197.8522
 Red. masses --      2.3569                 1.8319                 1.0930
 Frc consts  --      1.6335                 1.4400                 0.9240
 IR Inten    --      0.8906                 0.1513                 0.1338

                     37                     38                     39
                      A                      A                      A
 Frequencies --   1236.0955              1304.3070              1315.7207
 Red. masses --      1.6827                 2.1610                 1.7238
 Frc consts  --      1.5148                 2.1661                 1.7582
 IR Inten    --      0.2731                 8.6772                16.6294

                     40                     41                     42
                      A                      A                      A
 Frequencies --   1342.3245              1347.6362              1382.2996
 Red. masses --      3.7805                 1.4012                 2.6821
 Frc consts  --      4.0134                 1.4994                 3.0195
 IR Inten    --     18.6536                17.1924               134.8835

                     43                     44                     45
                      A                      A                      A
 Frequencies --   1387.1118              1484.6273              1496.3279
 Red. masses --      1.3714                 2.1723                 1.0557
 Frc consts  --      1.5547                 2.8211                 1.3926
 IR Inten    --     22.5200                11.9739                 5.6992

                     46                     47                     48
                      A                      A                      A
 Frequencies --   1513.5487              1517.8127              1616.9312
 Red. masses --      2.3814                 1.0922                 5.1965
 Frc consts  --      3.2142                 1.4824                 8.0046
 IR Inten    --      4.7127                10.9730                 0.6568

                     49                     50                     51
                      A                      A                      A
 Frequencies --   1647.4439              1703.4208              2264.9467
 Red. masses --      5.5424                 5.6119                13.7728
 Frc consts  --      8.8628                 9.5941                41.6283
 IR Inten    --      8.8580               159.7425              1219.3516

                     52                     53                     54
                      A                      A                      A
 Frequencies --   3068.6988              3159.1822              3160.4580
 Red. masses --      1.0289                 1.1082                 1.1052
 Frc consts  --      5.7088                 6.5166                 6.5042
 IR Inten    --     25.0976                 6.9946                 6.7317

                     55                     56                     57
                      A                      A                      A
 Frequencies --   3172.9237              3188.1362              3195.2118
 Red. masses --      1.0921                 1.0853                 1.0878
 Frc consts  --      6.4777                 6.4995                 6.5433
 IR Inten    --     14.6236                 0.2443                 8.6905

                     58                     59                     60
                      A                      A                      A
 Frequencies --   3198.7936              3208.6566              3217.9388
 Red. masses --      1.0891                 1.0934                 1.0968
 Frc consts  --      6.5657                 6.6323                 6.6915
 IR Inten    --      7.9136                20.1499                19.6884

 - Thermochemistry -
 -------------------
 Temperature   298.150 Kelvin.  Pressure   1.00000 Atm.
 Atom     1 has atomic number  6 and mass  12.00000

 Molecular mass:   191.05172 amu.
 Principal axes and moments of inertia in atomic units:
                           1         2         3
     Eigenvalues --  1668.169144650.921076046.77169
           X            0.99996  -0.00812   0.00467
           Y            0.00805   0.99984   0.01590
           Z           -0.00480  -0.01586   0.99986
 This molecule is an asymmetric top.
 Rotational symmetry number  1.
 Warning -- assumption of classical behavior for rotation
           may cause significant error
 Rotational temperatures (Kelvin)      0.05192     0.01862     0.01432
 Rotational constants (GHZ):           1.08187     0.38804     0.29846
 Zero-point vibrational energy     437181.4 (Joules/Mol)
                                  104.48886 (Kcal/Mol)
 Warning -- explicit consideration of  17 degrees of freedom as
           vibrations may cause significant error
 Vibrational temperatures:     60.22    99.70   115.78   165.82   173.22
          (Kelvin)            230.85   267.69   276.71   349.21   378.59
                              479.93   514.27   590.08   684.49   698.78
                              750.43   787.67   898.77   967.64  1003.24
                             1030.07  1077.19  1110.06  1234.79  1248.77
                             1280.98  1375.27  1416.52  1424.77  1434.79
                             1456.04  1526.08  1542.00  1560.48  1661.86
                             1723.44  1778.47  1876.61  1893.03  1931.31
                             1938.95  1988.82  1995.74  2136.05  2152.88
                             2177.66  2183.79  2326.40  2370.30  2450.84
                             3258.75  4415.17  4545.36  4547.19  4565.13
                             4587.02  4597.20  4602.35  4616.54  4629.90

 Zero-point correction=                           0.166514 (Hartree/Particle)
 Thermal correction to Energy=                    0.179089
 Thermal correction to Enthalpy=                  0.180033
 Thermal correction to Gibbs Free Energy=         0.126341
 Sum of electronic and zero-point Energies=           -910.618174
 Sum of electronic and thermal Energies=              -910.605598
 Sum of electronic and thermal Enthalpies=            -910.604654
 Sum of electronic and thermal Free Energies=         -910.658346

                     E (Thermal)             CV                S
                      KCal/Mol        Cal/Mol-Kelvin    Cal/Mol-Kelvin
 Total                  112.380             45.650            113.005
 Electronic               0.000              0.000              0.000
 Translational            0.889              2.981             41.648
 Rotational               0.889              2.981             32.217
 Vibrational            110.603             39.688             39.140
 Vibration     1          0.594              1.980              5.169
 Vibration     2          0.598              1.969              4.173
 Vibration     3          0.600              1.962              3.879
 Vibration     4          0.608              1.937              3.178
 Vibration     5          0.609              1.932              3.094
 Vibration     6          0.622              1.891              2.544
 Vibration     7          0.632              1.859              2.267
 Vibration     8          0.634              1.851              2.205
 Vibration     9          0.659              1.775              1.783
 Vibration    10          0.670              1.740              1.641
 Vibration    11          0.715              1.608              1.243
 Vibration    12          0.733              1.560              1.133
 Vibration    13          0.774              1.448              0.926
 Vibration    14          0.832              1.304              0.722
 Vibration    15          0.842              1.282              0.695
 Vibration    16          0.877              1.202              0.606
 Vibration    17          0.903              1.145              0.549

                           ! Non-Optimized Parameters !
 Normal termination of Gaussian 16 at Wed Dec  9 23:01:40 2020.

 ----------------------------------------------------------------------
 # B3LYP/6-311++G(d,p) empiricaldispersion=gd3bj scf=xqc pop=npa geom=c
 heck
 ----------------------------------------------------------------------

 ---------------------------------------
 CID_151732252_JID_3289_Energie_neutraal
 ---------------------------------------
 Structure from the checkpoint file:  "JID_3289.chk"
 Charge =  0 Multiplicity = 1

 SCF Done:  E(RB3LYP) =  -910.945995429     A.U. after   18 cycles
 Normal termination of Gaussian 16 at Wed Dec  9 23:03:44 2020.

 ----------------------------------------------------------------------
 # B3LYP/6-311++G(d,p) empiricaldispersion=gd3bj scf=xqc pop=npa geom=c
 heck
 ----------------------------------------------------------------------

 -------------------------------------
 CID_151732252_JID_3289_Energie_kation
 -------------------------------------
 Structure from the checkpoint file:  "JID_3289.chk"
 Charge =  1 Multiplicity = 2

 SCF Done:  E(UB3LYP) =  -910.661440881     A.U. after   26 cycles
 Normal termination of Gaussian 16 at Wed Dec  9 23:07:30 2020.
 Gaussian 16:  ES64L-G16RevA.03 25-Dec-2016

 ----------------------------------------------------------------------
 # B3LYP/6-311++G(d,p) empiricaldispersion=gd3bj scf=xqc pop=npa geom=c
 heck
 ----------------------------------------------------------------------

 ------------------------------------
 CID_151732252_JID_3289_Energie_anion
 ------------------------------------
 Structure from the checkpoint file:  "JID_3289.chk"
 Charge = -1 Multiplicity = 2

                         Standard orientation:
 ---------------------------------------------------------------------
 Center     Atomic      Atomic             Coordinates (Angstroms)
 Number     Number       Type             X           Y           Z
 ---------------------------------------------------------------------
      1          6           0        0.867767    2.540034    1.046864
      2         16           0        1.728967    1.961164   -0.464762
      3          6           0        1.710180    0.188167   -0.196649
      4          6           0        2.930781   -0.453582    0.037342
      5          6           0        2.986150   -1.830391    0.245301
      6          6           0        1.807335   -2.577293    0.224808
      7          6           0        0.590628   -1.949173   -0.017590
      8          6           0        0.508811   -0.561302   -0.233886
      9          6           0       -0.772339    0.087928   -0.513704
     10          6           0       -1.961720   -0.355100   -0.073230
     11          7           0       -3.145029    0.320364   -0.425531
     12          7           0       -4.209200   -0.110660    0.039694
     13          7           0       -5.255409   -0.401351    0.392493
     14          1           0        0.829152    3.630847    0.986007
     15          1           0        1.423954    2.246507    1.940168
     16          1           0       -0.149751    2.145194    1.094374
     17          1           0        3.836935    0.142966    0.065290
     18          1           0        3.941694   -2.314455    0.424203
     19          1           0        1.837136   -3.652037    0.379379
     20          1           0       -0.314925   -2.545034   -0.082064
     21          1           0       -0.745786    0.999765   -1.104415
     22          1           0       -2.059967   -1.226574    0.571126
 ---------------------------------------------------------------------

 SCF Done:  E(UB3LYP) =  -910.956211577     A.U. after   32 cycles

 The electronic state is 2-A.
 Alpha  occ. eigenvalues --  -88.71656 -14.33132 -14.23917 -14.23341 -10.07270
 Alpha  occ. eigenvalues --  -10.05838 -10.05698 -10.04339 -10.04098 -10.03680
 Alpha  occ. eigenvalues --  -10.03343 -10.02901 -10.01417  -7.80230  -5.76630
 Alpha  occ. eigenvalues --   -5.76263  -5.75609  -1.00348  -0.84814  -0.72949
 Alpha  occ. eigenvalues --   -0.66634  -0.65769  -0.60726  -0.60271  -0.52715
 Alpha  occ. eigenvalues --   -0.50572  -0.46169  -0.43651  -0.40636  -0.37983
 Alpha  occ. eigenvalues --   -0.37792  -0.36210  -0.32812  -0.32561  -0.31908
 Alpha  occ. eigenvalues --   -0.30853  -0.30198  -0.28450  -0.28089  -0.25491
 Alpha  occ. eigenvalues --   -0.24974  -0.22169  -0.21599  -0.20436  -0.18973
 Alpha  occ. eigenvalues --   -0.17540  -0.14175  -0.13076  -0.10160  -0.07544
 Alpha  occ. eigenvalues --    0.04466
 Alpha virt. eigenvalues --    0.08400   0.08790   0.09405   0.10046   0.10947
 Alpha virt. eigenvalues --    0.11250   0.11578   0.12327   0.12867   0.13186
 Alpha virt. eigenvalues --    0.13888   0.14279   0.15062   0.15572   0.16051

  Beta  occ. eigenvalues --  -88.71653 -14.32797 -14.23588 -14.23529 -10.07229
  Beta  occ. eigenvalues --  -10.05695 -10.05370 -10.04402 -10.04112 -10.03475
  Beta  occ. eigenvalues --  -10.03266 -10.02639 -10.01291  -7.80226  -5.76623
  Beta  occ. eigenvalues --   -5.76265  -5.75601  -0.99823  -0.84656  -0.72634
  Beta  occ. eigenvalues --   -0.66445  -0.65260  -0.60523  -0.59825  -0.52447
  Beta  occ. eigenvalues --   -0.50200  -0.46054  -0.43366  -0.40413  -0.37607
  Beta  occ. eigenvalues --   -0.36592  -0.35956  -0.32553  -0.32191  -0.31490
  Beta  occ. eigenvalues --   -0.30702  -0.30121  -0.28230  -0.27909  -0.25308
  Beta  occ. eigenvalues --   -0.24444  -0.21805  -0.21399  -0.19421  -0.18652
  Beta  occ. eigenvalues --   -0.17565  -0.12904  -0.12604  -0.09964  -0.06142
  Beta virt. eigenvalues --    0.08303   0.08671   0.09663   0.09875   0.10077
  Beta virt. eigenvalues --    0.11046   0.11312   0.11608   0.12333   0.13091
  Beta virt. eigenvalues --    0.13743   0.14191   0.14611   0.15296   0.15667

 Mulliken charges and spin densities:
               1          2
     1  C   -0.613671  -0.068069
     2  S   -0.398494   0.032110
     3  C    0.508407   0.192280
     4  C   -0.503574  -0.049202
     5  C   -0.284441   0.202762
     6  C   -0.574372   0.011745
     7  C   -0.547577   0.027027
     8  C    1.344981   0.073834
     9  C   -0.029280   0.038315
    10  C   -0.990019   0.290784
    11  N   -0.019415  -0.087341
    12  N    0.367704   0.058189
    13  N   -0.394414   0.224182
    14  H    0.096462   0.028604
    15  H    0.124246   0.030870
    16  H    0.176828   0.014043
    17  H    0.141977   0.003814
    18  H    0.102979  -0.017059
    19  H    0.119468   0.000575
    20  H    0.080745   0.010255
    21  H    0.186294  -0.006665
    22  H    0.105164  -0.011054
 Sum of Mulliken charges =  -1.00000   1.00000

 Dipole moment (field-independent basis, Debye):
    X=              3.3745    Y=              0.5523    Z=              1.0329  Tot=              3.5720
 Quadrupole moment (field-independent basis, Debye-Ang):
   XX=           -144.1263   YY=            -97.8413   ZZ=            -95.2677
   XY=             -1.3402   XZ=              3.3088   YZ=              1.4974

 Summary of Natural Population Analysis:

                                       Natural Population
                Natural  -----------------------------------------------
    Atom  No    Charge         Core      Valence    Rydberg      Total
 -----------------------------------------------------------------------
      C    1   -0.34350      0.99962     2.33803    0.00586     3.34350
      S    2    0.08818      4.99957     2.89099    0.02126     7.91182
      C    3   -0.06084      0.99937     2.05077    0.01071     3.06084
      C    4   -0.11980      0.99951     2.10955    0.01074     3.11980
      C    5   -0.07180      0.99957     2.06236    0.00986     3.07180
      C    6   -0.10961      0.99957     2.10095    0.00909     3.10961
      C    7   -0.08200      0.99953     2.07436    0.00811     3.08200
      C    8   -0.00055      0.99945     1.99074    0.01036     3.00055
      C    9   -0.10795      0.99952     2.09873    0.00969     3.10795
      C   10    0.04248      0.99945     1.94453    0.01353     2.95752
      N   11   -0.20840      0.99967     2.69396    0.01478     3.70840
      N   12    0.14751      0.99971     2.33694    0.01584     3.35249
      N   13   -0.02489      0.99982     2.51191    0.01316     3.52489
      H   14    0.09590      0.00000     0.40234    0.00177     0.40410
      H   15    0.09645      0.00000     0.40133    0.00222     0.40355
      H   16    0.10859      0.00000     0.38930    0.00211     0.39141
      H   17    0.09671      0.00000     0.40193    0.00137     0.40329
      H   18    0.08746      0.00000     0.41096    0.00158     0.41254
      H   19    0.09057      0.00000     0.40839    0.00103     0.40943
      H   20    0.09425      0.00000     0.40430    0.00145     0.40575
      H   21    0.10163      0.00000     0.39621    0.00216     0.39837
      H   22    0.07961      0.00000     0.41920    0.00119     0.42039
 =======================================================================
   * Total *    0.00000     16.99435    32.83778    0.16787    50.00000

 Normal termination of Gaussian 16 at Wed Dec  9 23:12:03 2020.
