 Gaussian 16, Revision A.03,

 -----------------------------------------------------------
 # opt freq B3LYP/6-31G(d) empiricaldispersion=gd3bj scf=xqc
 -----------------------------------------------------------

 -------------------------------
 CID_103424423_JID_5767_neutraal
 -------------------------------
 Symbolic Z-matrix:
 Charge =  0 Multiplicity = 1

 SCF Done:  E(RB3LYP) =  -1064.90079270     A.U. after   14 cycles
 SCF Done:  E(RB3LYP) =  -1064.90937923     A.U. after   13 cycles
 SCF Done:  E(RB3LYP) =  -1064.90889823     A.U. after   13 cycles
 SCF Done:  E(RB3LYP) =  -1064.91266414     A.U. after   12 cycles
 SCF Done:  E(RB3LYP) =  -1064.91397579     A.U. after   13 cycles
 SCF Done:  E(RB3LYP) =  -1064.91488358     A.U. after   13 cycles
 SCF Done:  E(RB3LYP) =  -1064.91573956     A.U. after   12 cycles
 SCF Done:  E(RB3LYP) =  -1064.91627291     A.U. after   12 cycles
 SCF Done:  E(RB3LYP) =  -1064.91654088     A.U. after   12 cycles
 SCF Done:  E(RB3LYP) =  -1064.91670569     A.U. after   11 cycles
 SCF Done:  E(RB3LYP) =  -1064.91832973     A.U. after   10 cycles
 SCF Done:  E(RB3LYP) =  -1064.91833166     A.U. after    9 cycles
 SCF Done:  E(RB3LYP) =  -1064.91833232     A.U. after    8 cycles
 SCF Done:  E(RB3LYP) =  -1064.91833274     A.U. after    8 cycles
 SCF Done:  E(RB3LYP) =  -1064.91833279     A.U. after    7 cycles
 Optimization completed.
    -- Stationary point found.
 Normal termination of Gaussian 16 at Thu Dec 10 17:03:50 2020.

 --------------------------------------------------------------------
 #N Geom=AllCheck Guess=TCheck SCRF=Check GenChk RB3LYP/6-31G(d) Freq
 --------------------------------------------------------------------

 Structure from the checkpoint file:  "JID_5767.chk"
 -------------------------------
 CID_103424423_JID_5767_neutraal
 -------------------------------
 Charge =  0 Multiplicity = 1

 SCF Done:  E(RB3LYP) =  -1064.91833279     A.U. after    1 cycles

  Exact polarizability: 201.229  -0.919 154.460  -1.506  -3.197  84.422
 Approx polarizability: 274.474 -12.604 266.273  -7.949 -12.078 130.284

                      1                      2                      3
                      A                      A                      A
 Frequencies --     44.0352                62.9546                72.7823
 Red. masses --      3.7670                 2.5925                 2.1542
 Frc consts  --      0.0043                 0.0061                 0.0067
 IR Inten    --      1.9002                 2.0015                 1.9106

                      4                      5                      6
                      A                      A                      A
 Frequencies --     80.2425                86.3337               100.7035
 Red. masses --      4.9954                 3.6699                 2.9100
 Frc consts  --      0.0190                 0.0161                 0.0174
 IR Inten    --      1.4159                 0.6371                 1.1240

                      7                      8                      9
                      A                      A                      A
 Frequencies --    140.2232               143.8677               157.4516
 Red. masses --      2.2469                 3.5661                 1.9095
 Frc consts  --      0.0260                 0.0435                 0.0279
 IR Inten    --      1.5804                 1.0775                 2.8932

                     10                     11                     12
                      A                      A                      A
 Frequencies --    165.9197               190.3797               211.8064
 Red. masses --      1.3591                 2.1359                 3.1384
 Frc consts  --      0.0220                 0.0456                 0.0830
 IR Inten    --      5.0891                 5.7859                 1.1939

                     13                     14                     15
                      A                      A                      A
 Frequencies --    226.3872               261.9735               272.0798
 Red. masses --      4.2026                 1.2858                 3.6814
 Frc consts  --      0.1269                 0.0520                 0.1606
 IR Inten    --      0.8323                 1.7827                 4.9723

                     16                     17                     18
                      A                      A                      A
 Frequencies --    300.1961               314.8833               330.7306
 Red. masses --      4.3454                 3.7164                 3.8641
 Frc consts  --      0.2307                 0.2171                 0.2490
 IR Inten    --      7.7416                 5.6601                 3.9222

                     19                     20                     21
                      A                      A                      A
 Frequencies --    384.5205               426.8886               456.7534
 Red. masses --      6.8400                 5.4646                 4.3210
 Frc consts  --      0.5959                 0.5867                 0.5311
 IR Inten    --      4.8882                 5.3228                 0.6737

                     22                     23                     24
                      A                      A                      A
 Frequencies --    507.9387               513.5941               546.2857
 Red. masses --      1.1488                 5.8998                 3.9397
 Frc consts  --      0.1746                 0.9169                 0.6927
 IR Inten    --     59.0175                21.4999                93.8587

                     25                     26                     27
                      A                      A                      A
 Frequencies --    557.2092               591.6597               617.9343
 Red. masses --      4.2704                 4.2405                 3.8261
 Frc consts  --      0.7812                 0.8746                 0.8608
 IR Inten    --     22.1672                13.5594                64.9429

                     28                     29                     30
                      A                      A                      A
 Frequencies --    681.8364               697.0180               752.7963
 Red. masses --      2.4352                 3.6290                 2.6415
 Frc consts  --      0.6670                 1.0388                 0.8820
 IR Inten    --     16.5107                44.3099                96.8875

                     31                     32                     33
                      A                      A                      A
 Frequencies --    779.5754               793.6135               826.9215
 Red. masses --      3.0416                 2.7466                 1.1076
 Frc consts  --      1.0891                 1.0192                 0.4462
 IR Inten    --     47.2269                91.6559                 2.1502

                     34                     35                     36
                      A                      A                      A
 Frequencies --    855.3552               915.5218               961.5892
 Red. masses --      1.9624                 3.1107                 2.3643
 Frc consts  --      0.8459                 1.5362                 1.2881
 IR Inten    --    126.4576                30.2664                19.6519

                     37                     38                     39
                      A                      A                      A
 Frequencies --    983.9761              1056.0658              1072.0722
 Red. masses --      2.2718                 4.8761                 2.9048
 Frc consts  --      1.2960                 3.2041                 1.9670
 IR Inten    --     20.8762                81.1030                20.5614

                     40                     41                     42
                      A                      A                      A
 Frequencies --   1097.4974              1154.8900              1160.2262
 Red. masses --      3.6466                 2.2796                 1.6034
 Frc consts  --      2.5879                 1.7914                 1.2717
 IR Inten    --     13.7145                44.5993                22.4521

                     43                     44                     45
                      A                      A                      A
 Frequencies --   1166.4997              1188.1513              1195.6093
 Red. masses --      1.5542                 1.2637                 2.0791
 Frc consts  --      1.2460                 1.0511                 1.7511
 IR Inten    --    102.9579                 4.5952                66.2270

                     46                     47                     48
                      A                      A                      A
 Frequencies --   1203.4835              1215.7158              1241.4914
 Red. masses --      1.9577                 1.6974                 2.2980
 Frc consts  --      1.6706                 1.4780                 2.0869
 IR Inten    --     25.2814                11.7254                31.3574

                     49                     50                     51
                      A                      A                      A
 Frequencies --   1312.4791              1340.2178              1386.1104
 Red. masses --      1.2065                 3.7192                 1.3550
 Frc consts  --      1.2245                 3.9360                 1.5338
 IR Inten    --     68.3591               184.8180                71.4119

                     52                     53                     54
                      A                      A                      A
 Frequencies --   1390.3360              1442.4838              1462.4074
 Red. masses --      4.8696                 1.2713                 1.3439
 Frc consts  --      5.5460                 1.5586                 1.6934
 IR Inten    --    196.6318                21.0205                31.6081

                     55                     56                     57
                      A                      A                      A
 Frequencies --   1474.5324              1490.1228              1501.8171
 Red. masses --      1.3602                 1.2906                 1.3755
 Frc consts  --      1.7425                 1.6884                 1.8279
 IR Inten    --     47.5303                 8.5244                30.7220

                     58                     59                     60
                      A                      A                      A
 Frequencies --   1516.2583              1520.2821              1523.7786
 Red. masses --      1.1432                 2.2351                 1.1026
 Frc consts  --      1.5485                 3.0436                 1.5084
 IR Inten    --     53.3429               198.4327                24.7403

                     61                     62                     63
                      A                      A                      A
 Frequencies --   1527.5026              1530.2435              1535.6140
 Red. masses --      1.0707                 1.0522                 1.0629
 Frc consts  --      1.4719                 1.4517                 1.4768
 IR Inten    --     11.0144                 6.7134                11.3570

                     64                     65                     66
                      A                      A                      A
 Frequencies --   1544.1546              1551.5234              1570.3251
 Red. masses --      1.1203                 1.1023                 3.0586
 Frc consts  --      1.5738                 1.5634                 4.4438
 IR Inten    --     93.1697                 3.2432               182.1661

                     67                     68                     69
                      A                      A                      A
 Frequencies --   1631.5780              1673.1062              1743.9855
 Red. masses --      3.4748                 1.4772                 7.5728
 Frc consts  --      5.4500                 2.4363                13.5705
 IR Inten    --    113.1419               140.9118               388.2204

                     70                     71                     72
                      A                      A                      A
 Frequencies --   2997.1911              3029.9129              3039.2829
 Red. masses --      1.0715                 1.0490                 1.0305
 Frc consts  --      5.6712                 5.6737                 5.6085
 IR Inten    --     48.1491                71.7830                50.1928

                     73                     74                     75
                      A                      A                      A
 Frequencies --   3051.7593              3074.1001              3106.9945
 Red. masses --      1.0402                 1.0893                 1.1076
 Frc consts  --      5.7079                 6.0651                 6.2996
 IR Inten    --     21.7364                12.2182                25.5911

                     76                     77                     78
                      A                      A                      A
 Frequencies --   3111.6997              3120.2102              3140.1016
 Red. masses --      1.0915                 1.0994                 1.1033
 Frc consts  --      6.2269                 6.3065                 6.4094
 IR Inten    --     30.3389                33.5366                23.8212

                     79                     80                     81
                      A                      A                      A
 Frequencies --   3148.6178              3171.3593              3501.4472
 Red. masses --      1.1043                 1.0995                 1.0486
 Frc consts  --      6.4503                 6.5154                 7.5743
 IR Inten    --     36.2785                10.2511                27.2681

                     82                     83                     84
                      A                      A                      A
 Frequencies --   3518.4251              3545.2600              3615.8611
 Red. masses --      1.0736                 1.0747                 1.0982
 Frc consts  --      7.8302                 7.9582                 8.4598
 IR Inten    --      8.0911                22.2732                35.2343

 - Thermochemistry -
 -------------------
 Temperature   298.150 Kelvin.  Pressure   1.00000 Atm.
 Atom     1 has atomic number  6 and mass  12.00000

 Molecular mass:   229.08850 amu.
 Principal axes and moments of inertia in atomic units:
                           1         2         3
     Eigenvalues --  2170.033015122.758736915.99192
           X            0.99960   0.02810   0.00415
           Y           -0.02813   0.99956   0.00961
           Z           -0.00388  -0.00973   0.99995
 This molecule is an asymmetric top.
 Rotational symmetry number  1.
 Warning -- assumption of classical behavior for rotation
           may cause significant error
 Rotational temperatures (Kelvin)      0.03991     0.01691     0.01252
 Rotational constants (GHZ):           0.83167     0.35230     0.26095
 Zero-point vibrational energy     649612.5 (Joules/Mol)
                                  155.26110 (Kcal/Mol)
 Warning -- explicit consideration of  27 degrees of freedom as
           vibrations may cause significant error
 Vibrational temperatures:     63.36    90.58   104.72   115.45   124.21
          (Kelvin)            144.89   201.75   206.99   226.54   238.72
                              273.91   304.74   325.72   376.92   391.46
                              431.92   453.05   475.85   553.24   614.20
                              657.17   730.81   738.95   785.98   801.70
                              851.27   889.07   981.01  1002.85  1083.11
                             1121.64  1141.83  1189.76  1230.67  1317.23
                             1383.51  1415.72  1519.44  1542.47  1579.05
                             1661.63  1669.31  1678.33  1709.48  1720.22
                             1731.54  1749.14  1786.23  1888.36  1928.27
                             1994.30  2000.38  2075.41  2104.08  2121.52
                             2143.95  2160.78  2181.56  2187.35  2192.38
                             2197.74  2201.68  2209.41  2221.69  2232.30
                             2259.35  2347.48  2407.23  2509.21  4312.29
                             4359.37  4372.85  4390.80  4422.94  4470.27
                             4477.04  4489.29  4517.91  4530.16  4562.88
                             5037.80  5062.23  5100.84  5202.42

 Zero-point correction=                           0.247424 (Hartree/Particle)
 Thermal correction to Energy=                    0.264381
 Thermal correction to Enthalpy=                  0.265325
 Thermal correction to Gibbs Free Energy=         0.202507
 Sum of electronic and zero-point Energies=          -1064.670908
 Sum of electronic and thermal Energies=             -1064.653952
 Sum of electronic and thermal Enthalpies=           -1064.653007
 Sum of electronic and thermal Free Energies=        -1064.715826

                     E (Thermal)             CV                S
                      KCal/Mol        Cal/Mol-Kelvin    Cal/Mol-Kelvin
 Total                  165.902             60.719            132.212
 Electronic               0.000              0.000              0.000
 Translational            0.889              2.981             42.189
 Rotational               0.889              2.981             32.708
 Vibrational            164.124             54.758             57.315
 Vibration     1          0.595              1.980              5.069
 Vibration     2          0.597              1.972              4.362
 Vibration     3          0.599              1.967              4.077
 Vibration     4          0.600              1.963              3.885
 Vibration     5          0.601              1.959              3.741
 Vibration     6          0.604              1.949              3.441
 Vibration     7          0.615              1.913              2.801
 Vibration     8          0.616              1.909              2.752
 Vibration     9          0.621              1.894              2.580
 Vibration    10          0.624              1.884              2.481
 Vibration    11          0.634              1.853              2.224
 Vibration    12          0.643              1.823              2.028
 Vibration    13          0.650              1.801              1.907
 Vibration    14          0.669              1.742              1.649
 Vibration    15          0.675              1.725              1.583
 Vibration    16          0.693              1.673              1.416
 Vibration    17          0.702              1.645              1.337
 Vibration    18          0.713              1.614              1.257
 Vibration    19          0.753              1.503              1.021
 Vibration    20          0.789              1.412              0.869
 Vibration    21          0.815              1.346              0.776
 Vibration    22          0.863              1.232              0.639
 Vibration    23          0.869              1.220              0.625
 Vibration    24          0.901              1.148              0.552
 Vibration    25          0.913              1.124              0.529
 Vibration    26          0.949              1.050              0.464
 Vibration    27          0.978              0.994              0.420

 Optimization completed.
    -- Stationary point found.
 Normal termination of Gaussian 16 at Thu Dec 10 17:13:52 2020.

 ----------------------------------------------------------------------
 # B3LYP/6-311++G(d,p) empiricaldispersion=gd3bj scf=xqc pop=npa geom=c
 heck
 ----------------------------------------------------------------------

 ---------------------------------------
 CID_103424423_JID_5767_Energie_neutraal
 ---------------------------------------
 Structure from the checkpoint file:  "JID_5767.chk"
 Charge =  0 Multiplicity = 1

 SCF Done:  E(RB3LYP) =  -1065.14702535     A.U. after   15 cycles
 Normal termination of Gaussian 16 at Thu Dec 10 17:18:57 2020.

 ----------------------------------------------------------------------
 # B3LYP/6-311++G(d,p) empiricaldispersion=gd3bj scf=xqc pop=npa geom=c
 heck
 ----------------------------------------------------------------------

 -------------------------------------
 CID_103424423_JID_5767_Energie_kation
 -------------------------------------
 Structure from the checkpoint file:  "JID_5767.chk"
 Charge =  1 Multiplicity = 2

 SCF Done:  E(UB3LYP) =  -1064.88593299     A.U. after   25 cycles
 Normal termination of Gaussian 16 at Thu Dec 10 17:30:12 2020.
 Gaussian 16:  ES64L-G16RevA.03 25-Dec-2016

 ----------------------------------------------------------------------
 # B3LYP/6-311++G(d,p) empiricaldispersion=gd3bj scf=xqc pop=npa geom=c
 heck
 ----------------------------------------------------------------------

 ------------------------------------
 CID_103424423_JID_5767_Energie_anion
 ------------------------------------
 Structure from the checkpoint file:  "JID_5767.chk"
 Charge = -1 Multiplicity = 2

                         Standard orientation:
 ---------------------------------------------------------------------
 Center     Atomic      Atomic             Coordinates (Angstroms)
 Number     Number       Type             X           Y           Z
 ---------------------------------------------------------------------
      1          6           0       -4.886117   -1.078164    0.227411
      2          6           0       -3.402635   -1.327297   -0.015642
      3          7           0       -2.651627   -0.082295    0.111899
      4          6           0       -1.286506   -0.064573   -0.039595
      5          6           0       -0.535255    1.057542   -0.320733
      6          6           0        0.866419    0.813280   -0.368140
      7          6           0        1.181608   -0.513960   -0.098390
      8         16           0       -0.282408   -1.481533    0.142640
      9          6           0        2.439422   -1.221206   -0.195167
     10          8           0        2.518919   -2.436622   -0.369734
     11          7           0        3.608742   -0.421308   -0.130063
     12          6           0        3.847850    0.347890    1.103254
     13          7           0        1.757636    1.834552   -0.651892
     14          8           0       -1.100558    2.293869   -0.568451
     15          6           0       -1.127127    3.136543    0.593861
     16          1           0       -5.049897   -0.652300    1.222417
     17          1           0       -5.447515   -2.014294    0.151585
     18          1           0       -5.296095   -0.383150   -0.515874
     19          1           0       -3.015773   -2.029368    0.732264
     20          1           0       -3.245627   -1.791614   -1.002781
     21          1           0       -3.086461    0.723401   -0.327571
     22          1           0        4.390730   -1.043433   -0.324184
     23          1           0        3.901281   -0.293573    1.994066
     24          1           0        4.796099    0.883810    1.000569
     25          1           0        3.057811    1.085907    1.246019
     26          1           0        1.346135    2.564812   -1.223192
     27          1           0        2.652243    1.500290   -1.000449
     28          1           0       -1.721118    2.677187    1.392956
     29          1           0       -0.111589    3.323891    0.961728
     30          1           0       -1.587792    4.078019    0.284934
 ---------------------------------------------------------------------

 SCF Done:  E(UB3LYP) =  -1065.13751310     A.U. after   33 cycles
 SCF Done:  E(UB3LYP) =  -1065.13759439     a.u. after    6 cycles

 The electronic state is 2-A.
 Alpha  occ. eigenvalues --  -88.75819 -19.04473 -18.97459 -14.22868 -14.22526
 Alpha  occ. eigenvalues --  -14.22329 -10.15466 -10.12356 -10.11651 -10.11126
 Alpha  occ. eigenvalues --  -10.10954 -10.10678 -10.10461 -10.07471 -10.06493
 Alpha  occ. eigenvalues --   -7.84402  -5.80738  -5.80383  -5.79897  -0.95470
 Alpha  occ. eigenvalues --   -0.92377  -0.84334  -0.82688  -0.80658  -0.74310
 Alpha  occ. eigenvalues --   -0.66380  -0.63262  -0.61244  -0.59244  -0.57941
 Alpha  occ. eigenvalues --   -0.53990  -0.50085  -0.46821  -0.45427  -0.42190
 Alpha  occ. eigenvalues --   -0.41775  -0.39331  -0.38450  -0.37163  -0.36589
 Alpha  occ. eigenvalues --   -0.35981  -0.35198  -0.34539  -0.33006  -0.31638
 Alpha  occ. eigenvalues --   -0.30779  -0.29820  -0.28752  -0.28529  -0.27737
 Alpha  occ. eigenvalues --   -0.27129  -0.26151  -0.25097  -0.23603  -0.22825
 Alpha  occ. eigenvalues --   -0.18608  -0.17953  -0.17462  -0.14241  -0.11307
 Alpha  occ. eigenvalues --   -0.08888   0.04364
 Alpha virt. eigenvalues --    0.06006   0.06575   0.07230   0.08162   0.08890
 Alpha virt. eigenvalues --    0.09377   0.09537   0.10034   0.10448   0.10726
 Alpha virt. eigenvalues --    0.12443   0.12628   0.12847   0.13282   0.13456

  Beta  occ. eigenvalues --  -88.75806 -19.04471 -18.97365 -14.22839 -14.22510
  Beta  occ. eigenvalues --  -14.22288 -10.15363 -10.12169 -10.11618 -10.11001
  Beta  occ. eigenvalues --  -10.10945 -10.10666 -10.10518 -10.07489 -10.06437
  Beta  occ. eigenvalues --   -7.84391  -5.80730  -5.80377  -5.79860  -0.95472
  Beta  occ. eigenvalues --   -0.92201  -0.84191  -0.82583  -0.80583  -0.74224
  Beta  occ. eigenvalues --   -0.66293  -0.63217  -0.61119  -0.59163  -0.57837
  Beta  occ. eigenvalues --   -0.53843  -0.49932  -0.46726  -0.45340  -0.42140
  Beta  occ. eigenvalues --   -0.41716  -0.39256  -0.38395  -0.37073  -0.36494
  Beta  occ. eigenvalues --   -0.35932  -0.35144  -0.34457  -0.32919  -0.31537
  Beta  occ. eigenvalues --   -0.30660  -0.29646  -0.28621  -0.28430  -0.27616
  Beta  occ. eigenvalues --   -0.26972  -0.26028  -0.24865  -0.23516  -0.22452
  Beta  occ. eigenvalues --   -0.18560  -0.17785  -0.17262  -0.14113  -0.11079
  Beta  occ. eigenvalues --   -0.08563
  Beta virt. eigenvalues --    0.06207   0.06963   0.07586   0.07997   0.08522
  Beta virt. eigenvalues --    0.09279   0.09755   0.09846   0.10300   0.10671
  Beta virt. eigenvalues --    0.10938   0.12699   0.12753   0.13111   0.13464

 Mulliken charges and spin densities:
               1          2
     1  C    1.796771  -2.395983
     2  C   -1.096081   0.973229
     3  N   -0.158328   0.223747
     4  C    0.550934  -0.417300
     5  C   -0.739266   0.341733
     6  C   -0.042799   0.095535
     7  C    0.335056  -0.228059
     8  S   -0.486574   0.072471
     9  C    0.352647  -0.014447
    10  O   -0.393530   0.031999
    11  N   -0.300647  -0.005748
    12  C   -0.419126   0.002887
    13  N   -0.385534   0.011628
    14  O   -0.215179   0.028186
    15  C    0.630499  -0.964025
    16  H   -0.378969   0.538020
    17  H   -0.305470   0.445681
    18  H   -0.493492   0.633234
    19  H    0.128887   0.008683
    20  H   -0.025720   0.200368
    21  H    0.183757   0.114143
    22  H    0.298462   0.000609
    23  H    0.136849   0.001618
    24  H    0.120827   0.002614
    25  H    0.188373  -0.004156
    26  H    0.107044   0.194878
    27  H    0.235366   0.030017
    28  H   -0.162701   0.325754
    29  H   -0.014070   0.152012
    30  H   -0.447985   0.600673
 Sum of Mulliken charges =  -1.00000   1.00000

 Dipole moment (field-independent basis, Debye):
    X=              8.6212    Y=              0.7823    Z=              0.6550  Tot=              8.6814
 Quadrupole moment (field-independent basis, Debye-Ang):
   XX=           -172.2614   YY=           -149.1642   ZZ=           -120.1099
   XY=             11.9638   XZ=              4.1361   YZ=             -2.0836

 Summary of Natural Population Analysis:

                                       Natural Population
                Natural  -----------------------------------------------
    Atom  No    Charge         Core      Valence    Rydberg      Total
 -----------------------------------------------------------------------
      C    1   -0.28836      0.99967     2.28341    0.00528     3.28836
      C    2   -0.08811      0.99963     2.07718    0.01130     3.08811
      N    3   -0.31030      0.99965     2.79814    0.01251     3.81030
      C    4    0.05237      0.99943     1.93284    0.01536     2.94763
      C    5    0.06175      0.99921     1.92370    0.01533     2.93825
      C    6    0.09839      0.99938     1.88969    0.01254     2.90161
      C    7   -0.19733      0.99939     2.18572    0.01223     3.19733
      S    8    0.20246      4.99946     2.77816    0.01992     7.79754
      C    9    0.33006      0.99956     1.64711    0.02327     2.66994
      O   10   -0.32037      0.99988     3.31482    0.00566     4.32037
      N   11   -0.34785      0.99971     2.83741    0.01073     3.84785
      C   12   -0.18284      0.99965     2.17673    0.00646     3.18284
      N   13   -0.39843      0.99970     2.88926    0.00946     3.89843
      O   14   -0.29469      0.99987     3.28374    0.01108     4.29469
      C   15   -0.09827      0.99959     2.08930    0.00938     3.09827
      H   16    0.10298      0.00000     0.39528    0.00173     0.39702
      H   17    0.10197      0.00000     0.39678    0.00125     0.39803
      H   18    0.09889      0.00000     0.39881    0.00229     0.40111
      H   19    0.09426      0.00000     0.40409    0.00165     0.40574
      H   20    0.08774      0.00000     0.41074    0.00153     0.41226
      H   21    0.19239      0.00000     0.30404    0.00357     0.30761
      H   22    0.18174      0.00000     0.31613    0.00212     0.31826
      H   23    0.08421      0.00000     0.41446    0.00133     0.41579
      H   24    0.08866      0.00000     0.41040    0.00094     0.41134
      H   25    0.10649      0.00000     0.39224    0.00127     0.39351
      H   26    0.18992      0.00000     0.30831    0.00177     0.31008
      H   27    0.19445      0.00000     0.30363    0.00192     0.30555
      H   28    0.08580      0.00000     0.41265    0.00156     0.41420
      H   29    0.08272      0.00000     0.41592    0.00136     0.41728
      H   30    0.08930      0.00000     0.40860    0.00210     0.41070
 =======================================================================
   * Total *    0.00000     18.99379    41.79932    0.20690    61.00000

 Normal termination of Gaussian 16 at Thu Dec 10 19:07:22 2020.
