 Gaussian 16, Revision A.03,

 -----------------------------------------------------------
 # opt freq B3LYP/6-31G(d) empiricaldispersion=gd3bj scf=xqc
 -----------------------------------------------------------

 -------------------------------
 CID_152037005_JID_8520_neutraal
 -------------------------------
 Symbolic Z-matrix:
 Charge =  0 Multiplicity = 1

 SCF Done:  E(RB3LYP) =  -1133.43815526     A.U. after   16 cycles
 SCF Done:  E(RB3LYP) =  -1133.44427741     A.U. after   15 cycles
 SCF Done:  E(RB3LYP) =  -1133.44480090     A.U. after   14 cycles
 SCF Done:  E(RB3LYP) =  -1133.44544918     A.U. after   12 cycles
 SCF Done:  E(RB3LYP) =  -1133.44556543     A.U. after   12 cycles
 SCF Done:  E(RB3LYP) =  -1133.44559884     A.U. after   12 cycles
 SCF Done:  E(RB3LYP) =  -1133.44561748     A.U. after    9 cycles
 SCF Done:  E(RB3LYP) =  -1133.44562059     A.U. after    9 cycles
 SCF Done:  E(RB3LYP) =  -1133.44562114     A.U. after    8 cycles
 SCF Done:  E(RB3LYP) =  -1133.44562124     A.U. after    8 cycles
 Optimization completed.
    -- Stationary point found.
 Normal termination of Gaussian 16 at Fri Dec 11 20:53:29 2020.

 --------------------------------------------------------------------
 #N Geom=AllCheck Guess=TCheck SCRF=Check GenChk RB3LYP/6-31G(d) Freq
 --------------------------------------------------------------------

 Structure from the checkpoint file:  "JID_8520.chk"
 -------------------------------
 CID_152037005_JID_8520_neutraal
 -------------------------------
 Charge =  0 Multiplicity = 1

 SCF Done:  E(RB3LYP) =  -1133.44562124     A.U. after    1 cycles

  Exact polarizability: 221.203  10.126 218.137  -6.317  12.543  87.439
 Approx polarizability: 342.443  21.027 420.691 -13.013  26.529 150.925

                      1                      2                      3
                      A                      A                      A
 Frequencies --     44.7270                47.0431                72.0862
 Red. masses --      6.9635                 5.1275                 5.6354
 Frc consts  --      0.0082                 0.0067                 0.0173
 IR Inten    --      0.0327                 0.0291                 0.0449

                      4                      5                      6
                      A                      A                      A
 Frequencies --     83.5627               124.4078               152.9233
 Red. masses --      8.6520                 9.0029                 7.5282
 Frc consts  --      0.0356                 0.0821                 0.1037
 IR Inten    --      0.0920                 0.0276                 0.2739

                      7                      8                      9
                      A                      A                      A
 Frequencies --    205.5880               230.7478               262.9612
 Red. masses --      8.3762                 6.8195                 8.5076
 Frc consts  --      0.2086                 0.2139                 0.3466
 IR Inten    --      0.2268                 0.4703                 0.1331

                     10                     11                     12
                      A                      A                      A
 Frequencies --    283.5344               311.7168               362.4509
 Red. masses --      7.3326                 6.5427                 6.7726
 Frc consts  --      0.3473                 0.3746                 0.5242
 IR Inten    --      0.2568                 0.5339                 0.9540

                     13                     14                     15
                      A                      A                      A
 Frequencies --    419.5680               425.7433               467.0026
 Red. masses --      3.0509                12.4503                10.1052
 Frc consts  --      0.3164                 1.3296                 1.2985
 IR Inten    --      0.1489                 0.0586                 1.1515

                     16                     17                     18
                      A                      A                      A
 Frequencies --    492.4419               517.6464               553.8816
 Red. masses --      4.8017                 3.9946                10.2849
 Frc consts  --      0.6861                 0.6306                 1.8590
 IR Inten    --      1.1257                 5.1724                 3.7618

                     19                     20                     21
                      A                      A                      A
 Frequencies --    557.9040               610.5544               624.8186
 Red. masses --     13.8882                 5.8598                 6.4849
 Frc consts  --      2.5469                 1.2870                 1.4916
 IR Inten    --      7.9568                 2.0670                 1.9893

                     22                     23                     24
                      A                      A                      A
 Frequencies --    634.7001               657.9691               669.6468
 Red. masses --      7.1964                 7.3801                 5.3452
 Frc consts  --      1.7081                 1.8825                 1.4122
 IR Inten    --      0.3440                 7.6454                 7.8842

                     25                     26                     27
                      A                      A                      A
 Frequencies --    713.3803               764.9850               792.1574
 Red. masses --      1.9213                 1.9015                 5.9834
 Frc consts  --      0.5761                 0.6556                 2.2122
 IR Inten    --     24.0610                33.3458                29.7246

                     28                     29                     30
                      A                      A                      A
 Frequencies --    799.4647               804.8782               807.2247
 Red. masses --      4.9614                 3.7717                 2.5607
 Frc consts  --      1.8683                 1.4396                 0.9831
 IR Inten    --     12.8237                21.6806                 3.0012

                     31                     32                     33
                      A                      A                      A
 Frequencies --    840.8318               859.7050               930.2889
 Red. masses --      4.5159                 1.2525                 1.5771
 Frc consts  --      1.8811                 0.5454                 0.8041
 IR Inten    --     19.1413                 0.1155                 5.5441

                     34                     35                     36
                      A                      A                      A
 Frequencies --    945.3713               964.3267               966.1519
 Red. masses --      6.2298                 4.0416                 1.5497
 Frc consts  --      3.2804                 2.2144                 0.8523
 IR Inten    --     39.4705                22.3664                 4.0423

                     37                     38                     39
                      A                      A                      A
 Frequencies --    968.5090               996.0247              1022.5888
 Red. masses --      1.3460                 1.2509                 6.1504
 Frc consts  --      0.7439                 0.7312                 3.7893
 IR Inten    --      0.4388                 0.1174                 0.7654

                     40                     41                     42
                      A                      A                      A
 Frequencies --   1062.2272              1113.9007              1145.7507
 Red. masses --      2.1757                 1.5807                 2.9547
 Frc consts  --      1.4464                 1.1555                 2.2853
 IR Inten    --      2.4195                 3.4108                 1.1542

                     43                     44                     45
                      A                      A                      A
 Frequencies --   1194.9519              1214.0189              1217.1227
 Red. masses --      1.0966                 6.6163                 1.1654
 Frc consts  --      0.9226                 5.7453                 1.0172
 IR Inten    --      0.0696                59.7941                 5.2910

                     46                     47                     48
                      A                      A                      A
 Frequencies --   1249.7778              1279.7586              1295.4455
 Red. masses --      1.9054                 3.3343                 6.6480
 Frc consts  --      1.7535                 3.2174                 6.5733
 IR Inten    --      0.9629                 0.2069                18.6861

                     49                     50                     51
                      A                      A                      A
 Frequencies --   1319.4751              1339.7524              1367.8714
 Red. masses --      7.8668                 3.1406                 1.8620
 Frc consts  --      8.0695                 3.3213                 2.0526
 IR Inten    --     13.8039                 9.4766                 1.8503

                     52                     53                     54
                      A                      A                      A
 Frequencies --   1383.4413              1404.4594              1470.7778
 Red. masses --      3.2820                 6.4424                 2.7418
 Frc consts  --      3.7009                 7.4872                 3.4945
 IR Inten    --     67.7245               211.3246               210.4093

                     55                     56                     57
                      A                      A                      A
 Frequencies --   1493.0383              1532.3690              1556.8800
 Red. masses --      2.3108                 2.9617                 3.9706
 Frc consts  --      3.0350                 4.0975                 5.6704
 IR Inten    --      3.4900                 4.2183               120.2415

                     58                     59                     60
                      A                      A                      A
 Frequencies --   1580.4490              1599.8604              1639.7340
 Red. masses --      6.8046                 9.5442                 5.5193
 Frc consts  --     10.0142                14.3931                 8.7434
 IR Inten    --    148.3325               143.3856                 1.5732

                     61                     62                     63
                      A                      A                      A
 Frequencies --   1666.3914              2294.2396              3184.9535
 Red. masses --      5.6161                13.9922                 1.0850
 Frc consts  --      9.1884                43.3924                 6.4844
 IR Inten    --      3.7227               743.6066                 1.6147

                     64                     65                     66
                      A                      A                      A
 Frequencies --   3192.6086              3201.9456              3205.8221
 Red. masses --      1.0880                 1.0921                 1.0914
 Frc consts  --      6.5336                 6.5967                 6.6085
 IR Inten    --      2.6726                23.8956                24.8137

                     67                     68                     69
                      A                      A                      A
 Frequencies --   3210.8105              3218.6529              3266.3232
 Red. masses --      1.0953                 1.0960                 1.0934
 Frc consts  --      6.6528                 6.6896                 6.8731
 IR Inten    --     33.1322                 8.0195                 3.5018

 - Thermochemistry -
 -------------------
 Temperature   298.150 Kelvin.  Pressure   1.00000 Atm.
 Atom     1 has atomic number  6 and mass  12.00000

 Molecular mass:   253.04222 amu.
 Principal axes and moments of inertia in atomic units:
                           1         2         3
     Eigenvalues --  3488.727235150.631688230.93419
           X            0.99980  -0.01979  -0.00085
           Y            0.01980   0.99976   0.00973
           Z            0.00066  -0.00974   0.99995
 This molecule is an asymmetric top.
 Rotational symmetry number  1.
 Warning -- assumption of classical behavior for rotation
           may cause significant error
 Rotational temperatures (Kelvin)      0.02483     0.01682     0.01052
 Rotational constants (GHZ):           0.51731     0.35039     0.21926
 Zero-point vibrational energy     459918.2 (Joules/Mol)
                                  109.92310 (Kcal/Mol)
 Warning -- explicit consideration of  20 degrees of freedom as
           vibrations may cause significant error
 Vibrational temperatures:     64.35    67.68   103.72   120.23   179.00
          (Kelvin)            220.02   295.80   331.99   378.34   407.94
                              448.49   521.49   603.66   612.55   671.91
                              708.51   744.78   796.91   802.70   878.45
                              898.97   913.19   946.67   963.47  1026.40
                             1100.64  1139.74  1150.25  1158.04  1161.42
                             1209.77  1236.92  1338.48  1360.18  1387.45
                             1390.08  1393.47  1433.06  1471.28  1528.31
                             1602.65  1648.48  1719.27  1746.70  1751.17
                             1798.15  1841.29  1863.86  1898.43  1927.60
                             1968.06  1990.46  2020.70  2116.12  2148.15
                             2204.74  2240.00  2273.91  2301.84  2359.21
                             2397.57  3300.90  4582.44  4593.45  4606.89
                             4612.46  4619.64  4630.92  4699.51

 Zero-point correction=                           0.175174 (Hartree/Particle)
 Thermal correction to Energy=                    0.188807
 Thermal correction to Enthalpy=                  0.189751
 Thermal correction to Gibbs Free Energy=         0.133315
 Sum of electronic and zero-point Energies=          -1133.270448
 Sum of electronic and thermal Energies=             -1133.256814
 Sum of electronic and thermal Enthalpies=           -1133.255870
 Sum of electronic and thermal Free Energies=        -1133.312306

                     E (Thermal)             CV                S
                      KCal/Mol        Cal/Mol-Kelvin    Cal/Mol-Kelvin
 Total                  118.478             52.726            118.780
 Electronic               0.000              0.000              0.000
 Translational            0.889              2.981             42.485
 Rotational               0.889              2.981             33.358
 Vibrational            116.701             46.765             42.936
 Vibration     1          0.595              1.980              5.038
 Vibration     2          0.595              1.979              4.938
 Vibration     3          0.598              1.967              4.096
 Vibration     4          0.600              1.960              3.805
 Vibration     5          0.610              1.929              3.031
 Vibration     6          0.619              1.899              2.636
 Vibration     7          0.640              1.832              2.083
 Vibration     8          0.652              1.794              1.873
 Vibration     9          0.670              1.741              1.642
 Vibration    10          0.682              1.704              1.512
 Vibration    11          0.700              1.651              1.353
 Vibration    12          0.736              1.550              1.112
 Vibration    13          0.782              1.428              0.893
 Vibration    14          0.788              1.414              0.873
 Vibration    15          0.824              1.323              0.746
 Vibration    16          0.848              1.267              0.677
 Vibration    17          0.873              1.211              0.615
 Vibration    18          0.909              1.131              0.536
 Vibration    19          0.913              1.122              0.528
 Vibration    20          0.970              1.009              0.432

 Optimization completed.
    -- Stationary point found.
 Normal termination of Gaussian 16 at Fri Dec 11 21:02:32 2020.

 ----------------------------------------------------------------------
 # B3LYP/6-311++G(d,p) empiricaldispersion=gd3bj scf=xqc pop=npa geom=c
 heck
 ----------------------------------------------------------------------

 ---------------------------------------
 CID_152037005_JID_8520_Energie_neutraal
 ---------------------------------------
 Structure from the checkpoint file:  "JID_8520.chk"
 Charge =  0 Multiplicity = 1

 SCF Done:  E(RB3LYP) =  -1133.65533605     A.U. after   18 cycles
 Normal termination of Gaussian 16 at Fri Dec 11 21:06:23 2020.

 ----------------------------------------------------------------------
 # B3LYP/6-311++G(d,p) empiricaldispersion=gd3bj scf=xqc pop=npa geom=c
 heck
 ----------------------------------------------------------------------

 -------------------------------------
 CID_152037005_JID_8520_Energie_kation
 -------------------------------------
 Structure from the checkpoint file:  "JID_8520.chk"
 Charge =  1 Multiplicity = 2

 SCF Done:  E(UB3LYP) =  -1133.36138935     A.U. after   27 cycles
 Normal termination of Gaussian 16 at Fri Dec 11 21:14:17 2020.
 Gaussian 16:  ES64L-G16RevA.03 25-Dec-2016

 ----------------------------------------------------------------------
 # B3LYP/6-311++G(d,p) empiricaldispersion=gd3bj scf=xqc pop=npa geom=c
 heck
 ----------------------------------------------------------------------

 ------------------------------------
 CID_152037005_JID_8520_Energie_anion
 ------------------------------------
 Structure from the checkpoint file:  "JID_8520.chk"
 Charge = -1 Multiplicity = 2

                         Standard orientation:
 ---------------------------------------------------------------------
 Center     Atomic      Atomic             Coordinates (Angstroms)
 Number     Number       Type             X           Y           Z
 ---------------------------------------------------------------------
      1          6           0        4.344467    0.085679    0.102735
      2          6           0        3.891066   -0.829569   -0.847264
      3          6           0        2.546609   -1.197426   -0.877168
      4          6           0        1.637094   -0.655693    0.042154
      5          6           0        2.103800    0.261249    0.995510
      6          6           0        3.446334    0.628852    1.023905
      7          6           0        0.226611   -1.102492    0.034420
      8          6           0       -0.114233   -2.426566    0.043353
      9         16           0       -1.831483   -2.746247    0.072731
     10          6           0       -2.157611   -1.025272    0.067822
     11          7           0       -3.394813   -0.524933    0.068764
     12          6           0       -3.442410    0.804728    0.025792
     13          7           0       -2.403245    1.649606   -0.043849
     14          6           0       -1.177530    1.122750   -0.050667
     15          6           0       -0.959342   -0.269531    0.036634
     16          7           0       -0.073675    1.977430   -0.165305
     17          7           0       -0.333370    3.193419   -0.259318
     18          7           0       -0.406447    4.320856   -0.353489
     19          1           0        5.390998    0.375780    0.125378
     20          1           0        4.581767   -1.253182   -1.570836
     21          1           0        2.187790   -1.895832   -1.627683
     22          1           0        1.411503    0.677367    1.719525
     23          1           0        3.793720    1.337663    1.770207
     24          1           0        0.578926   -3.256598    0.070324
     25          1           0       -4.429250    1.259852    0.038408
 ---------------------------------------------------------------------

 SCF Done:  E(UB3LYP) =  -1133.67671731     A.U. after   32 cycles

 The electronic state is 2-A.
 Alpha  occ. eigenvalues --  -88.74921 -14.33424 -14.24315 -14.22911 -14.16793
 Alpha  occ. eigenvalues --  -14.16399 -10.10704 -10.09799 -10.09387 -10.07785
 Alpha  occ. eigenvalues --  -10.07597 -10.07414 -10.07358 -10.06967 -10.06744
 Alpha  occ. eigenvalues --  -10.06372 -10.06022 -10.05593  -7.83561  -5.79840
 Alpha  occ. eigenvalues --   -5.79515  -5.79131  -1.00661  -0.86630  -0.83533
 Alpha  occ. eigenvalues --   -0.76345  -0.75295  -0.73255  -0.66188  -0.64639
 Alpha  occ. eigenvalues --   -0.63808  -0.59600  -0.55208  -0.51479  -0.50671
 Alpha  occ. eigenvalues --   -0.49348  -0.45376  -0.42531  -0.41680  -0.39122
 Alpha  occ. eigenvalues --   -0.38314  -0.36489  -0.35742  -0.34810  -0.33531
 Alpha  occ. eigenvalues --   -0.32453  -0.32213  -0.31397  -0.30478  -0.30143
 Alpha  occ. eigenvalues --   -0.27083  -0.26616  -0.25109  -0.24654  -0.23628
 Alpha  occ. eigenvalues --   -0.22743  -0.21447  -0.18907  -0.17077  -0.15697
 Alpha  occ. eigenvalues --   -0.15338  -0.14187  -0.12656  -0.12464  -0.09580
 Alpha  occ. eigenvalues --    0.03435
 Alpha virt. eigenvalues --    0.07061   0.07608   0.08529   0.08651   0.09323
 Alpha virt. eigenvalues --    0.09618   0.09922   0.10469   0.10703   0.11822
 Alpha virt. eigenvalues --    0.12651   0.13093   0.13402   0.14020   0.14700

  Beta  occ. eigenvalues --  -88.74925 -14.33125 -14.23902 -14.23113 -14.16790
  Beta  occ. eigenvalues --  -14.16065 -10.10728 -10.09315 -10.09270 -10.07762
  Beta  occ. eigenvalues --  -10.07600 -10.07409 -10.07329 -10.06955 -10.06733
  Beta  occ. eigenvalues --  -10.06068 -10.05974 -10.05591  -7.83564  -5.79849
  Beta  occ. eigenvalues --   -5.79524  -5.79129  -1.00117  -0.86300  -0.83247
  Beta  occ. eigenvalues --   -0.76197  -0.75078  -0.72855  -0.66097  -0.64581
  Beta  occ. eigenvalues --   -0.63385  -0.59424  -0.54669  -0.51371  -0.50600
  Beta  occ. eigenvalues --   -0.49159  -0.45135  -0.42453  -0.41450  -0.39012
  Beta  occ. eigenvalues --   -0.36878  -0.36281  -0.35608  -0.34679  -0.33364
  Beta  occ. eigenvalues --   -0.32208  -0.31853  -0.31125  -0.29948  -0.29498
  Beta  occ. eigenvalues --   -0.26936  -0.26468  -0.25046  -0.24522  -0.22809
  Beta  occ. eigenvalues --   -0.22643  -0.19980  -0.18887  -0.16796  -0.15436
  Beta  occ. eigenvalues --   -0.15211  -0.13390  -0.12325  -0.12185  -0.08285
  Beta virt. eigenvalues --    0.07034   0.08010   0.08563   0.08647   0.09309
  Beta virt. eigenvalues --    0.09849   0.09974   0.10166   0.10510   0.10801
  Beta virt. eigenvalues --    0.11864   0.12643   0.13094   0.13425   0.14326

 Mulliken charges and spin densities:
               1          2
     1  C   -0.189145   0.029735
     2  C   -0.349627  -0.008869
     3  C   -0.295019   0.018258
     4  C    0.976596   0.096692
     5  C   -0.254360  -0.049129
     6  C   -0.501952   0.002134
     7  C   -0.237426  -0.064334
     8  C   -0.353995   0.302247
     9  S   -0.487222  -0.011158
    10  C   -0.855451  -0.019596
    11  N   -0.093693   0.150856
    12  C    0.194524   0.058565
    13  N   -0.183988   0.004593
    14  C   -0.741969   0.320790
    15  C    1.051598  -0.024928
    16  N   -1.011408  -0.120750
    17  N    1.271438   0.099196
    18  N   -0.084961   0.233685
    19  H    0.126005  -0.002419
    20  H    0.132036   0.002206
    21  H    0.161256   0.001854
    22  H    0.179936   0.001625
    23  H    0.142623   0.001926
    24  H    0.224285  -0.017503
    25  H    0.179920  -0.005675
 Sum of Mulliken charges =  -1.00000   1.00000

 Dipole moment (field-independent basis, Debye):
    X=              5.2390    Y=             -3.1880    Z=              0.3614  Tot=              6.1434
 Quadrupole moment (field-independent basis, Debye-Ang):
   XX=           -144.5020   YY=           -149.6672   ZZ=           -115.6814
   XY=              0.3536   XZ=             -0.5827   YZ=              5.3519

 Summary of Natural Population Analysis:

                                       Natural Population
                Natural  -----------------------------------------------
    Atom  No    Charge         Core      Valence    Rydberg      Total
 -----------------------------------------------------------------------
      C    1   -0.10728      0.99957     2.09827    0.00943     3.10728
      C    2   -0.10865      0.99957     2.09981    0.00927     3.10865
      C    3   -0.09564      0.99953     2.08765    0.00846     3.09564
      C    4   -0.00903      0.99949     1.99934    0.01020     3.00903
      C    5   -0.07984      0.99952     2.07232    0.00800     3.07984
      C    6   -0.10620      0.99957     2.09758    0.00905     3.10620
      C    7   -0.06586      0.99948     2.04887    0.01751     3.06586
      C    8   -0.11253      0.99947     2.10414    0.00892     3.11253
      S    9    0.17314      4.99944     2.80476    0.02266     7.82686
      C   10    0.01623      0.99952     1.96382    0.02043     2.98377
      N   11   -0.22875      0.99964     2.71681    0.01229     3.72875
      C   12    0.14568      0.99968     1.83407    0.02057     2.85432
      N   13   -0.27857      0.99968     2.76877    0.01012     3.77857
      C   14    0.26227      0.99952     1.71835    0.01986     2.73773
      C   15   -0.01963      0.99938     2.00757    0.01268     3.01963
      N   16   -0.22525      0.99965     2.70939    0.01621     3.72525
      N   17    0.15838      0.99971     2.32534    0.01658     3.34162
      N   18    0.01979      0.99981     2.46732    0.01307     3.48021
      H   19    0.09388      0.00000     0.40515    0.00097     0.40612
      H   20    0.09461      0.00000     0.40437    0.00102     0.40539
      H   21    0.10119      0.00000     0.39747    0.00134     0.39881
      H   22    0.10602      0.00000     0.39269    0.00129     0.39398
      H   23    0.09595      0.00000     0.40306    0.00099     0.40405
      H   24    0.09981      0.00000     0.39925    0.00093     0.40019
      H   25    0.07346      0.00000     0.42529    0.00125     0.42654
 =======================================================================
   * Total *    0.00320     21.99225    42.75146    0.25310    64.99680

 Normal termination of Gaussian 16 at Fri Dec 11 21:23:37 2020.
