 Gaussian 16, Revision A.03,

 -----------------------------------------------------------
 # opt freq B3LYP/6-31G(d) empiricaldispersion=gd3bj scf=xqc
 -----------------------------------------------------------

 -------------------------------
 CID_136293678_JID_4611_neutraal
 -------------------------------
 Symbolic Z-matrix:
 Charge =  0 Multiplicity = 1

 SCF Done:  E(RB3LYP) =  -682.695968145     A.U. after   15 cycles
 SCF Done:  E(RB3LYP) =  -682.698127788     A.U. after   13 cycles
 SCF Done:  E(RB3LYP) =  -682.695794525     A.U. after   13 cycles
 SCF Done:  E(RB3LYP) =  -682.699236588     A.U. after   12 cycles
 SCF Done:  E(RB3LYP) =  -682.701678496     A.U. after   12 cycles
 SCF Done:  E(RB3LYP) =  -682.702287286     A.U. after   12 cycles
 SCF Done:  E(RB3LYP) =  -682.702362600     A.U. after   11 cycles
 SCF Done:  E(RB3LYP) =  -682.702436529     A.U. after   11 cycles
 SCF Done:  E(RB3LYP) =  -682.702449579     A.U. after   10 cycles
 SCF Done:  E(RB3LYP) =  -682.702453167     A.U. after    9 cycles
 SCF Done:  E(RB3LYP) =  -682.702453816     A.U. after    8 cycles
 SCF Done:  E(RB3LYP) =  -682.702454027     A.U. after    8 cycles
 SCF Done:  E(RB3LYP) =  -682.702454112     A.U. after    7 cycles
 SCF Done:  E(RB3LYP) =  -682.702454122     A.U. after    6 cycles
 Optimization completed.
    -- Stationary point found.
 Normal termination of Gaussian 16 at Thu Dec 10 10:12:58 2020.

 --------------------------------------------------------------------
 #N Geom=AllCheck Guess=TCheck SCRF=Check GenChk RB3LYP/6-31G(d) Freq
 --------------------------------------------------------------------

 Structure from the checkpoint file:  "JID_4611.chk"
 -------------------------------
 CID_136293678_JID_4611_neutraal
 -------------------------------
 Charge =  0 Multiplicity = 1

 SCF Done:  E(RB3LYP) =  -682.702454122     A.U. after    1 cycles

  Exact polarizability: 142.967   2.697 131.215  -0.715  -0.619  74.124
 Approx polarizability: 190.946   2.643 209.514   1.704  -0.707 117.539

                      1                      2                      3
                      A                      A                      A
 Frequencies --     41.0738                54.4498                71.0685
 Red. masses --      4.3204                 3.9714                 3.5048
 Frc consts  --      0.0043                 0.0069                 0.0104
 IR Inten    --      0.3344                 1.7689                 0.2517

                      4                      5                      6
                      A                      A                      A
 Frequencies --    113.3086               121.5760               137.1749
 Red. masses --      2.9353                 4.1297                 4.2480
 Frc consts  --      0.0222                 0.0360                 0.0471
 IR Inten    --      8.1037                 3.2998                 1.2125

                      7                      8                      9
                      A                      A                      A
 Frequencies --    171.5725               204.8828               215.3001
 Red. masses --      4.9695                 2.7745                 2.1713
 Frc consts  --      0.0862                 0.0686                 0.0593
 IR Inten    --      2.0807                 3.0617                 3.0093

                     10                     11                     12
                      A                      A                      A
 Frequencies --    248.3291               265.2815               277.1938
 Red. masses --      3.1936                 3.3815                 1.8344
 Frc consts  --      0.1160                 0.1402                 0.0830
 IR Inten    --     29.6996                 1.2226                 6.5554

                     13                     14                     15
                      A                      A                      A
 Frequencies --    310.1373               323.7869               367.1522
 Red. masses --      2.1172                 1.5925                 2.3287
 Frc consts  --      0.1200                 0.0984                 0.1849
 IR Inten    --     39.7801                59.0182                 2.8013

                     16                     17                     18
                      A                      A                      A
 Frequencies --    391.8695               445.8306               472.7442
 Red. masses --      2.7959                 1.1926                 3.6797
 Frc consts  --      0.2530                 0.1397                 0.4845
 IR Inten    --      5.9866                28.9479                 1.2160

                     19                     20                     21
                      A                      A                      A
 Frequencies --    529.9675               574.1619               604.7948
 Red. masses --      2.9052                 4.3686                 3.5894
 Frc consts  --      0.4808                 0.8485                 0.7735
 IR Inten    --      0.4111                14.4829                 7.2841

                     22                     23                     24
                      A                      A                      A
 Frequencies --    648.5918               660.1681               705.1853
 Red. masses --      5.0428                 4.1712                 2.8497
 Frc consts  --      1.2499                 1.0711                 0.8350
 IR Inten    --     10.5085                27.2084                18.6414

                     25                     26                     27
                      A                      A                      A
 Frequencies --    724.6448               770.5629               800.1486
 Red. masses --      2.5223                 2.8351                 1.2648
 Frc consts  --      0.7804                 0.9918                 0.4771
 IR Inten    --    223.4697                78.0494                61.9098

                     28                     29                     30
                      A                      A                      A
 Frequencies --    820.1344               860.0432               893.3008
 Red. masses --      1.7523                 1.2919                 2.7363
 Frc consts  --      0.6944                 0.5630                 1.2865
 IR Inten    --      2.5276                 0.5252                 3.2395

                     31                     32                     33
                      A                      A                      A
 Frequencies --    932.5552               948.7706               973.1769
 Red. masses --      2.8585                 4.1371                 5.3736
 Frc consts  --      1.4647                 2.1941                 2.9985
 IR Inten    --      7.1157                13.5319                96.9197

                     34                     35                     36
                      A                      A                      A
 Frequencies --   1056.9805              1078.5796              1101.9777
 Red. masses --      2.0377                 1.9303                 1.7846
 Frc consts  --      1.3413                 1.3231                 1.2769
 IR Inten    --      6.5065                 3.0324                22.5448

                     37                     38                     39
                      A                      A                      A
 Frequencies --   1123.3528              1144.4512              1166.5093
 Red. masses --      2.0882                 2.0216                 4.2643
 Frc consts  --      1.5526                 1.5601                 3.4188
 IR Inten    --     21.0343                95.4108               117.7725

                     40                     41                     42
                      A                      A                      A
 Frequencies --   1182.6191              1194.5207              1205.3679
 Red. masses --      1.7830                 1.2810                 1.9345
 Frc consts  --      1.4693                 1.0770                 1.6560
 IR Inten    --     14.0008                 1.8406                 8.9316

                     43                     44                     45
                      A                      A                      A
 Frequencies --   1225.6572              1258.7642              1269.9402
 Red. masses --      1.6577                 1.7469                 1.2823
 Frc consts  --      1.4673                 1.6309                 1.2184
 IR Inten    --     11.6887                 6.1649                20.8888

                     46                     47                     48
                      A                      A                      A
 Frequencies --   1306.7739              1325.9258              1352.0162
 Red. masses --      1.9633                 1.6274                 2.1032
 Frc consts  --      1.9754                 1.6857                 2.2652
 IR Inten    --     18.0536                62.2163                38.7015

                     49                     50                     51
                      A                      A                      A
 Frequencies --   1400.3519              1408.6846              1420.5081
 Red. masses --      1.5346                 1.4608                 1.8386
 Frc consts  --      1.7731                 1.7079                 2.1859
 IR Inten    --      7.6926                18.4094                16.5292

                     52                     53                     54
                      A                      A                      A
 Frequencies --   1425.6130              1449.9529              1482.7496
 Red. masses --      1.7557                 1.3764                 5.5719
 Frc consts  --      2.1023                 1.7049                 7.2176
 IR Inten    --      2.4779                13.2339                30.4574

                     55                     56                     57
                      A                      A                      A
 Frequencies --   1485.0739              1503.6473              1507.7699
 Red. masses --      2.4307                 1.1738                 1.1144
 Frc consts  --      3.1584                 1.5637                 1.4927
 IR Inten    --     54.3954                 2.2641                 3.4313

                     58                     59                     60
                      A                      A                      A
 Frequencies --   1515.4161              1526.1582              1533.4448
 Red. masses --      1.0478                 1.3338                 1.0631
 Frc consts  --      1.4177                 1.8304                 1.4729
 IR Inten    --      5.2960                18.0595                10.1412

                     61                     62                     63
                      A                      A                      A
 Frequencies --   1559.9014              1562.6361              1660.5085
 Red. masses --      1.0972                 3.6330                 1.1726
 Frc consts  --      1.5730                 5.2268                 1.9049
 IR Inten    --      5.8870                 6.2319               104.0641

                     64                     65                     66
                      A                      A                      A
 Frequencies --   1728.3209              2987.3545              2998.6409
 Red. masses --      7.1639                 1.0471                 1.0472
 Frc consts  --     12.6081                 5.5055                 5.5479
 IR Inten    --     74.1493                28.2060                83.9101

                     67                     68                     69
                      A                      A                      A
 Frequencies --   3020.8887              3039.5953              3065.4255
 Red. masses --      1.1034                 1.1047                 1.0696
 Frc consts  --      5.9327                 6.0136                 5.9217
 IR Inten    --     53.9291                59.5092                41.5703

                     70                     71                     72
                      A                      A                      A
 Frequencies --   3104.4101              3139.7727              3142.0182
 Red. masses --      1.0664                 1.0972                 1.0941
 Frc consts  --      6.0551                 6.3729                 6.3640
 IR Inten    --     14.8813                31.3172                13.5702

                     73                     74                     75
                      A                      A                      A
 Frequencies --   3176.6859              3261.4679              3301.2498
 Red. masses --      1.1012                 1.0937                 1.1018
 Frc consts  --      6.5471                 6.8543                 7.0748
 IR Inten    --      4.3307                10.9104                 4.5027

                     76                     77                     78
                      A                      A                      A
 Frequencies --   3531.0835              3640.6405              3775.4334
 Red. masses --      1.0470                 1.0988                 1.0677
 Frc consts  --      7.6913                 8.5804                 8.9669
 IR Inten    --     26.5753                28.9655                67.6593

 - Thermochemistry -
 -------------------
 Temperature   298.150 Kelvin.  Pressure   1.00000 Atm.
 Atom     1 has atomic number  6 and mass  12.00000

 Molecular mass:   198.11168 amu.
 Principal axes and moments of inertia in atomic units:
                           1         2         3
     Eigenvalues --  1451.255544168.388815253.85479
           X            0.99998   0.00037  -0.00653
           Y           -0.00036   1.00000   0.00043
           Z            0.00653  -0.00043   0.99998
 This molecule is an asymmetric top.
 Rotational symmetry number  1.
 Warning -- assumption of classical behavior for rotation
           may cause significant error
 Rotational temperatures (Kelvin)      0.05968     0.02078     0.01649
 Rotational constants (GHZ):           1.24357     0.43296     0.34351
 Zero-point vibrational energy     616243.0 (Joules/Mol)
                                  147.28560 (Kcal/Mol)
 Warning -- explicit consideration of  21 degrees of freedom as
           vibrations may cause significant error
 Vibrational temperatures:     59.10    78.34   102.25   163.03   174.92
          (Kelvin)            197.36   246.85   294.78   309.77   357.29
                              381.68   398.82   446.22   465.86   528.25
                              563.81   641.45   680.17   762.51   826.09
                              870.16   933.18   949.83  1014.60  1042.60
                             1108.67  1151.24  1179.99  1237.41  1285.26
                             1341.74  1365.07  1400.18  1520.76  1551.84
                             1585.50  1616.25  1646.61  1678.35  1701.53
                             1718.65  1734.26  1763.45  1811.08  1827.16
                             1880.16  1907.71  1945.25  2014.79  2026.78
                             2043.79  2051.14  2086.16  2133.35  2136.69
                             2163.41  2169.34  2180.35  2195.80  2206.29
                             2244.35  2248.28  2389.10  2486.67  4298.14
                             4314.38  4346.39  4373.30  4410.46  4466.55
                             4517.43  4520.66  4570.54  4692.52  4749.76
                             5080.44  5238.07  5432.01

 Zero-point correction=                           0.234715 (Hartree/Particle)
 Thermal correction to Energy=                    0.249009
 Thermal correction to Enthalpy=                  0.249953
 Thermal correction to Gibbs Free Energy=         0.193241
 Sum of electronic and zero-point Energies=           -682.467740
 Sum of electronic and thermal Energies=              -682.453445
 Sum of electronic and thermal Enthalpies=            -682.452501
 Sum of electronic and thermal Free Energies=         -682.509213

                     E (Thermal)             CV                S
                      KCal/Mol        Cal/Mol-Kelvin    Cal/Mol-Kelvin
 Total                  156.256             52.861            119.361
 Electronic               0.000              0.000              0.000
 Translational            0.889              2.981             41.756
 Rotational               0.889              2.981             31.830
 Vibrational            154.478             46.899             45.775
 Vibration     1          0.594              1.981              5.207
 Vibration     2          0.596              1.976              4.649
 Vibration     3          0.598              1.968              4.124
 Vibration     4          0.607              1.938              3.211
 Vibration     5          0.609              1.931              3.075
 Vibration     6          0.614              1.916              2.843
 Vibration     7          0.626              1.877              2.418
 Vibration     8          0.640              1.833              2.089
 Vibration     9          0.645              1.818              1.998
 Vibration    10          0.662              1.766              1.742
 Vibration    11          0.671              1.737              1.627
 Vibration    12          0.678              1.716              1.551
 Vibration    13          0.699              1.654              1.362
 Vibration    14          0.708              1.628              1.291
 Vibration    15          0.740              1.540              1.092
 Vibration    16          0.759              1.488              0.993
 Vibration    17          0.805              1.370              0.808
 Vibration    18          0.830              1.311              0.730
 Vibration    19          0.885              1.184              0.587
 Vibration    20          0.930              1.087              0.496
 Vibration    21          0.963              1.022              0.441

 Optimization completed.
    -- Stationary point found.
 Normal termination of Gaussian 16 at Thu Dec 10 10:20:45 2020.

 ----------------------------------------------------------------------
 # B3LYP/6-311++G(d,p) empiricaldispersion=gd3bj scf=xqc pop=npa geom=c
 heck
 ----------------------------------------------------------------------

 ---------------------------------------
 CID_136293678_JID_4611_Energie_neutraal
 ---------------------------------------
 Structure from the checkpoint file:  "JID_4611.chk"
 Charge =  0 Multiplicity = 1

 SCF Done:  E(RB3LYP) =  -682.910843390     A.U. after   15 cycles
 Normal termination of Gaussian 16 at Thu Dec 10 10:23:40 2020.

 ----------------------------------------------------------------------
 # B3LYP/6-311++G(d,p) empiricaldispersion=gd3bj scf=xqc pop=npa geom=c
 heck
 ----------------------------------------------------------------------

 -------------------------------------
 CID_136293678_JID_4611_Energie_kation
 -------------------------------------
 Structure from the checkpoint file:  "JID_4611.chk"
 Charge =  1 Multiplicity = 2

 SCF Done:  E(UB3LYP) =  -682.621701519     A.U. after   23 cycles
 Normal termination of Gaussian 16 at Thu Dec 10 10:29:46 2020.
 Gaussian 16:  ES64L-G16RevA.03 25-Dec-2016

 ----------------------------------------------------------------------
 # B3LYP/6-311++G(d,p) empiricaldispersion=gd3bj scf=xqc pop=npa geom=c
 heck
 ----------------------------------------------------------------------

 ------------------------------------
 CID_136293678_JID_4611_Energie_anion
 ------------------------------------
 Structure from the checkpoint file:  "JID_4611.chk"
 Charge = -1 Multiplicity = 2

                         Standard orientation:
 ---------------------------------------------------------------------
 Center     Atomic      Atomic             Coordinates (Angstroms)
 Number     Number       Type             X           Y           Z
 ---------------------------------------------------------------------
      1          6           0        4.399377    0.503787   -0.012047
      2          8           0        3.258158   -0.174514    0.470503
      3          6           0        2.540064   -0.830859   -0.563616
      4          6           0        1.369013   -1.590496    0.041797
      5          6           0        0.455486   -0.756435    0.947229
      6          7           0       -0.128402    0.414541    0.288381
      7          6           0        0.563957    1.583760    0.048529
      8          6           0       -0.353452    2.477738   -0.449111
      9          7           0       -1.593457    1.899531   -0.504605
     10          6           0       -1.433096    0.655383   -0.065770
     11          6           0       -2.607906   -0.225395    0.110026
     12          7           0       -2.743360   -1.482028   -0.150518
     13          8           0       -1.556438   -2.046332   -0.697469
     14          7           0       -3.707514    0.452539    0.623872
     15          1           0        4.882325    0.977611    0.846160
     16          1           0        4.130357    1.278850   -0.747543
     17          1           0        5.110094   -0.190484   -0.486995
     18          1           0        2.183602   -0.093566   -1.300258
     19          1           0        3.201503   -1.532544   -1.097591
     20          1           0        0.772381   -2.015136   -0.768928
     21          1           0        1.753455   -2.419379    0.649046
     22          1           0       -0.365600   -1.375936    1.304838
     23          1           0        1.020230   -0.393036    1.809356
     24          1           0        1.613671    1.653892    0.287093
     25          1           0       -0.191435    3.500412   -0.761103
     26          1           0       -1.839504   -2.959173   -0.853073
     27          1           0       -3.686162    1.437363    0.379573
     28          1           0       -4.590212    0.000913    0.413006
 ---------------------------------------------------------------------

 SCF Done:  E(UB3LYP) =  -682.896533006     A.U. after   33 cycles
 SCF Done:  E(UB3LYP) =  -682.896533006     a.u. after    1 cycles

 The electronic state is 2-A.
 Alpha  occ. eigenvalues --  -19.06019 -19.02953 -14.27849 -14.24756 -14.22904
 Alpha  occ. eigenvalues --  -14.20399 -10.15211 -10.13877 -10.11586 -10.11419
 Alpha  occ. eigenvalues --  -10.11033 -10.10036 -10.09158 -10.07037  -0.97670
 Alpha  occ. eigenvalues --   -0.94193  -0.92711  -0.84598  -0.79545  -0.72875
 Alpha  occ. eigenvalues --   -0.68867  -0.65959  -0.61595  -0.56708  -0.53652
 Alpha  occ. eigenvalues --   -0.50993  -0.50502  -0.47121  -0.43952  -0.41575
 Alpha  occ. eigenvalues --   -0.39619  -0.38720  -0.38431  -0.37487  -0.36585
 Alpha  occ. eigenvalues --   -0.36146  -0.35094  -0.33446  -0.32645  -0.31799
 Alpha  occ. eigenvalues --   -0.31245  -0.30240  -0.27528  -0.26187  -0.25129
 Alpha  occ. eigenvalues --   -0.23977  -0.22740  -0.19649  -0.18453  -0.18012
 Alpha  occ. eigenvalues --   -0.16779  -0.14651  -0.12347   0.04529
 Alpha virt. eigenvalues --    0.06198   0.06406   0.07313   0.07917   0.08569
 Alpha virt. eigenvalues --    0.08891   0.10564   0.10649   0.10943   0.11720
 Alpha virt. eigenvalues --    0.12069   0.12642   0.12845   0.13883   0.14398

  Beta  occ. eigenvalues --  -19.05986 -19.02939 -14.27828 -14.24691 -14.22893
  Beta  occ. eigenvalues --  -14.20374 -10.15188 -10.13849 -10.11567 -10.11411
  Beta  occ. eigenvalues --  -10.10983 -10.10009 -10.09162 -10.07016  -0.97586
  Beta  occ. eigenvalues --   -0.94172  -0.92668  -0.84555  -0.79496  -0.72791
  Beta  occ. eigenvalues --   -0.68828  -0.65900  -0.61544  -0.56621  -0.53560
  Beta  occ. eigenvalues --   -0.50966  -0.50438  -0.47060  -0.43909  -0.41524
  Beta  occ. eigenvalues --   -0.39549  -0.38679  -0.38372  -0.37443  -0.36540
  Beta  occ. eigenvalues --   -0.36073  -0.35037  -0.33386  -0.32590  -0.31734
  Beta  occ. eigenvalues --   -0.31187  -0.30154  -0.27477  -0.26145  -0.25085
  Beta  occ. eigenvalues --   -0.23903  -0.22663  -0.19573  -0.18380  -0.17892
  Beta  occ. eigenvalues --   -0.16750  -0.14528  -0.12174
  Beta virt. eigenvalues --    0.06613   0.07077   0.07493   0.07592   0.08539
  Beta virt. eigenvalues --    0.09089   0.09595   0.10879   0.11086   0.11424
  Beta virt. eigenvalues --    0.12097   0.12230   0.12865   0.13072   0.14063

 Mulliken charges and spin densities:
               1          2
     1  C    1.190568  -1.435140
     2  O   -0.187111   0.066581
     3  C   -0.377185  -0.017305
     4  C    0.738028  -1.091814
     5  C   -0.582778   0.237705
     6  N    0.137965   0.062211
     7  C    0.802610  -0.602367
     8  C   -0.450544   0.123987
     9  N   -0.090581   0.016579
    10  C   -0.197541  -0.241095
    11  C    0.068563  -0.081761
    12  N   -0.305735  -0.032720
    13  O   -0.134817   0.018393
    14  N   -0.239756  -0.044331
    15  H   -0.457206   0.603845
    16  H   -0.323684   0.441333
    17  H   -0.457040   0.594242
    18  H    0.259947  -0.085527
    19  H   -0.614528   0.769988
    20  H    0.167918   0.029981
    21  H   -0.303001   0.479815
    22  H    0.002237   0.158958
    23  H    0.155058   0.061988
    24  H    0.051213   0.172065
    25  H   -0.184837   0.345615
    26  H   -0.060186   0.335220
    27  H    0.248071   0.001255
    28  H    0.144352   0.112299
 Sum of Mulliken charges =  -1.00000   1.00000

 Dipole moment (field-independent basis, Debye):
    X=             -6.7784    Y=              2.0215    Z=              1.0661  Tot=              7.1533
 Quadrupole moment (field-independent basis, Debye-Ang):
   XX=           -167.0886   YY=           -129.1423   ZZ=           -111.1703
   XY=             -1.5926   XZ=              0.6528   YZ=             -1.5786

 Summary of Natural Population Analysis:

                                       Natural Population
                Natural  -----------------------------------------------
    Atom  No    Charge         Core      Valence    Rydberg      Total
 -----------------------------------------------------------------------
      C    1   -0.09727      0.99962     2.08836    0.00929     3.09727
      O    2   -0.30454      0.99988     3.29435    0.01030     4.30454
      C    3   -0.01168      0.99958     1.99974    0.01236     3.01168
      C    4   -0.20258      0.99961     2.19338    0.00959     3.20258
      C    5   -0.08300      0.99959     2.07214    0.01127     3.08300
      N    6   -0.19005      0.99961     2.68038    0.01005     3.69005
      C    7   -0.02607      0.99955     2.01445    0.01207     3.02607
      C    8   -0.03549      0.99959     2.02276    0.01314     3.03549
      N    9   -0.26001      0.99970     2.74995    0.01036     3.76001
      C   10    0.16485      0.99955     1.81960    0.01600     2.83515
      C   11    0.17951      0.99959     1.80425    0.01664     2.82049
      N   12   -0.11763      0.99960     2.60316    0.01487     3.61763
      O   13   -0.29393      0.99990     3.28659    0.00743     4.29393
      N   14   -0.39649      0.99971     2.88769    0.00908     3.89649
      H   15    0.09158      0.00000     0.40674    0.00168     0.40842
      H   16    0.07738      0.00000     0.42062    0.00200     0.42262
      H   17    0.08250      0.00000     0.41483    0.00267     0.41750
      H   18    0.07984      0.00000     0.41841    0.00176     0.42016
      H   19    0.08674      0.00000     0.41153    0.00173     0.41326
      H   20    0.11158      0.00000     0.38662    0.00180     0.38842
      H   21    0.10249      0.00000     0.39582    0.00169     0.39751
      H   22    0.11070      0.00000     0.38777    0.00153     0.38930
      H   23    0.10314      0.00000     0.39531    0.00155     0.39686
      H   24    0.11300      0.00000     0.38516    0.00184     0.38700
      H   25    0.09700      0.00000     0.40198    0.00102     0.40300
      H   26    0.23645      0.00000     0.25738    0.00617     0.26355
      H   27    0.19672      0.00000     0.30112    0.00215     0.30328
      H   28    0.18525      0.00000     0.31259    0.00216     0.31475
 =======================================================================
   * Total *    0.00000     13.99510    38.81268    0.19221    53.00000

 Normal termination of Gaussian 16 at Thu Dec 10 10:39:12 2020.
