 Gaussian 16, Revision A.03,

 -----------------------------------------------------------
 # opt freq B3LYP/6-31G(d) empiricaldispersion=gd3bj scf=xqc
 -----------------------------------------------------------

 ------------------------------
 CID_67011763_JID_6332_neutraal
 ------------------------------
 Symbolic Z-matrix:
 Charge =  0 Multiplicity = 1

 SCF Done:  E(RB3LYP) =  -708.258453185     A.U. after   15 cycles
 SCF Done:  E(RB3LYP) =  -708.261548975     A.U. after   12 cycles
 SCF Done:  E(RB3LYP) =  -708.262343998     A.U. after   12 cycles
 SCF Done:  E(RB3LYP) =  -708.263034449     A.U. after   11 cycles
 SCF Done:  E(RB3LYP) =  -708.263213869     A.U. after   12 cycles
 SCF Done:  E(RB3LYP) =  -708.263315739     A.U. after   12 cycles
 SCF Done:  E(RB3LYP) =  -708.263400678     A.U. after   10 cycles
 SCF Done:  E(RB3LYP) =  -708.263551701     A.U. after   12 cycles
 SCF Done:  E(RB3LYP) =  -708.263709080     A.U. after   11 cycles
 SCF Done:  E(RB3LYP) =  -708.263825618     A.U. after   11 cycles
 SCF Done:  E(RB3LYP) =  -708.263939733     A.U. after   11 cycles
 SCF Done:  E(RB3LYP) =  -708.263926138     A.U. after   11 cycles
 SCF Done:  E(RB3LYP) =  -708.263941150     A.U. after   11 cycles
 SCF Done:  E(RB3LYP) =  -708.263941146     A.U. after    8 cycles
 SCF Done:  E(RB3LYP) =  -708.263941318     A.U. after    8 cycles
 Optimization completed.
    -- Stationary point found.
 Normal termination of Gaussian 16 at Thu Dec 10 22:25:19 2020.

 --------------------------------------------------------------------
 #N Geom=AllCheck Guess=TCheck SCRF=Check GenChk RB3LYP/6-31G(d) Freq
 --------------------------------------------------------------------

 Structure from the checkpoint file:  "JID_6332.chk"
 ------------------------------
 CID_67011763_JID_6332_neutraal
 ------------------------------
 Charge =  0 Multiplicity = 1

 SCF Done:  E(RB3LYP) =  -708.263941318     A.U. after    1 cycles

  Exact polarizability: 162.427 -22.752 128.466  -6.683  -6.652 133.087
 Approx polarizability: 215.384 -45.495 187.746  -2.752 -19.246 223.985

                      1                      2                      3
                      A                      A                      A
 Frequencies --     28.4837                42.7383                54.6123
 Red. masses --      4.9956                 4.4248                 3.6528
 Frc consts  --      0.0024                 0.0048                 0.0064
 IR Inten    --      0.1068                 6.5774                 2.3251

                      4                      5                      6
                      A                      A                      A
 Frequencies --     83.5184               111.7116               117.4993
 Red. masses --      3.8901                 3.4517                 3.8825
 Frc consts  --      0.0160                 0.0254                 0.0316
 IR Inten    --      1.2015                 0.3509                 1.8624

                      7                      8                      9
                      A                      A                      A
 Frequencies --    159.9946               192.9484               235.4868
 Red. masses --      4.5317                 3.7475                 3.7285
 Frc consts  --      0.0683                 0.0822                 0.1218
 IR Inten    --      1.1969                 5.2894                 1.1931

                     10                     11                     12
                      A                      A                      A
 Frequencies --    246.0453               287.3402               357.5727
 Red. masses --      1.8244                 2.7812                 2.5387
 Frc consts  --      0.0651                 0.1353                 0.1912
 IR Inten    --      0.0594                 3.9771                 2.4143

                     13                     14                     15
                      A                      A                      A
 Frequencies --    379.4785               391.2130               398.0624
 Red. masses --      2.3798                 2.8707                 2.6698
 Frc consts  --      0.2019                 0.2589                 0.2492
 IR Inten    --      0.3627                 2.7365                 2.2039

                     16                     17                     18
                      A                      A                      A
 Frequencies --    413.5686               433.9198               469.0722
 Red. masses --      2.4065                 1.2530                 2.8462
 Frc consts  --      0.2425                 0.1390                 0.3690
 IR Inten    --      1.1599               117.6713                 0.2661

                     19                     20                     21
                      A                      A                      A
 Frequencies --    506.6713               513.3085               538.7783
 Red. masses --      2.0681                 2.5941                 1.3466
 Frc consts  --      0.3128                 0.4027                 0.2303
 IR Inten    --      3.7856                25.0940               104.2102

                     22                     23                     24
                      A                      A                      A
 Frequencies --    590.0109               627.5151               639.1407
 Red. masses --      2.2038                 3.8828                 2.7793
 Frc consts  --      0.4520                 0.9008                 0.6689
 IR Inten    --      3.6533                10.1575                 4.4096

                     25                     26                     27
                      A                      A                      A
 Frequencies --    661.7123               688.5462               701.4987
 Red. masses --      3.1534                 1.4542                 2.5437
 Frc consts  --      0.8135                 0.4062                 0.7375
 IR Inten    --     30.1411                 5.2143                11.9098

                     28                     29                     30
                      A                      A                      A
 Frequencies --    756.0635               758.7869               798.9428
 Red. masses --      1.9007                 2.9234                 2.2506
 Frc consts  --      0.6402                 0.9917                 0.8464
 IR Inten    --     95.0241                10.9513                 4.6443

                     31                     32                     33
                      A                      A                      A
 Frequencies --    833.3575               856.8835               863.0370
 Red. masses --      1.4766                 2.6728                 1.4643
 Frc consts  --      0.6042                 1.1563                 0.6426
 IR Inten    --      0.7770                 0.2866                 2.7766

                     34                     35                     36
                      A                      A                      A
 Frequencies --    880.8434               905.8701               915.2588
 Red. masses --      1.4159                 2.2457                 2.4257
 Frc consts  --      0.6473                 1.0858                 1.1972
 IR Inten    --      6.8984                 1.7051                 2.3248

                     37                     38                     39
                      A                      A                      A
 Frequencies --    944.5339               986.8708               991.3779
 Red. masses --      2.2905                 4.5717                 1.2953
 Frc consts  --      1.2040                 2.6233                 0.7501
 IR Inten    --      4.5019                 9.1440                 0.6859

                     40                     41                     42
                      A                      A                      A
 Frequencies --   1027.0827              1030.1957              1058.0871
 Red. masses --      2.3358                 2.4199                 2.0425
 Frc consts  --      1.4518                 1.5132                 1.3472
 IR Inten    --      6.8176                 9.1985                 7.6188

                     43                     44                     45
                      A                      A                      A
 Frequencies --   1061.2948              1097.5114              1099.6867
 Red. masses --      2.0251                 1.7829                 1.7468
 Frc consts  --      1.3439                 1.2653                 1.2446
 IR Inten    --      4.2712                 2.9068                 5.8015

                     46                     47                     48
                      A                      A                      A
 Frequencies --   1104.8512              1148.8202              1152.0604
 Red. masses --      1.5589                 2.1693                 2.2087
 Frc consts  --      1.1212                 1.6868                 1.7272
 IR Inten    --     23.9617                27.3910                20.3308

                     49                     50                     51
                      A                      A                      A
 Frequencies --   1162.4144              1186.4429              1208.3076
 Red. masses --      1.6379                 1.1800                 1.5147
 Frc consts  --      1.3039                 0.9787                 1.3030
 IR Inten    --     28.9398                 3.5280                 6.3209

                     52                     53                     54
                      A                      A                      A
 Frequencies --   1218.9223              1261.4396              1272.1513
 Red. masses --      1.7865                 1.4663                 1.8207
 Frc consts  --      1.5639                 1.3747                 1.7361
 IR Inten    --     17.1184                 8.8167                51.4208

                     55                     56                     57
                      A                      A                      A
 Frequencies --   1304.2668              1311.4318              1314.8115
 Red. masses --      1.2403                 2.0842                 1.2781
 Frc consts  --      1.2431                 2.1119                 1.3018
 IR Inten    --      4.2957               105.9966                 7.2761

                     58                     59                     60
                      A                      A                      A
 Frequencies --   1354.9846              1365.4034              1373.9431
 Red. masses --      1.5577                 1.4666                 1.3158
 Frc consts  --      1.6850                 1.6109                 1.4635
 IR Inten    --     12.1386                 7.6898                 0.0488

                     61                     62                     63
                      A                      A                      A
 Frequencies --   1395.6979              1401.5264              1404.4563
 Red. masses --      1.4846                 1.4088                 1.4350
 Frc consts  --      1.7039                 1.6304                 1.6677
 IR Inten    --     46.9289                 0.2311                19.3850

                     64                     65                     66
                      A                      A                      A
 Frequencies --   1411.9893              1419.9884              1428.8040
 Red. masses --      1.4348                 1.5243                 4.4191
 Frc consts  --      1.6854                 1.8108                 5.3153
 IR Inten    --     46.0528                 8.0114                16.2223

                     67                     68                     69
                      A                      A                      A
 Frequencies --   1440.6100              1446.1628              1450.1545
 Red. masses --      2.4229                 2.6679                 1.7296
 Frc consts  --      2.9626                 3.2874                 2.1430
 IR Inten    --     52.4149                14.6336                23.6787

                     70                     71                     72
                      A                      A                      A
 Frequencies --   1496.0333              1505.6486              1513.1733
 Red. masses --      1.1006                 1.1001                 1.1313
 Frc consts  --      1.4513                 1.4694                 1.5262
 IR Inten    --      6.0665                 1.4902                13.8498

                     73                     74                     75
                      A                      A                      A
 Frequencies --   1514.0208              1523.2525              1525.2813
 Red. masses --      1.1789                 1.1126                 1.0969
 Frc consts  --      1.5922                 1.5211                 1.5035
 IR Inten    --      3.0062                 7.4064                 3.2281

                     76                     77                     78
                      A                      A                      A
 Frequencies --   1539.8446              1555.0775              1591.2860
 Red. masses --      1.1069                 2.7099                 4.4140
 Frc consts  --      1.5464                 3.8611                 6.5854
 IR Inten    --      1.5569                29.4493                47.3330

                     79                     80                     81
                      A                      A                      A
 Frequencies --   1649.1765              1786.5663              2922.9671
 Red. masses --      1.2444                 8.5273                 1.0719
 Frc consts  --      1.9940                16.0361                 5.3960
 IR Inten    --    149.2298               318.1434                62.9349

                     82                     83                     84
                      A                      A                      A
 Frequencies --   2992.4777              3021.7580              3027.5066
 Red. masses --      1.0693                 1.0654                 1.0669
 Frc consts  --      5.6420                 5.7315                 5.7618
 IR Inten    --     29.1985                36.5472                21.7033

                     85                     86                     87
                      A                      A                      A
 Frequencies --   3043.3383              3043.9315              3056.1432
 Red. masses --      1.0615                 1.0631                 1.0675
 Frc consts  --      5.7926                 5.8038                 5.8746
 IR Inten    --     17.6244                23.2054                57.6548

                     88                     89                     90
                      A                      A                      A
 Frequencies --   3061.7868              3075.5226              3079.4217
 Red. masses --      1.0846                 1.0980                 1.0952
 Frc consts  --      5.9906                 6.1189                 6.1188
 IR Inten    --     69.4024                 8.9347                78.9221

                     91                     92                     93
                      A                      A                      A
 Frequencies --   3081.8950              3087.5664              3093.4031
 Red. masses --      1.0916                 1.1053                 1.1058
 Frc consts  --      6.1088                 6.2079                 6.2347
 IR Inten    --     32.3603                16.5830                75.6581

                     94                     95                     96
                      A                      A                      A
 Frequencies --   3126.9983              3266.1856              3270.8922
 Red. masses --      1.0975                 1.0950                 1.0914
 Frc consts  --      6.3228                 6.8826                 6.8797
 IR Inten    --     21.3689                 0.4459                 0.3687

                     97                     98                     99
                      A                      A                      A
 Frequencies --   3291.3389              3566.5827              3684.1014
 Red. masses --      1.1031                 1.0461                 1.1013
 Frc consts  --      7.0408                 7.8404                 8.8066
 IR Inten    --      1.9521                20.8917                18.5482

 - Thermochemistry -
 -------------------
 Temperature   298.150 Kelvin.  Pressure   1.00000 Atm.
 Atom     1 has atomic number  6 and mass  12.00000

 Molecular mass:   221.15281 amu.
 Principal axes and moments of inertia in atomic units:
                           1         2         3
     Eigenvalues --  1954.563216113.352936703.63969
           X            0.99990   0.00784  -0.01172
           Y           -0.00785   0.99997  -0.00093
           Z            0.01171   0.00102   0.99993
 This molecule is an asymmetric top.
 Rotational symmetry number  1.
 Warning -- assumption of classical behavior for rotation
           may cause significant error
 Rotational temperatures (Kelvin)      0.04431     0.01417     0.01292
 Rotational constants (GHZ):           0.92335     0.29521     0.26922
 Zero-point vibrational energy     809088.0 (Joules/Mol)
                                  193.37667 (Kcal/Mol)
 Warning -- explicit consideration of  22 degrees of freedom as
           vibrations may cause significant error
 Vibrational temperatures:     40.98    61.49    78.57   120.16   160.73
          (Kelvin)            169.06   230.20   277.61   338.81   354.00
                              413.42   514.47   545.98   562.87   572.72
                              595.03   624.31   674.89   728.99   738.54
                              775.18   848.89   902.85   919.58   952.06
                              990.66  1009.30  1087.81  1091.73  1149.50
                             1199.02  1232.86  1241.72  1267.34  1303.34
                             1316.85  1358.97  1419.89  1426.37  1477.74
                             1482.22  1522.35  1526.97  1579.07  1582.20
                             1589.63  1652.90  1657.56  1672.46  1707.03
                             1738.49  1753.76  1814.93  1830.34  1876.55
                             1886.86  1891.72  1949.52  1964.51  1976.80
                             2008.10  2016.48  2020.70  2031.54  2043.05
                             2055.73  2072.72  2080.71  2086.45  2152.46
                             2166.29  2177.12  2178.34  2191.62  2194.54
                             2215.49  2237.41  2289.51  2372.80  2570.47
                             4205.50  4305.51  4347.64  4355.91  4378.68
                             4379.54  4397.11  4405.23  4424.99  4430.60
                             4434.16  4442.32  4450.72  4499.05  4699.31
                             4706.08  4735.50  5131.52  5300.60

 Zero-point correction=                           0.308165 (Hartree/Particle)
 Thermal correction to Energy=                    0.323180
 Thermal correction to Enthalpy=                  0.324125
 Thermal correction to Gibbs Free Energy=         0.265002
 Sum of electronic and zero-point Energies=           -707.955776
 Sum of electronic and thermal Energies=              -707.940761
 Sum of electronic and thermal Enthalpies=            -707.939817
 Sum of electronic and thermal Free Energies=         -707.998939

                     E (Thermal)             CV                S
                      KCal/Mol        Cal/Mol-Kelvin    Cal/Mol-Kelvin
 Total                  202.799             58.799            124.434
 Electronic               0.000              0.000              0.000
 Translational            0.889              2.981             42.084
 Rotational               0.889              2.981             32.749
 Vibrational            201.021             52.838             49.602
 Vibration     1          0.593              1.984              5.932
 Vibration     2          0.595              1.980              5.128
 Vibration     3          0.596              1.976              4.643
 Vibration     4          0.600              1.961              3.806
 Vibration     5          0.607              1.940              3.239
 Vibration     6          0.608              1.935              3.141
 Vibration     7          0.622              1.891              2.550
 Vibration     8          0.635              1.850              2.199
 Vibration     9          0.655              1.786              1.837
 Vibration    10          0.661              1.769              1.759
 Vibration    11          0.685              1.697              1.490
 Vibration    12          0.733              1.560              1.133
 Vibration    13          0.749              1.514              1.041
 Vibration    14          0.759              1.489              0.996
 Vibration    15          0.764              1.474              0.970
 Vibration    16          0.777              1.441              0.914
 Vibration    17          0.795              1.396              0.846
 Vibration    18          0.826              1.319              0.740
 Vibration    19          0.862              1.235              0.642
 Vibration    20          0.868              1.221              0.626
 Vibration    21          0.894              1.164              0.568
 Vibration    22          0.947              1.053              0.467

 Optimization completed.
    -- Stationary point found.
 Normal termination of Gaussian 16 at Thu Dec 10 22:38:29 2020.

 ----------------------------------------------------------------------
 # B3LYP/6-311++G(d,p) empiricaldispersion=gd3bj scf=xqc pop=npa geom=c
 heck
 ----------------------------------------------------------------------

 --------------------------------------
 CID_67011763_JID_6332_Energie_neutraal
 --------------------------------------
 Structure from the checkpoint file:  "JID_6332.chk"
 Charge =  0 Multiplicity = 1

 SCF Done:  E(RB3LYP) =  -708.466340805     A.U. after   15 cycles
 Normal termination of Gaussian 16 at Thu Dec 10 22:44:31 2020.

 ----------------------------------------------------------------------
 # B3LYP/6-311++G(d,p) empiricaldispersion=gd3bj scf=xqc pop=npa geom=c
 heck
 ----------------------------------------------------------------------

 ------------------------------------
 CID_67011763_JID_6332_Energie_kation
 ------------------------------------
 Structure from the checkpoint file:  "JID_6332.chk"
 Charge =  1 Multiplicity = 2

 SCF Done:  E(UB3LYP) =  -708.184756587     A.U. after   27 cycles
 Normal termination of Gaussian 16 at Thu Dec 10 23:02:33 2020.
 Gaussian 16:  ES64L-G16RevA.03 25-Dec-2016

 ----------------------------------------------------------------------
 # B3LYP/6-311++G(d,p) empiricaldispersion=gd3bj scf=xqc pop=npa geom=c
 heck
 ----------------------------------------------------------------------

 -----------------------------------
 CID_67011763_JID_6332_Energie_anion
 -----------------------------------
 Structure from the checkpoint file:  "JID_6332.chk"
 Charge = -1 Multiplicity = 2

                         Standard orientation:
 ---------------------------------------------------------------------
 Center     Atomic      Atomic             Coordinates (Angstroms)
 Number     Number       Type             X           Y           Z
 ---------------------------------------------------------------------
      1          6           0       -3.158194   -1.926762    0.535041
      2          6           0       -2.245625   -2.016361   -0.693815
      3          6           0       -1.308476   -0.807681   -0.751749
      4          7           0       -2.092345    0.431121   -0.758694
      5          6           0       -2.929383    0.580334    0.426175
      6          6           0       -3.909510   -0.590417    0.541367
      7          6           0       -1.392607    1.632974   -1.164041
      8          6           0       -0.454605    2.310150   -0.140385
      9          7           0        0.624696    1.449759    0.320799
     10          6           0        0.722191    0.897134    1.584292
     11          6           0        1.803049    0.049586    1.605774
     12          6           0        2.385032    0.073921    0.302599
     13          6           0        1.630054    0.951930   -0.462879
     14          6           0        3.582145   -0.696126   -0.086766
     15          8           0        4.311398   -1.243123    0.731941
     16          7           0        3.856383   -0.735633   -1.444377
     17          1           0       -3.863911   -2.765609    0.557438
     18          1           0       -2.545250   -2.001999    1.445084
     19          1           0       -1.651624   -2.938024   -0.668539
     20          1           0       -2.856453   -2.038349   -1.605435
     21          1           0       -0.605158   -0.859530    0.096246
     22          1           0       -0.709765   -0.833432   -1.669095
     23          1           0       -3.478507    1.526760    0.342358
     24          1           0       -2.329833    0.634709    1.356725
     25          1           0       -4.600404   -0.552813   -0.310313
     26          1           0       -4.504980   -0.481895    1.456173
     27          1           0       -0.817806    1.398449   -2.068156
     28          1           0       -2.137800    2.389731   -1.450254
     29          1           0       -0.028593    3.215003   -0.591610
     30          1           0       -1.015786    2.623529    0.743594
     31          1           0        0.007708    1.162627    2.349650
     32          1           0        2.169020   -0.529929    2.440239
     33          1           0        1.752078    1.287644   -1.482805
     34          1           0        3.084042   -0.662075   -2.092336
     35          1           0        4.576275   -1.398645   -1.702260
 ---------------------------------------------------------------------

 SCF Done:  E(UB3LYP) =  -708.459162847     A.U. after   33 cycles
 SCF Done:  E(UB3LYP) =  -708.459162847     a.u. after    1 cycles

 The electronic state is 2-A.
 Alpha  occ. eigenvalues --  -18.99115 -14.27670 -14.23029 -14.20808 -10.17900
 Alpha  occ. eigenvalues --  -10.11988 -10.10775 -10.10362 -10.10361 -10.09826
 Alpha  occ. eigenvalues --  -10.09171 -10.07655 -10.07637 -10.07448 -10.07151
 Alpha  occ. eigenvalues --  -10.06981  -0.93976  -0.90267  -0.83415  -0.80416
 Alpha  occ. eigenvalues --   -0.72836  -0.70299  -0.66092  -0.64626  -0.63555
 Alpha  occ. eigenvalues --   -0.57808  -0.53726  -0.53409  -0.51040  -0.47389
 Alpha  occ. eigenvalues --   -0.46621  -0.45825  -0.45012  -0.41596  -0.40004
 Alpha  occ. eigenvalues --   -0.38374  -0.37716  -0.36326  -0.35972  -0.35239
 Alpha  occ. eigenvalues --   -0.33589  -0.32812  -0.32285  -0.31878  -0.31495
 Alpha  occ. eigenvalues --   -0.30673  -0.29733  -0.28861  -0.28507  -0.28339
 Alpha  occ. eigenvalues --   -0.26460  -0.25175  -0.24017  -0.22582  -0.22506
 Alpha  occ. eigenvalues --   -0.18409  -0.16476  -0.15586  -0.13517  -0.11611
 Alpha  occ. eigenvalues --    0.03800
 Alpha virt. eigenvalues --    0.05702   0.06309   0.07133   0.07471   0.08073
 Alpha virt. eigenvalues --    0.08717   0.08909   0.09530   0.09692   0.10526
 Alpha virt. eigenvalues --    0.11089   0.11488   0.11752   0.12051   0.12470

  Beta  occ. eigenvalues --  -18.99110 -14.27672 -14.22987 -14.20810 -10.17897
  Beta  occ. eigenvalues --  -10.11960 -10.10744 -10.10351 -10.10333 -10.09801
  Beta  occ. eigenvalues --  -10.09159 -10.07649 -10.07637 -10.07435 -10.07144
  Beta  occ. eigenvalues --  -10.06979  -0.93965  -0.90258  -0.83401  -0.80355
  Beta  occ. eigenvalues --   -0.72812  -0.70282  -0.66064  -0.64594  -0.63517
  Beta  occ. eigenvalues --   -0.57768  -0.53694  -0.53370  -0.51000  -0.47349
  Beta  occ. eigenvalues --   -0.46572  -0.45780  -0.44953  -0.41551  -0.39957
  Beta  occ. eigenvalues --   -0.38329  -0.37692  -0.36301  -0.35945  -0.35215
  Beta  occ. eigenvalues --   -0.33559  -0.32794  -0.32264  -0.31857  -0.31476
  Beta  occ. eigenvalues --   -0.30653  -0.29699  -0.28842  -0.28467  -0.28310
  Beta  occ. eigenvalues --   -0.26422  -0.25152  -0.23997  -0.22550  -0.22481
  Beta  occ. eigenvalues --   -0.18377  -0.16450  -0.15581  -0.13495  -0.11601
  Beta virt. eigenvalues --    0.06052   0.06692   0.06960   0.07358   0.07810
  Beta virt. eigenvalues --    0.08423   0.09243   0.09445   0.09765   0.09955
  Beta virt. eigenvalues --    0.10752   0.11505   0.11730   0.12067   0.12377

 Mulliken charges and spin densities:
               1          2
     1  C   -0.405574   0.121253
     2  C    0.270597  -0.753731
     3  C   -0.526472   0.172684
     4  N    0.086557   0.115373
     5  C    0.002039  -0.182282
     6  C    0.602829  -1.082088
     7  C    0.631495  -0.837811
     8  C    0.004899  -0.170440
     9  N    0.292745  -0.048337
    10  C    0.310216  -0.622296
    11  C   -0.676811   0.781644
    12  C    1.346932  -1.055337
    13  C   -0.836223   0.246856
    14  C    0.365834  -0.671953
    15  O   -0.363127  -0.002330
    16  N   -0.225394  -0.097841
    17  H    0.096644   0.073382
    18  H    0.037454   0.070116
    19  H    0.029411   0.120778
    20  H   -0.008021   0.143300
    21  H    0.517313  -0.344481
    22  H   -0.117415   0.296478
    23  H   -0.408023   0.585182
    24  H    0.188742  -0.123904
    25  H    0.093488   0.041324
    26  H   -0.168121   0.321450
    27  H   -0.348148   0.523577
    28  H   -0.399775   0.567666
    29  H   -0.598796   0.807392
    30  H   -0.182866   0.344846
    31  H   -0.195469   0.347096
    32  H    0.126433   0.061908
    33  H   -0.495390   0.679270
    34  H   -0.141953   0.376810
    35  H    0.093953   0.194446
 Sum of Mulliken charges =  -1.00000   1.00000

 Dipole moment (field-independent basis, Debye):
    X=             -2.0916    Y=             -2.9892    Z=              2.6480  Tot=              4.5080
 Quadrupole moment (field-independent basis, Debye-Ang):
   XX=           -176.0927   YY=           -143.7550   ZZ=           -139.1689
   XY=             11.6210   XZ=             -0.9793   YZ=              5.6579

 Summary of Natural Population Analysis:

                                       Natural Population
                Natural  -----------------------------------------------
    Atom  No    Charge         Core      Valence    Rydberg      Total
 -----------------------------------------------------------------------
      C    1   -0.18942      0.99963     2.18308    0.00671     3.18942
      C    2   -0.19076      0.99963     2.18383    0.00730     3.19076
      C    3   -0.08739      0.99960     2.07573    0.01206     3.08739
      N    4   -0.28511      0.99971     2.77135    0.01404     3.78511
      C    5   -0.08547      0.99961     2.07344    0.01242     3.08547
      C    6   -0.19196      0.99963     2.18362    0.00871     3.19196
      C    7   -0.08227      0.99960     2.07000    0.01267     3.08227
      C    8   -0.09025      0.99960     2.07899    0.01167     3.09025
      N    9   -0.20064      0.99966     2.68958    0.01141     3.70064
      C   10   -0.01728      0.99955     2.00629    0.01144     3.01728
      C   11   -0.12446      0.99953     2.11641    0.00852     3.12446
      C   12   -0.11289      0.99947     2.10236    0.01105     3.11289
      C   13    0.00561      0.99952     1.98261    0.01226     2.99439
      C   14    0.33197      0.99963     1.64614    0.02225     2.66803
      O   15   -0.32217      0.99988     3.31679    0.00550     4.32217
      N   16   -0.40525      0.99972     2.89730    0.00823     3.90525
      H   17    0.09605      0.00000     0.40301    0.00094     0.40395
      H   18    0.09320      0.00000     0.40544    0.00135     0.40680
      H   19    0.09792      0.00000     0.40122    0.00087     0.40208
      H   20    0.09518      0.00000     0.40332    0.00150     0.40482
      H   21    0.08595      0.00000     0.41112    0.00292     0.41405
      H   22    0.09916      0.00000     0.39901    0.00183     0.40084
      H   23    0.09877      0.00000     0.39968    0.00156     0.40123
      H   24    0.07751      0.00000     0.42048    0.00201     0.42249
      H   25    0.09575      0.00000     0.40282    0.00143     0.40425
      H   26    0.09727      0.00000     0.40182    0.00090     0.40273
      H   27    0.09919      0.00000     0.39864    0.00217     0.40081
      H   28    0.09912      0.00000     0.39905    0.00183     0.40088
      H   29    0.10382      0.00000     0.39424    0.00194     0.39618
      H   30    0.10151      0.00000     0.39683    0.00166     0.39849
      H   31    0.10215      0.00000     0.39665    0.00120     0.39785
      H   32    0.11251      0.00000     0.38669    0.00079     0.38749
      H   33    0.10794      0.00000     0.38997    0.00209     0.39206
      H   34    0.19381      0.00000     0.30225    0.00393     0.30619
      H   35    0.19089      0.00000     0.30741    0.00170     0.30911
 =======================================================================
   * Total *   -0.00000     15.99396    43.79715    0.20889    60.00000

 Normal termination of Gaussian 16 at Thu Dec 10 23:20:19 2020.
