 Gaussian 16, Revision A.03,

 -----------------------------------------------------------
 # opt freq B3LYP/6-31G(d) empiricaldispersion=gd3bj scf=xqc
 -----------------------------------------------------------

 -----------------------------
 CID_747186_JID_10783_neutraal
 -----------------------------
 Symbolic Z-matrix:
 Charge =  0 Multiplicity = 1

 SCF Done:  E(RB3LYP) =  -1186.10573931     A.U. after   15 cycles
 SCF Done:  E(RB3LYP) =  -1186.10703719     A.U. after   15 cycles
 SCF Done:  E(RB3LYP) =  -1186.11079739     A.U. after   15 cycles
 SCF Done:  E(RB3LYP) =  -1186.11282235     A.U. after   13 cycles
 SCF Done:  E(RB3LYP) =  -1186.11494414     A.U. after   13 cycles
 SCF Done:  E(RB3LYP) =  -1186.11505005     A.U. after   12 cycles
 SCF Done:  E(RB3LYP) =  -1186.11625874     A.U. after   12 cycles
 SCF Done:  E(RB3LYP) =  -1186.11646396     A.U. after   11 cycles
 SCF Done:  E(RB3LYP) =  -1186.11651731     A.U. after   11 cycles
 SCF Done:  E(RB3LYP) =  -1186.11657416     A.U. after   11 cycles
 SCF Done:  E(RB3LYP) =  -1186.11668733     A.U. after   10 cycles
 SCF Done:  E(RB3LYP) =  -1186.11669086     A.U. after    9 cycles
 SCF Done:  E(RB3LYP) =  -1186.11669328     A.U. after    9 cycles
 SCF Done:  E(RB3LYP) =  -1186.11669376     A.U. after    8 cycles
 SCF Done:  E(RB3LYP) =  -1186.11669381     A.U. after    7 cycles
 Optimization completed.
    -- Stationary point found.
 Normal termination of Gaussian 16 at Sat Dec 12 16:45:14 2020.

 --------------------------------------------------------------------
 #N Geom=AllCheck Guess=TCheck SCRF=Check GenChk RB3LYP/6-31G(d) Freq
 --------------------------------------------------------------------

 Structure from the checkpoint file:  "JID_10783.chk"
 -----------------------------
 CID_747186_JID_10783_neutraal
 -----------------------------
 Charge =  0 Multiplicity = 1

 SCF Done:  E(RB3LYP) =  -1186.11669381     A.U. after    1 cycles

  Exact polarizability: 281.898  24.195 218.772  -0.471  -0.876 128.034
 Approx polarizability: 392.852  30.081 337.022  -1.591  -3.658 199.283

                      1                      2                      3
                      A                      A                      A
 Frequencies --     22.8792                37.6042                48.4081
 Red. masses --      3.4698                 3.6536                 3.9277
 Frc consts  --      0.0011                 0.0030                 0.0054
 IR Inten    --      0.4680                 0.9078                 0.5831

                      4                      5                      6
                      A                      A                      A
 Frequencies --     76.3079                79.0830               110.1182
 Red. masses --      5.3394                 3.4962                 4.6812
 Frc consts  --      0.0183                 0.0129                 0.0334
 IR Inten    --      1.1286                 0.6812                 0.1691

                      7                      8                      9
                      A                      A                      A
 Frequencies --    140.9584               156.1112               162.4545
 Red. masses --      1.8354                 1.5600                 2.6225
 Frc consts  --      0.0215                 0.0224                 0.0408
 IR Inten    --      0.4110                 0.3018                 1.5456

                     10                     11                     12
                      A                      A                      A
 Frequencies --    182.6849               212.0106               223.1378
 Red. masses --      1.3479                 2.4991                 2.9775
 Frc consts  --      0.0265                 0.0662                 0.0873
 IR Inten    --      0.2432                 0.6874                 1.5961

                     13                     14                     15
                      A                      A                      A
 Frequencies --    250.2337               261.9927               309.5964
 Red. masses --      3.1873                 1.9893                 2.5212
 Frc consts  --      0.1176                 0.0805                 0.1424
 IR Inten    --      0.7162                 0.7112                 2.3888

                     16                     17                     18
                      A                      A                      A
 Frequencies --    312.2164               330.8845               349.7157
 Red. masses --      2.5033                 4.5868                 2.2122
 Frc consts  --      0.1438                 0.2959                 0.1594
 IR Inten    --      0.6048                 1.0347                 1.3065

                     19                     20                     21
                      A                      A                      A
 Frequencies --    362.3827               374.5027               396.5190
 Red. masses --      5.0043                 4.1720                 4.8575
 Frc consts  --      0.3872                 0.3447                 0.4500
 IR Inten    --      1.2300                 0.7203                 2.6108

                     22                     23                     24
                      A                      A                      A
 Frequencies --    409.8114               430.7891               444.7209
 Red. masses --      2.4665                 2.4697                 2.9409
 Frc consts  --      0.2441                 0.2700                 0.3427
 IR Inten    --      2.2266                 3.8945                 1.3774

                     25                     26                     27
                      A                      A                      A
 Frequencies --    469.9508               476.9423               488.5565
 Red. masses --      2.9415                 5.6840                 2.5049
 Frc consts  --      0.3828                 0.7618                 0.3523
 IR Inten    --      0.1227                 2.6066                 8.9778

                     28                     29                     30
                      A                      A                      A
 Frequencies --    553.3410               572.1140               591.2957
 Red. masses --      1.7180                 5.8636                 3.4577
 Frc consts  --      0.3099                 1.1308                 0.7123
 IR Inten    --      0.3825                 4.0558                 1.4823

                     31                     32                     33
                      A                      A                      A
 Frequencies --    648.5689               656.9418               677.5532
 Red. masses --      4.3983                 4.8779                 7.2394
 Frc consts  --      1.0901                 1.2403                 1.9581
 IR Inten    --      0.8993                 3.6634                 6.5366

                     34                     35                     36
                      A                      A                      A
 Frequencies --    755.0191               764.1545               767.9279
 Red. masses --      5.0667                 5.0898                 2.6372
 Frc consts  --      1.7017                 1.7511                 0.9163
 IR Inten    --      0.4856                 0.6366                27.1363

                     37                     38                     39
                      A                      A                      A
 Frequencies --    793.9285               827.0523               848.3661
 Red. masses --      6.3076                 1.4655                 1.3411
 Frc consts  --      2.3425                 0.5906                 0.5687
 IR Inten    --      3.2465                 0.1608                19.2661

                     40                     41                     42
                      A                      A                      A
 Frequencies --    854.7866               878.8637               889.2209
 Red. masses --      2.7530                 1.4291                 1.2107
 Frc consts  --      1.1851                 0.6504                 0.5640
 IR Inten    --      0.7506                 1.1073                42.2164

                     43                     44                     45
                      A                      A                      A
 Frequencies --    891.1923               896.0814               905.9813
 Red. masses --      2.4423                 1.3701                 2.2314
 Frc consts  --      1.1429                 0.6482                 1.0791
 IR Inten    --      5.9163                 9.1658                 7.4512

                     46                     47                     48
                      A                      A                      A
 Frequencies --    923.5627               967.7257               984.8443
 Red. masses --      2.3152                 1.8995                 5.9321
 Frc consts  --      1.1635                 1.0481                 3.3900
 IR Inten    --      4.0417                 4.0095                 8.7690

                     49                     50                     51
                      A                      A                      A
 Frequencies --    988.5515              1009.7720              1031.6365
 Red. masses --      1.4012                 2.1388                 1.3931
 Frc consts  --      0.8068                 1.2849                 0.8736
 IR Inten    --      0.7320                12.9999                24.4240

                     52                     53                     54
                      A                      A                      A
 Frequencies --   1040.3222              1051.2152              1061.0783
 Red. masses --      1.5328                 2.4841                 1.4131
 Frc consts  --      0.9774                 1.6174                 0.9374
 IR Inten    --      0.0106                 4.3980                 5.0018

                     55                     56                     57
                      A                      A                      A
 Frequencies --   1063.5110              1083.9183              1094.9681
 Red. masses --      2.0646                 1.5579                 1.5574
 Frc consts  --      1.3758                 1.0784                 1.1001
 IR Inten    --     17.8525                 0.0140                 2.3083

                     58                     59                     60
                      A                      A                      A
 Frequencies --   1127.5514              1132.8772              1147.4439
 Red. masses --      4.3688                 2.5088                 2.7933
 Frc consts  --      3.2726                 1.8971                 2.1669
 IR Inten    --      4.6784                19.7028                35.1988

                     61                     62                     63
                      A                      A                      A
 Frequencies --   1189.2291              1195.1858              1197.3869
 Red. masses --      2.0367                 1.3245                 1.6602
 Frc consts  --      1.6971                 1.1147                 1.4024
 IR Inten    --      6.1990                 4.8472                 9.2296

                     64                     65                     66
                      A                      A                      A
 Frequencies --   1211.8387              1231.3850              1273.6480
 Red. masses --      1.2049                 3.6453                 2.7125
 Frc consts  --      1.0426                 3.2566                 2.5925
 IR Inten    --      3.0142                 9.9380                12.4431

                     67                     68                     69
                      A                      A                      A
 Frequencies --   1280.6952              1283.7279              1299.2963
 Red. masses --      1.7775                 1.3205                 1.3540
 Frc consts  --      1.7177                 1.2822                 1.3468
 IR Inten    --     17.0100                 0.9902                 6.3205

                     70                     71                     72
                      A                      A                      A
 Frequencies --   1313.0458              1318.9221              1339.4641
 Red. masses --      1.2515                 1.2781                 1.2247
 Frc consts  --      1.2712                 1.3099                 1.2946
 IR Inten    --      1.6609                11.6443                 7.3901

                     73                     74                     75
                      A                      A                      A
 Frequencies --   1339.9277              1357.4855              1375.0447
 Red. masses --      7.9078                 1.3313                 1.2990
 Frc consts  --      8.3651                 1.4454                 1.4471
 IR Inten    --     27.2280                34.5116                 2.9648

                     76                     77                     78
                      A                      A                      A
 Frequencies --   1383.8814              1403.0551              1404.5045
 Red. masses --      5.8959                 1.3800                 1.4544
 Frc consts  --      6.6527                 1.6006                 1.6903
 IR Inten    --     22.6586                12.3784                 5.4687

                     79                     80                     81
                      A                      A                      A
 Frequencies --   1411.0096              1427.1297              1437.5699
 Red. masses --      1.4537                 1.4253                 1.2944
 Frc consts  --      1.7053                 1.7103                 1.5761
 IR Inten    --      4.1009                 3.8537                 2.8857

                     82                     83                     84
                      A                      A                      A
 Frequencies --   1445.3420              1451.5745              1455.5488
 Red. masses --      1.5708                 1.3095                 2.1512
 Frc consts  --      1.9334                 1.6257                 2.6852
 IR Inten    --      6.1336                 4.2450                14.4837

                     85                     86                     87
                      A                      A                      A
 Frequencies --   1474.4533              1482.1315              1505.9705
 Red. masses --      4.2786                 1.1149                 1.7887
 Frc consts  --      5.4804                 1.4430                 2.3902
 IR Inten    --    112.4053                15.8419                34.2004

                     88                     89                     90
                      A                      A                      A
 Frequencies --   1506.4587              1510.7470              1513.4494
 Red. masses --      1.0459                 1.0918                 1.0946
 Frc consts  --      1.3985                 1.4682                 1.4772
 IR Inten    --      0.0362                 4.3999                 4.1002

                     91                     92                     93
                      A                      A                      A
 Frequencies --   1516.8428              1523.4217              1524.1209
 Red. masses --      1.1414                 1.0445                 1.0882
 Frc consts  --      1.5473                 1.4282                 1.4894
 IR Inten    --      2.9040                12.4306                 4.4455

                     94                     95                     96
                      A                      A                      A
 Frequencies --   1527.2622              1529.8449              1532.7932
 Red. masses --      1.1367                 1.1865                 1.4323
 Frc consts  --      1.5622                 1.6361                 1.9827
 IR Inten    --      8.4032                 3.4344                 1.1617

                     97                     98                     99
                      A                      A                      A
 Frequencies --   1541.5824              1567.1006              1627.9761
 Red. masses --      1.1355                 2.1010                 5.5454
 Frc consts  --      1.5899                 3.0399                 8.6592
 IR Inten    --      1.3486                65.1303                12.0505

                    100                    101                    102
                      A                      A                      A
 Frequencies --   1691.4840              2941.8911              2945.7430
 Red. masses --      6.4398                 1.0735                 1.0727
 Frc consts  --     10.8558                 5.4738                 5.4842
 IR Inten    --     14.8366                18.4147                74.2946

                    103                    104                    105
                      A                      A                      A
 Frequencies --   2956.6929              3032.0005              3032.6911
 Red. masses --      1.0729                 1.0680                 1.0393
 Frc consts  --      5.5261                 5.7845                 5.6319
 IR Inten    --    215.0279                28.5446                16.0611

                    106                    107                    108
                      A                      A                      A
 Frequencies --   3034.9006              3045.1467              3055.7716
 Red. masses --      1.0379                 1.0627                 1.0617
 Frc consts  --      5.6323                 5.8060                 5.8413
 IR Inten    --     91.6912                21.5415                12.6380

                    109                    110                    111
                      A                      A                      A
 Frequencies --   3077.7635              3080.3559              3082.1647
 Red. masses --      1.1003                 1.1002                 1.0622
 Frc consts  --      6.1406                 6.1507                 5.9455
 IR Inten    --     29.4127                19.0707                14.4166

                    112                    113                    114
                      A                      A                      A
 Frequencies --   3086.6079              3092.4223              3093.3928
 Red. masses --      1.0940                 1.0963                 1.0956
 Frc consts  --      6.1406                 6.1768                 6.1771
 IR Inten    --     42.8094                47.8962                 6.5053

                    115                    116                    117
                      A                      A                      A
 Frequencies --   3098.5079              3101.5062              3105.5723
 Red. masses --      1.0991                 1.0934                 1.0894
 Frc consts  --      6.2173                 6.1967                 6.1904
 IR Inten    --     57.1874                39.2968                16.6726

                    118                    119                    120
                      A                      A                      A
 Frequencies --   3120.2472              3126.3389              3136.6156
 Red. masses --      1.0999                 1.0989                 1.1033
 Frc consts  --      6.3092                 6.3283                 6.3954
 IR Inten    --     26.5163                15.1095                10.8223

                    121                    122                    123
                      A                      A                      A
 Frequencies --   3181.5093              3200.8645              3215.1788
 Red. masses --      1.0902                 1.0909                 1.0922
 Frc consts  --      6.5015                 6.5850                 6.6522
 IR Inten    --     11.6167                49.9193              1185.3000

 - Thermochemistry -
 -------------------
 Temperature   298.150 Kelvin.  Pressure   1.00000 Atm.
 Atom     1 has atomic number  6 and mass  12.00000

 Molecular mass:   289.16127 amu.
 Principal axes and moments of inertia in atomic units:
                           1         2         3
     Eigenvalues --  4097.051328356.45609**********
           X            1.00000  -0.00041   0.00074
           Y            0.00041   0.99998   0.00613
           Z           -0.00075  -0.00613   0.99998
 This molecule is an asymmetric top.
 Rotational symmetry number  1.
 Warning -- assumption of classical behavior for rotation
           may cause significant error
 Rotational temperatures (Kelvin)      0.02114     0.01036     0.00744
 Rotational constants (GHZ):           0.44050     0.21597     0.15507
 Zero-point vibrational energy     981221.1 (Joules/Mol)
                                  234.51748 (Kcal/Mol)
 Warning -- explicit consideration of  30 degrees of freedom as
           vibrations may cause significant error
 Vibrational temperatures:     32.92    54.10    69.65   109.79   113.78
          (Kelvin)            158.44   202.81   224.61   233.74   262.84
                              305.04   321.05   360.03   376.95   445.44
                              449.21   476.07   503.16   521.39   538.83
                              570.50   589.63   619.81   639.85   676.15
                              686.21   702.92   796.13   823.14   850.74
                              933.15   945.19   974.85  1086.30  1099.45
                             1104.88  1142.29  1189.94  1220.61  1229.85
                             1264.49  1279.39  1282.23  1289.26  1303.50
                             1328.80  1392.34  1416.97  1422.31  1452.84
                             1484.29  1496.79  1512.46  1526.65  1530.16
                             1559.52  1575.41  1622.30  1629.96  1650.92
                             1711.04  1719.61  1722.77  1743.57  1771.69
                             1832.50  1842.63  1847.00  1869.40  1889.18
                             1897.63  1927.19  1927.86  1953.12  1978.38
                             1991.10  2018.68  2020.77  2030.13  2053.32
                             2068.34  2079.52  2088.49  2094.21  2121.41
                             2132.46  2166.76  2167.46  2173.63  2177.52
                             2182.40  2191.86  2192.87  2197.39  2201.11
                             2205.35  2217.99  2254.71  2342.29  2433.67
                             4232.73  4238.27  4254.02  4362.37  4363.37
                             4366.55  4381.29  4396.57  4428.22  4431.95
                             4434.55  4440.94  4449.31  4450.70  4458.06
                             4462.38  4468.23  4489.34  4498.10  4512.89
                             4577.48  4605.33  4625.93

 Zero-point correction=                           0.373727 (Hartree/Particle)
 Thermal correction to Energy=                    0.392610
 Thermal correction to Enthalpy=                  0.393554
 Thermal correction to Gibbs Free Energy=         0.325939
 Sum of electronic and zero-point Energies=          -1185.742966
 Sum of electronic and thermal Energies=             -1185.724084
 Sum of electronic and thermal Enthalpies=           -1185.723140
 Sum of electronic and thermal Free Energies=        -1185.790755

                     E (Thermal)             CV                S
                      KCal/Mol        Cal/Mol-Kelvin    Cal/Mol-Kelvin
 Total                  246.366             74.091            142.307
 Electronic               0.000              0.000              0.000
 Translational            0.889              2.981             42.883
 Rotational               0.889              2.981             34.343
 Vibrational            244.589             68.129             65.081
 Vibration     1          0.593              1.985              6.367
 Vibration     2          0.594              1.982              5.381
 Vibration     3          0.595              1.978              4.881
 Vibration     4          0.599              1.965              3.984
 Vibration     5          0.600              1.963              3.914
 Vibration     6          0.606              1.941              3.267
 Vibration     7          0.615              1.912              2.791
 Vibration     8          0.620              1.896              2.596
 Vibration     9          0.623              1.888              2.521
 Vibration    10          0.630              1.863              2.301
 Vibration    11          0.643              1.823              2.026
 Vibration    12          0.649              1.806              1.933
 Vibration    13          0.663              1.762              1.729
 Vibration    14          0.669              1.742              1.648
 Vibration    15          0.699              1.655              1.364
 Vibration    16          0.701              1.650              1.351
 Vibration    17          0.713              1.614              1.256
 Vibration    18          0.727              1.576              1.167
 Vibration    19          0.736              1.550              1.112
 Vibration    20          0.746              1.524              1.061
 Vibration    21          0.763              1.478              0.976
 Vibration    22          0.774              1.449              0.927
 Vibration    23          0.792              1.403              0.856
 Vibration    24          0.804              1.373              0.812
 Vibration    25          0.827              1.317              0.738
 Vibration    26          0.834              1.301              0.718
 Vibration    27          0.844              1.275              0.687
 Vibration    28          0.909              1.132              0.537
 Vibration    29          0.928              1.092              0.500
 Vibration    30          0.949              1.050              0.465

 Optimization completed.
    -- Stationary point found.
 Normal termination of Gaussian 16 at Sat Dec 12 17:09:13 2020.

 ----------------------------------------------------------------------
 # B3LYP/6-311++G(d,p) empiricaldispersion=gd3bj scf=xqc pop=npa geom=c
 heck
 ----------------------------------------------------------------------

 -------------------------------------
 CID_747186_JID_10783_Energie_neutraal
 -------------------------------------
 Structure from the checkpoint file:  "JID_10783.chk"
 Charge =  0 Multiplicity = 1

 SCF Done:  E(RB3LYP) =  -1186.34714960     A.U. after   16 cycles
 Normal termination of Gaussian 16 at Sat Dec 12 17:21:35 2020.

 ----------------------------------------------------------------------
 # B3LYP/6-311++G(d,p) empiricaldispersion=gd3bj scf=xqc pop=npa geom=c
 heck
 ----------------------------------------------------------------------

 -----------------------------------
 CID_747186_JID_10783_Energie_kation
 -----------------------------------
 Structure from the checkpoint file:  "JID_10783.chk"
 Charge =  1 Multiplicity = 2

 SCF Done:  E(UB3LYP) =  -1186.08597480     A.U. after   26 cycles
 Normal termination of Gaussian 16 at Sat Dec 12 17:50:03 2020.
 Gaussian 16:  ES64L-G16RevA.03 25-Dec-2016

 ----------------------------------------------------------------------
 # B3LYP/6-311++G(d,p) empiricaldispersion=gd3bj scf=xqc pop=npa geom=c
 heck
 ----------------------------------------------------------------------

 ----------------------------------
 CID_747186_JID_10783_Energie_anion
 ----------------------------------
 Structure from the checkpoint file:  "JID_10783.chk"
 Charge = -1 Multiplicity = 2

                         Standard orientation:
 ---------------------------------------------------------------------
 Center     Atomic      Atomic             Coordinates (Angstroms)
 Number     Number       Type             X           Y           Z
 ---------------------------------------------------------------------
      1          6           0        3.913719    2.488428    0.012124
      2          6           0        3.237136    1.139223    0.020782
      3          6           0        1.845620    1.069117    0.093954
      4          6           0        1.248517   -0.191253    0.107479
      5          6           0        2.011499   -1.382449    0.046762
      6          6           0        3.405732   -1.300716   -0.029319
      7          6           0        4.019380   -0.049694   -0.042636
      8          6           0        5.524438    0.045338   -0.123006
      9          7           0        1.175684   -2.494397    0.056166
     10          6           0       -0.035862   -1.988219    0.134030
     11          7           0       -0.065787   -0.613917    0.174588
     12         16           0       -1.495085   -2.970137    0.287157
     13          6           0       -2.722781   -2.045395   -0.733004
     14          6           0       -3.472709   -0.904368   -0.032235
     15          7           0       -2.724572    0.356480    0.036389
     16          6           0       -2.761118    1.079932   -1.244855
     17          6           0       -1.867102    2.320265   -1.208796
     18          6           0       -2.253855    3.239447   -0.045353
     19          6           0       -2.286433    2.450091    1.268047
     20          6           0       -3.177854    1.213730    1.141732
     21          1           0        4.600549    2.605721    0.860443
     22          1           0        4.510990    2.638922   -0.896598
     23          1           0        3.178904    3.297717    0.064959
     24          1           0        1.253871    1.979201    0.149971
     25          1           0        3.998732   -2.209355   -0.077271
     26          1           0        5.948490    0.567069    0.745034
     27          1           0        5.976151   -0.950027   -0.165338
     28          1           0        5.852863    0.598580   -1.012720
     29          1           0       -0.943292   -0.073316    0.229134
     30          1           0       -2.233556   -1.715402   -1.653196
     31          1           0       -3.448409   -2.814514   -1.016045
     32          1           0       -4.436213   -0.747211   -0.551707
     33          1           0       -3.707658   -1.219501    0.988585
     34          1           0       -3.801919    1.372145   -1.483385
     35          1           0       -2.427096    0.402087   -2.036251
     36          1           0       -1.947969    2.848078   -2.166030
     37          1           0       -0.821049    2.005002   -1.107455
     38          1           0       -1.557631    4.082742    0.028064
     39          1           0       -3.249612    3.664515   -0.235848
     40          1           0       -1.270824    2.128538    1.534809
     41          1           0       -2.651195    3.076514    2.090216
     42          1           0       -3.140570    0.622400    2.062315
     43          1           0       -4.229437    1.524264    0.989567
 ---------------------------------------------------------------------

 SCF Done:  E(UB3LYP) =  -1186.34001173     A.U. after   33 cycles
 SCF Done:  E(UB3LYP) =  -1186.34001173     a.u. after    1 cycles

 The electronic state is 2-A.
 Alpha  occ. eigenvalues --  -88.76490 -14.25449 -14.23428 -14.20075 -10.16075
 Alpha  occ. eigenvalues --  -10.11892 -10.11727 -10.11312 -10.11045 -10.10847
 Alpha  occ. eigenvalues --  -10.09835 -10.08968 -10.08820 -10.08737 -10.08355
 Alpha  occ. eigenvalues --  -10.08244 -10.08181 -10.07996 -10.07792 -10.07737
 Alpha  occ. eigenvalues --   -7.85080  -5.81483  -5.81093  -5.80456  -0.92023
 Alpha  occ. eigenvalues --   -0.85499  -0.78012  -0.76500  -0.73009  -0.70642
 Alpha  occ. eigenvalues --   -0.67780  -0.67381  -0.67228  -0.63193  -0.60908
 Alpha  occ. eigenvalues --   -0.58262  -0.55600  -0.54455  -0.52397  -0.51649
 Alpha  occ. eigenvalues --   -0.49081  -0.48603  -0.46767  -0.44165  -0.41942
 Alpha  occ. eigenvalues --   -0.39823  -0.39059  -0.38048  -0.37187  -0.37049
 Alpha  occ. eigenvalues --   -0.35923  -0.35791  -0.34900  -0.34692  -0.33856
 Alpha  occ. eigenvalues --   -0.33509  -0.32537  -0.31790  -0.31473  -0.30728
 Alpha  occ. eigenvalues --   -0.30521  -0.30206  -0.29074  -0.27486  -0.26858
 Alpha  occ. eigenvalues --   -0.26778  -0.26106  -0.24893  -0.24576  -0.23471
 Alpha  occ. eigenvalues --   -0.23323  -0.23026  -0.21256  -0.18507  -0.16929
 Alpha  occ. eigenvalues --   -0.15391  -0.13526  -0.11790   0.03672
 Alpha virt. eigenvalues --    0.05433   0.05853   0.06524   0.06848   0.07263
 Alpha virt. eigenvalues --    0.08010   0.08520   0.08844   0.09153   0.09430
 Alpha virt. eigenvalues --    0.09920   0.09987   0.10486   0.10668   0.10966

  Beta  occ. eigenvalues --  -88.76488 -14.25439 -14.23417 -14.20061 -10.16043
  Beta  occ. eigenvalues --  -10.11848 -10.11701 -10.11316 -10.11027 -10.10821
  Beta  occ. eigenvalues --  -10.09836 -10.08950 -10.08822 -10.08733 -10.08343
  Beta  occ. eigenvalues --  -10.08222 -10.08168 -10.07981 -10.07769 -10.07712
  Beta  occ. eigenvalues --   -7.85077  -5.81472  -5.81092  -5.80456  -0.91992
  Beta  occ. eigenvalues --   -0.85472  -0.77981  -0.76469  -0.72961  -0.70596
  Beta  occ. eigenvalues --   -0.67754  -0.67345  -0.67190  -0.63144  -0.60877
  Beta  occ. eigenvalues --   -0.58217  -0.55552  -0.54407  -0.52366  -0.51566
  Beta  occ. eigenvalues --   -0.49059  -0.48557  -0.46702  -0.44139  -0.41876
  Beta  occ. eigenvalues --   -0.39788  -0.39029  -0.38015  -0.37139  -0.37015
  Beta  occ. eigenvalues --   -0.35884  -0.35735  -0.34877  -0.34649  -0.33809
  Beta  occ. eigenvalues --   -0.33477  -0.32498  -0.31775  -0.31435  -0.30684
  Beta  occ. eigenvalues --   -0.30508  -0.30171  -0.29016  -0.27452  -0.26821
  Beta  occ. eigenvalues --   -0.26758  -0.26086  -0.24822  -0.24522  -0.23423
  Beta  occ. eigenvalues --   -0.23274  -0.22972  -0.21175  -0.18487  -0.16876
  Beta  occ. eigenvalues --   -0.15309  -0.13413  -0.11717
  Beta virt. eigenvalues --    0.05502   0.06040   0.06455   0.07080   0.07521
  Beta virt. eigenvalues --    0.07630   0.08280   0.08964   0.09114   0.09304
  Beta virt. eigenvalues --    0.09668   0.09997   0.10187   0.10709   0.10831

 Mulliken charges and spin densities:
               1          2
     1  C   -0.002438  -0.328366
     2  C    0.176271  -0.263177
     3  C   -0.544749   0.241333
     4  C   -0.083406   0.643895
     5  C   -0.460489  -0.004643
     6  C   -0.619378   0.082984
     7  C    0.399957   0.046353
     8  C   -0.212314  -0.318662
     9  N    0.023593   0.012604
    10  C   -0.010402  -0.004778
    11  N   -0.122944  -0.025114
    12  S   -0.071668  -0.044708
    13  C    0.200770  -0.657356
    14  C   -0.089512  -0.154674
    15  N   -0.153510   0.099732
    16  C    0.512875  -0.878647
    17  C   -0.629882   0.465850
    18  C    1.537310  -2.095014
    19  C   -0.586981   0.333588
    20  C    0.259196  -0.490101
    21  H    0.077566   0.058781
    22  H    0.023423   0.119032
    23  H   -0.140747   0.315235
    24  H    0.394712  -0.394610
    25  H    0.119413   0.015095
    26  H    0.112202   0.028302
    27  H    0.130017   0.011940
    28  H    0.105419   0.038723
    29  H    1.143889  -0.669107
    30  H    0.052019   0.188224
    31  H   -0.335529   0.588662
    32  H   -0.210697   0.338216
    33  H   -0.092339   0.265737
    34  H   -0.209723   0.374440
    35  H   -0.088182   0.214492
    36  H   -0.383864   0.581137
    37  H   -0.132844   0.223820
    38  H   -0.306316   0.464063
    39  H   -0.004680   0.141168
    40  H   -0.180695   0.318845
    41  H   -0.354967   0.558509
    42  H    0.036703   0.114545
    43  H   -0.277079   0.443649
 Sum of Mulliken charges =  -1.00000   1.00000

 Dipole moment (field-independent basis, Debye):
    X=              5.6587    Y=             -1.4172    Z=              1.3869  Tot=              5.9960
 Quadrupole moment (field-independent basis, Debye-Ang):
   XX=           -206.9030   YY=           -202.6651   ZZ=           -164.9060
   XY=              6.9011   XZ=             -3.5670   YZ=              0.1604

 Summary of Natural Population Analysis:

                                       Natural Population
                Natural  -----------------------------------------------
    Atom  No    Charge         Core      Valence    Rydberg      Total
 -----------------------------------------------------------------------
      C    1   -0.29406      0.99964     2.28880    0.00562     3.29406
      C    2   -0.01645      0.99950     2.00849    0.00846     3.01645
      C    3   -0.11304      0.99948     2.10490    0.00865     3.11304
      C    4    0.06614      0.99946     1.92392    0.01048     2.93386
      C    5    0.05644      0.99946     1.93116    0.01295     2.94356
      C    6   -0.09484      0.99948     2.08746    0.00791     3.09484
      C    7   -0.02937      0.99950     2.02235    0.00753     3.02937
      C    8   -0.29081      0.99964     2.28658    0.00458     3.29081
      N    9   -0.26239      0.99966     2.75224    0.01048     3.76239
      C   10    0.12931      0.99956     1.85092    0.02021     2.87069
      N   11   -0.29789      0.99960     2.79074    0.00755     3.79789
      S   12    0.12632      4.99952     2.85440    0.01977     7.87368
      C   13   -0.25519      0.99957     2.24355    0.01207     3.25519
      C   14   -0.08717      0.99958     2.07506    0.01253     3.08717
      N   15   -0.30449      0.99972     2.79050    0.01426     3.80449
      C   16   -0.08240      0.99960     2.07182    0.01098     3.08240
      C   17   -0.19635      0.99962     2.18800    0.00873     3.19635
      C   18   -0.18947      0.99962     2.18158    0.00827     3.18947
      C   19   -0.19517      0.99962     2.18683    0.00872     3.19517
      C   20   -0.07902      0.99960     2.06906    0.01035     3.07902
      H   21    0.09981      0.00000     0.39928    0.00091     0.40019
      H   22    0.10157      0.00000     0.39745    0.00098     0.39843
      H   23    0.10397      0.00000     0.39525    0.00077     0.39603
      H   24    0.10162      0.00000     0.39677    0.00161     0.39838
      H   25    0.09903      0.00000     0.39926    0.00171     0.40097
      H   26    0.09911      0.00000     0.39957    0.00132     0.40089
      H   27    0.10014      0.00000     0.39906    0.00081     0.39986
      H   28    0.09996      0.00000     0.39867    0.00138     0.40004
      H   29    0.22128      0.00000     0.27481    0.00391     0.27872
      H   30    0.10875      0.00000     0.38970    0.00155     0.39125
      H   31    0.11239      0.00000     0.38632    0.00129     0.38761
      H   32    0.09308      0.00000     0.40488    0.00205     0.40692
      H   33    0.10202      0.00000     0.39641    0.00157     0.39798
      H   34    0.08753      0.00000     0.41067    0.00180     0.41247
      H   35    0.09937      0.00000     0.39920    0.00143     0.40063
      H   36    0.10353      0.00000     0.39539    0.00107     0.39647
      H   37    0.09597      0.00000     0.40178    0.00226     0.40403
      H   38    0.10212      0.00000     0.39644    0.00144     0.39788
      H   39    0.09615      0.00000     0.40225    0.00160     0.40385
      H   40    0.09504      0.00000     0.40326    0.00171     0.40496
      H   41    0.10291      0.00000     0.39606    0.00103     0.39709
      H   42    0.09874      0.00000     0.40009    0.00117     0.40126
      H   43    0.08584      0.00000     0.41269    0.00147     0.41416
 =======================================================================
   * Total *   -0.00000     23.99145    53.76362    0.24493    78.00000

 Normal termination of Gaussian 16 at Sat Dec 12 18:26:37 2020.
