 Gaussian 16, Revision A.03,

 -----------------------------------------------------------
 # opt freq B3LYP/6-31G(d) empiricaldispersion=gd3bj scf=xqc
 -----------------------------------------------------------

 ------------------------------
 CID_15587579_JID_2215_neutraal
 ------------------------------
 Symbolic Z-matrix:
 Charge =  0 Multiplicity = 1

 SCF Done:  E(RB3LYP) =  -497.828307877     A.U. after   15 cycles
 SCF Done:  E(RB3LYP) =  -497.829313676     A.U. after   12 cycles
 SCF Done:  E(RB3LYP) =  -497.829376131     A.U. after   11 cycles
 SCF Done:  E(RB3LYP) =  -497.829386243     A.U. after   10 cycles
 SCF Done:  E(RB3LYP) =  -497.829391677     A.U. after   10 cycles
 SCF Done:  E(RB3LYP) =  -497.829400708     A.U. after   11 cycles
 SCF Done:  E(RB3LYP) =  -497.829415771     A.U. after   11 cycles
 SCF Done:  E(RB3LYP) =  -497.829442703     A.U. after   12 cycles
 SCF Done:  E(RB3LYP) =  -497.829497821     A.U. after   12 cycles
 SCF Done:  E(RB3LYP) =  -497.814408863     A.U. after   13 cycles
 SCF Done:  E(RB3LYP) =  -497.829681098     A.U. after   11 cycles
 SCF Done:  E(RB3LYP) =  -497.829697415     A.U. after   11 cycles
 SCF Done:  E(RB3LYP) =  -497.829700763     A.U. after   10 cycles
 SCF Done:  E(RB3LYP) =  -497.829702149     A.U. after    9 cycles
 SCF Done:  E(RB3LYP) =  -497.829702318     A.U. after    8 cycles
 Optimization completed.
    -- Stationary point found.
 Normal termination of Gaussian 16 at Wed Dec  9 17:01:43 2020.

 --------------------------------------------------------------------
 #N Geom=AllCheck Guess=TCheck SCRF=Check GenChk RB3LYP/6-31G(d) Freq
 --------------------------------------------------------------------

 Structure from the checkpoint file:  "JID_2215.chk"
 ------------------------------
 CID_15587579_JID_2215_neutraal
 ------------------------------
 Charge =  0 Multiplicity = 1

 SCF Done:  E(RB3LYP) =  -497.829702318     A.U. after    1 cycles

  Exact polarizability: 153.732  -6.549 117.182  -7.224   2.937  67.391
 Approx polarizability: 219.431 -23.204 198.775 -18.944  10.820 100.761

                      1                      2                      3
                      A                      A                      A
 Frequencies --     27.0662                87.7696                96.7827
 Red. masses --      3.6265                 2.1253                 3.7156
 Frc consts  --      0.0016                 0.0096                 0.0205
 IR Inten    --      0.1388                 0.3473                 0.1401

                      4                      5                      6
                      A                      A                      A
 Frequencies --    129.1996               149.7821               220.8147
 Red. masses --      4.5921                 7.3848                 1.4194
 Frc consts  --      0.0452                 0.0976                 0.0408
 IR Inten    --      3.6494                 7.9624                 1.5925

                      7                      8                      9
                      A                      A                      A
 Frequencies --    248.1927               264.2163               284.6325
 Red. masses --      2.3164                 2.0685                 1.4383
 Frc consts  --      0.0841                 0.0851                 0.0687
 IR Inten    --      2.1949                 1.0161                 1.1270

                     10                     11                     12
                      A                      A                      A
 Frequencies --    324.0812               356.1680               391.6857
 Red. masses --      2.4075                 2.7252                 6.2500
 Frc consts  --      0.1490                 0.2037                 0.5649
 IR Inten    --      0.2385                 0.3630                 0.1259

                     13                     14                     15
                      A                      A                      A
 Frequencies --    456.5013               479.6175               499.5813
 Red. masses --      6.5101                 3.2925                 3.3963
 Frc consts  --      0.7993                 0.4462                 0.4994
 IR Inten    --      0.9959                 1.7903                 8.4681

                     16                     17                     18
                      A                      A                      A
 Frequencies --    575.1843               607.7150               665.8436
 Red. masses --      7.0296                 3.7360                 5.1800
 Frc consts  --      1.3702                 0.8129                 1.3531
 IR Inten    --      0.5698                 3.5423                 1.7713

                     19                     20                     21
                      A                      A                      A
 Frequencies --    746.3730               773.3640               793.6665
 Red. masses --      5.1425                 3.5280                 1.3234
 Frc consts  --      1.6878                 1.2432                 0.4912
 IR Inten    --      2.5108                 0.6709                 4.9507

                     22                     23                     24
                      A                      A                      A
 Frequencies --    842.1741               862.5632               914.4224
 Red. masses --      1.9447                 1.4131                 1.8097
 Frc consts  --      0.8127                 0.6194                 0.8916
 IR Inten    --      3.7675                14.7021                 9.9217

                     25                     26                     27
                      A                      A                      A
 Frequencies --    920.9910               981.9456               986.0467
 Red. masses --      2.1019                 1.2741                 1.3491
 Frc consts  --      1.0504                 0.7238                 0.7728
 IR Inten    --     12.1253                 3.7508                 0.4744

                     28                     29                     30
                      A                      A                      A
 Frequencies --   1008.4745              1016.0905              1049.7773
 Red. masses --      2.3269                 3.1505                 2.3208
 Frc consts  --      1.3943                 1.9164                 1.5069
 IR Inten    --      3.0605                 1.0593                 2.4800

                     31                     32                     33
                      A                      A                      A
 Frequencies --   1100.0711              1128.3060              1153.7027
 Red. masses --      1.7179                 1.7720                 1.9817
 Frc consts  --      1.2248                 1.3291                 1.5541
 IR Inten    --      8.8709                 3.0830                 3.4817

                     34                     35                     36
                      A                      A                      A
 Frequencies --   1185.2181              1204.2174              1269.0446
 Red. masses --      1.8409                 1.8828                 2.5523
 Frc consts  --      1.5236                 1.6087                 2.4218
 IR Inten    --      1.2675                 2.4327                 2.8096

                     37                     38                     39
                      A                      A                      A
 Frequencies --   1302.7386              1306.6026              1323.2325
 Red. masses --      1.5466                 3.4951                 1.5985
 Frc consts  --      1.5465                 3.5156                 1.6490
 IR Inten    --      0.8013                 3.8350                 1.8525

                     40                     41                     42
                      A                      A                      A
 Frequencies --   1348.3501              1381.9153              1396.5905
 Red. masses --      1.2376                 1.4135                 1.5199
 Frc consts  --      1.3257                 1.5904                 1.7466
 IR Inten    --      0.1197                 9.3052                 0.9482

                     43                     44                     45
                      A                      A                      A
 Frequencies --   1436.1920              1441.0990              1446.9178
 Red. masses --      1.9366                 1.3334                 1.5145
 Frc consts  --      2.3535                 1.6315                 1.8682
 IR Inten    --     12.7280                 3.3220                22.7367

                     46                     47                     48
                      A                      A                      A
 Frequencies --   1516.1170              1521.9055              1526.7695
 Red. masses --      1.0762                 2.2008                 1.0599
 Frc consts  --      1.4576                 3.0033                 1.4556
 IR Inten    --      1.4924                14.4357                 7.2660

                     49                     50                     51
                      A                      A                      A
 Frequencies --   1534.7296              1536.7976              1543.1902
 Red. masses --      1.0687                 1.0511                 1.0489
 Frc consts  --      1.4831                 1.4626                 1.4717
 IR Inten    --      8.4084                 5.5218                 2.0201

                     52                     53                     54
                      A                      A                      A
 Frequencies --   1606.2852              1648.5262              2357.5583
 Red. masses --      7.4711                 5.3191                12.6816
 Frc consts  --     11.3574                 8.5168                41.5288
 IR Inten    --     45.1535                63.4078                10.9439

                     55                     56                     57
                      A                      A                      A
 Frequencies --   3031.1801              3045.3826              3049.3161
 Red. masses --      1.0684                 1.0590                 1.0409
 Frc consts  --      5.7837                 5.7866                 5.7027
 IR Inten    --     10.7326                 7.7636                34.9666

                     58                     59                     60
                      A                      A                      A
 Frequencies --   3052.1497              3086.5750              3112.8395
 Red. masses --      1.0551                 1.0976                 1.1008
 Frc consts  --      5.7910                 6.1608                 6.2844
 IR Inten    --     22.8291                 4.7223                 9.5261

                     61                     62                     63
                      A                      A                      A
 Frequencies --   3114.4206              3121.4406              3136.8708
 Red. masses --      1.1017                 1.1021                 1.0996
 Frc consts  --      6.2959                 6.3268                 6.3750
 IR Inten    --     57.6135                42.4431                30.1209

                     64                     65                     66
                      A                      A                      A
 Frequencies --   3180.9406              3232.5802              3239.8436
 Red. masses --      1.0902                 1.0943                 1.0914
 Frc consts  --      6.4994                 6.7375                 6.7494
 IR Inten    --     24.1982                 3.9058                 1.0888

 - Thermochemistry -
 -------------------
 Temperature   298.150 Kelvin.  Pressure   1.00000 Atm.
 Atom     1 has atomic number  6 and mass  12.00000

 Molecular mass:   160.10005 amu.
 Principal axes and moments of inertia in atomic units:
                           1         2         3
     Eigenvalues --  1000.979163480.728384124.07852
           X            0.99960   0.02761   0.00659
           Y           -0.02742   0.99927  -0.02662
           Z           -0.00732   0.02643   0.99962
 This molecule is an asymmetric top.
 Rotational symmetry number  1.
 Warning -- assumption of classical behavior for rotation
           may cause significant error
 Rotational temperatures (Kelvin)      0.08653     0.02488     0.02100
 Rotational constants (GHZ):           1.80298     0.51850     0.43761
 Zero-point vibrational energy     528631.8 (Joules/Mol)
                                  126.34604 (Kcal/Mol)
 Warning -- explicit consideration of  17 degrees of freedom as
           vibrations may cause significant error
 Vibrational temperatures:     38.94   126.28   139.25   185.89   215.50
          (Kelvin)            317.70   357.09   380.15   409.52   466.28
                              512.45   563.55   656.80   690.06   718.79
                              827.56   874.37   958.00  1073.86  1112.70
                             1141.91  1211.70  1241.04  1315.65  1325.10
                             1412.80  1418.70  1450.97  1461.93  1510.40
                             1582.76  1623.38  1659.92  1705.26  1732.60
                             1825.87  1874.35  1879.91  1903.84  1939.98
                             1988.27  2009.38  2066.36  2073.42  2081.79
                             2181.35  2189.68  2196.68  2208.13  2211.11
                             2220.31  2311.09  2371.86  3392.00  4361.19
                             4381.63  4387.29  4391.36  4440.89  4478.68
                             4480.96  4491.06  4513.26  4576.66  4650.96
                             4661.41

 Zero-point correction=                           0.201345 (Hartree/Particle)
 Thermal correction to Energy=                    0.212945
 Thermal correction to Enthalpy=                  0.213889
 Thermal correction to Gibbs Free Energy=         0.163034
 Sum of electronic and zero-point Energies=           -497.628357
 Sum of electronic and thermal Energies=              -497.616758
 Sum of electronic and thermal Enthalpies=            -497.615813
 Sum of electronic and thermal Free Energies=         -497.666669

                     E (Thermal)             CV                S
                      KCal/Mol        Cal/Mol-Kelvin    Cal/Mol-Kelvin
 Total                  133.625             43.208            107.034
 Electronic               0.000              0.000              0.000
 Translational            0.889              2.981             41.121
 Rotational               0.889              2.981             31.042
 Vibrational            131.847             37.246             34.871
 Vibration     1          0.593              1.984              6.034
 Vibration     2          0.601              1.958              3.709
 Vibration     3          0.603              1.951              3.518
 Vibration     4          0.612              1.924              2.958
 Vibration     5          0.618              1.903              2.675
 Vibration     6          0.648              1.809              1.952
 Vibration     7          0.662              1.766              1.743
 Vibration     8          0.671              1.739              1.634
 Vibration     9          0.683              1.702              1.506
 Vibration    10          0.709              1.627              1.289
 Vibration    11          0.732              1.563              1.139
 Vibration    12          0.759              1.488              0.994
 Vibration    13          0.815              1.347              0.776
 Vibration    14          0.836              1.295              0.711
 Vibration    15          0.855              1.251              0.659
 Vibration    16          0.932              1.085              0.494
 Vibration    17          0.967              1.015              0.437

 Optimization completed.
    -- Stationary point found.
 Normal termination of Gaussian 16 at Wed Dec  9 17:07:04 2020.

 ----------------------------------------------------------------------
 # B3LYP/6-311++G(d,p) empiricaldispersion=gd3bj scf=xqc pop=npa geom=c
 heck
 ----------------------------------------------------------------------

 --------------------------------------
 CID_15587579_JID_2215_Energie_neutraal
 --------------------------------------
 Structure from the checkpoint file:  "JID_2215.chk"
 Charge =  0 Multiplicity = 1

 SCF Done:  E(RB3LYP) =  -497.960718619     A.U. after   16 cycles
 Normal termination of Gaussian 16 at Wed Dec  9 17:10:21 2020.

 ----------------------------------------------------------------------
 # B3LYP/6-311++G(d,p) empiricaldispersion=gd3bj scf=xqc pop=npa geom=c
 heck
 ----------------------------------------------------------------------

 ------------------------------------
 CID_15587579_JID_2215_Energie_kation
 ------------------------------------
 Structure from the checkpoint file:  "JID_2215.chk"
 Charge =  1 Multiplicity = 2

 SCF Done:  E(UB3LYP) =  -497.609935031     A.U. after   33 cycles
 SCF Done:  E(UB3LYP) =  -497.609935031     a.u. after    1 cycles
 Normal termination of Gaussian 16 at Wed Dec  9 17:18:12 2020.
 Gaussian 16:  ES64L-G16RevA.03 25-Dec-2016

 ----------------------------------------------------------------------
 # B3LYP/6-311++G(d,p) empiricaldispersion=gd3bj scf=xqc pop=npa geom=c
 heck
 ----------------------------------------------------------------------

 -----------------------------------
 CID_15587579_JID_2215_Energie_anion
 -----------------------------------
 Structure from the checkpoint file:  "JID_2215.chk"
 Charge = -1 Multiplicity = 2

                         Standard orientation:
 ---------------------------------------------------------------------
 Center     Atomic      Atomic             Coordinates (Angstroms)
 Number     Number       Type             X           Y           Z
 ---------------------------------------------------------------------
      1          6           0       -4.016278   -0.093550   -0.721951
      2          6           0       -2.506288    0.134751   -0.816638
      3          6           0       -1.743145   -0.156507    0.497579
      4          6           0       -1.881641   -1.615656    0.944832
      5          6           0       -0.305331    0.299706    0.336684
      6          7           0       -0.114716    1.631347    0.385505
      7          6           0        1.119560    2.110605    0.213758
      8          6           0        2.237887    1.312876   -0.018573
      9          6           0        2.041687   -0.071502   -0.073034
     10          6           0        0.751418   -0.586325    0.107535
     11          6           0        3.145515   -0.956409   -0.308380
     12          7           0        4.038730   -1.675382   -0.499707
     13          1           0       -4.262893   -1.145449   -0.543149
     14          1           0       -4.511411    0.206586   -1.651798
     15          1           0       -4.451849    0.496483    0.093613
     16          1           0       -2.082272   -0.489447   -1.615973
     17          1           0       -2.309442    1.176558   -1.093869
     18          1           0       -2.174136    0.491623    1.271812
     19          1           0       -1.587962   -2.312294    0.150008
     20          1           0       -1.265251   -1.824905    1.825892
     21          1           0       -2.919459   -1.839789    1.205648
     22          1           0        1.224121    3.192464    0.266356
     23          1           0        3.223283    1.744757   -0.150627
     24          1           0        0.588865   -1.656285    0.070630
 ---------------------------------------------------------------------

 SCF Done:  E(UB3LYP) =  -497.979324017     A.U. after   23 cycles

 The electronic state is 2-A.
 Alpha  occ. eigenvalues --  -14.13687 -14.12681 -10.06207 -10.05231 -10.05207
 Alpha  occ. eigenvalues --  -10.05090 -10.04953 -10.04412 -10.03903 -10.03009
 Alpha  occ. eigenvalues --  -10.01998 -10.01978  -0.78280  -0.74163  -0.69242
 Alpha  occ. eigenvalues --   -0.65486  -0.62883  -0.59246  -0.53968  -0.50042
 Alpha  occ. eigenvalues --   -0.48320  -0.44356  -0.39031  -0.35598  -0.33876
 Alpha  occ. eigenvalues --   -0.32779  -0.31730  -0.31054  -0.28811  -0.28412
 Alpha  occ. eigenvalues --   -0.27269  -0.26015  -0.25011  -0.23738  -0.21961
 Alpha  occ. eigenvalues --   -0.21596  -0.20765  -0.20469  -0.19815  -0.16999
 Alpha  occ. eigenvalues --   -0.12744  -0.11108  -0.10038   0.04675
 Alpha virt. eigenvalues --    0.07330   0.09289   0.10093   0.10128   0.11253
 Alpha virt. eigenvalues --    0.12445   0.12588   0.12947   0.13224   0.13573
 Alpha virt. eigenvalues --    0.14784   0.14872   0.15160   0.16927   0.17419

  Beta  occ. eigenvalues --  -14.13305 -14.12062 -10.06206 -10.05229 -10.05208
  Beta  occ. eigenvalues --  -10.05077 -10.04949 -10.04402 -10.03919 -10.02567
  Beta  occ. eigenvalues --  -10.01887 -10.01860  -0.77520  -0.73580  -0.69164
  Beta  occ. eigenvalues --   -0.64590  -0.62773  -0.58977  -0.53884  -0.49042
  Beta  occ. eigenvalues --   -0.48204  -0.44229  -0.38823  -0.35528  -0.33715
  Beta  occ. eigenvalues --   -0.32593  -0.31548  -0.30868  -0.28620  -0.28386
  Beta  occ. eigenvalues --   -0.27061  -0.25899  -0.23956  -0.23393  -0.21557
  Beta  occ. eigenvalues --   -0.21430  -0.20492  -0.19952  -0.18242  -0.16786
  Beta  occ. eigenvalues --   -0.10252  -0.09762  -0.09332
  Beta virt. eigenvalues --    0.07292   0.09252   0.10054   0.10081   0.11204
  Beta virt. eigenvalues --    0.11401   0.12426   0.12651   0.12995   0.13327
  Beta virt. eigenvalues --    0.13662   0.14758   0.14832   0.15160   0.16959

 Mulliken charges and spin densities:
               1          2
     1  C   -0.623461   0.002084
     2  C   -0.177067  -0.033203
     3  C    0.405266  -0.018794
     4  C   -0.662620  -0.010043
     5  C   -0.576035   0.015975
     6  N    0.002415   0.287414
     7  C   -0.107238   0.032223
     8  C   -0.651671   0.157405
     9  C    1.635387   0.263593
    10  C   -0.032355   0.181226
    11  C   -1.476565  -0.101631
    12  N   -0.339712   0.207079
    13  H    0.128532   0.000443
    14  H    0.123267   0.002076
    15  H    0.122262   0.000246
    16  H    0.115115   0.009741
    17  H    0.160288  -0.005035
    18  H    0.166340   0.013243
    19  H    0.138693  -0.000426
    20  H    0.125906   0.010898
    21  H    0.127038   0.000825
    22  H    0.118684  -0.004561
    23  H    0.129789  -0.004864
    24  H    0.147744  -0.005913
 Sum of Mulliken charges =  -1.00000   1.00000

 Dipole moment (field-independent basis, Debye):
    X=             -8.2797    Y=              0.5060    Z=              0.3344  Tot=              8.3019
 Quadrupole moment (field-independent basis, Debye-Ang):
   XX=           -123.9492   YY=            -92.1127   ZZ=            -81.6690
   XY=             16.7394   XZ=              4.3483   YZ=             -3.3451

 Summary of Natural Population Analysis:

                                       Natural Population
                Natural  -----------------------------------------------
    Atom  No    Charge         Core      Valence    Rydberg      Total
 -----------------------------------------------------------------------
      C    1   -0.28629      0.99967     2.28260    0.00401     3.28629
      C    2   -0.18420      0.99963     2.17732    0.00725     3.18420
      C    3   -0.12119      0.99957     2.11158    0.01005     3.12119
      C    4   -0.28659      0.99966     2.28225    0.00468     3.28659
      C    5    0.10246      0.99952     1.88378    0.01424     2.89754
      N    6   -0.16812      0.99967     2.65597    0.01248     3.66812
      C    7    0.01877      0.99960     1.96744    0.01418     2.98123
      C    8   -0.09198      0.99953     2.08168    0.01077     3.09198
      C    9   -0.00965      0.99942     1.99895    0.01127     3.00965
      C   10   -0.08934      0.99948     2.08081    0.00905     3.08934
      C   11    0.14512      0.99965     1.83658    0.01865     2.85488
      N   12   -0.15952      0.99978     2.64818    0.01156     3.65952
      H   13    0.09172      0.00000     0.40734    0.00094     0.40828
      H   14    0.09312      0.00000     0.40592    0.00096     0.40688
      H   15    0.09312      0.00000     0.40587    0.00101     0.40688
      H   16    0.09159      0.00000     0.40730    0.00111     0.40841
      H   17    0.10541      0.00000     0.39328    0.00131     0.39459
      H   18    0.09713      0.00000     0.40062    0.00225     0.40287
      H   19    0.09496      0.00000     0.40410    0.00094     0.40504
      H   20    0.10233      0.00000     0.39686    0.00082     0.39767
      H   21    0.09211      0.00000     0.40709    0.00080     0.40789
      H   22    0.07738      0.00000     0.42129    0.00133     0.42262
      H   23    0.09544      0.00000     0.40375    0.00081     0.40456
      H   24    0.09620      0.00000     0.40290    0.00090     0.40380
 =======================================================================
   * Total *    0.00000     11.99518    30.86345    0.14137    43.00000

 Normal termination of Gaussian 16 at Wed Dec  9 17:23:54 2020.
