 Gaussian 16, Revision A.03,

 -----------------------------------------------------------
 # opt freq B3LYP/6-31G(d) empiricaldispersion=gd3bj scf=xqc
 -----------------------------------------------------------

 ------------------------------
 CID_64553306_JID_1513_neutraal
 ------------------------------
 Symbolic Z-matrix:
 Charge =  0 Multiplicity = 1

 SCF Done:  E(RB3LYP) =  -909.958757384     A.U. after   14 cycles
 SCF Done:  E(RB3LYP) =  -909.963479632     A.U. after   13 cycles
 SCF Done:  E(RB3LYP) =  -909.969279128     A.U. after   14 cycles
 SCF Done:  E(RB3LYP) =  -909.971886808     A.U. after   12 cycles
 SCF Done:  E(RB3LYP) =  -909.973510725     A.U. after   13 cycles
 SCF Done:  E(RB3LYP) =  -909.975540836     A.U. after   13 cycles
 SCF Done:  E(RB3LYP) =  -909.977017281     A.U. after   12 cycles
 SCF Done:  E(RB3LYP) =  -909.977249991     A.U. after   12 cycles
 SCF Done:  E(RB3LYP) =  -909.977304083     A.U. after   12 cycles
 SCF Done:  E(RB3LYP) =  -909.977360374     A.U. after   10 cycles
 SCF Done:  E(RB3LYP) =  -909.977368119     A.U. after   10 cycles
 SCF Done:  E(RB3LYP) =  -909.977375220     A.U. after   10 cycles
 SCF Done:  E(RB3LYP) =  -909.977380213     A.U. after   10 cycles
 SCF Done:  E(RB3LYP) =  -909.977382201     A.U. after    9 cycles
 SCF Done:  E(RB3LYP) =  -909.977382531     A.U. after    8 cycles
 Optimization completed.
    -- Stationary point found.
 Normal termination of Gaussian 16 at Tue Dec  8 20:19:49 2020.

 --------------------------------------------------------------------
 #N Geom=AllCheck Guess=TCheck SCRF=Check GenChk RB3LYP/6-31G(d) Freq
 --------------------------------------------------------------------

 Structure from the checkpoint file:  "JID_1513.chk"
 ------------------------------
 CID_64553306_JID_1513_neutraal
 ------------------------------
 Charge =  0 Multiplicity = 1

 SCF Done:  E(RB3LYP) =  -909.977382531     A.U. after    1 cycles

  Exact polarizability: 107.983   0.645  87.883   5.280   5.259  76.666
 Approx polarizability: 134.762   6.172 137.174   8.129  12.534 132.388

                      1                      2                      3
                      A                      A                      A
 Frequencies --     42.3387                56.5323                74.3860
 Red. masses --      4.7011                 5.0898                 3.1404
 Frc consts  --      0.0050                 0.0096                 0.0102
 IR Inten    --      0.4255                 1.0986                 1.4473

                      4                      5                      6
                      A                      A                      A
 Frequencies --    105.0548               162.7224               205.2902
 Red. masses --      4.2392                 5.1853                 3.5290
 Frc consts  --      0.0276                 0.0809                 0.0876
 IR Inten    --      3.7710                 1.7274                 1.8460

                      7                      8                      9
                      A                      A                      A
 Frequencies --    235.7494               280.8788               338.3017
 Red. masses --      6.4076                 3.2859                 6.0881
 Frc consts  --      0.2098                 0.1527                 0.4105
 IR Inten    --      2.8875                 5.2398                 6.3506

                     10                     11                     12
                      A                      A                      A
 Frequencies --    354.9881               430.8279               450.5289
 Red. masses --      4.5635                 2.6621                 4.1870
 Frc consts  --      0.3388                 0.2911                 0.5007
 IR Inten    --     11.5747                 1.4997                32.6497

                     13                     14                     15
                      A                      A                      A
 Frequencies --    484.3844               490.4299               525.1715
 Red. masses --      3.0363                 2.6143                 2.6696
 Frc consts  --      0.4197                 0.3705                 0.4338
 IR Inten    --     39.5085                21.0769                18.4067

                     16                     17                     18
                      A                      A                      A
 Frequencies --    554.4248               571.8860               624.5340
 Red. masses --      1.3462                 1.4347                 2.7325
 Frc consts  --      0.2438                 0.2765                 0.6279
 IR Inten    --     44.8715               268.4479                47.1603

                     19                     20                     21
                      A                      A                      A
 Frequencies --    682.0761               727.9878               780.6027
 Red. masses --      2.4282                 3.6779                 1.1150
 Frc consts  --      0.6656                 1.1484                 0.4003
 IR Inten    --     39.7996                 9.4373                 1.4064

                     22                     23                     24
                      A                      A                      A
 Frequencies --    827.0208               835.1006               839.3489
 Red. masses --      1.4928                 1.2807                 1.5833
 Frc consts  --      0.6016                 0.5262                 0.6572
 IR Inten    --     90.7359                18.9036                70.8601

                     25                     26                     27
                      A                      A                      A
 Frequencies --    898.8068               923.1826               963.4039
 Red. masses --      3.1428                 3.7158                 4.2778
 Frc consts  --      1.4959                 1.8658                 2.3393
 IR Inten    --     24.1503                42.2033                 0.5925

                     28                     29                     30
                      A                      A                      A
 Frequencies --   1007.4246              1075.5988              1078.0087
 Red. masses --      1.8207                 2.4622                 1.7518
 Frc consts  --      1.0887                 1.6783                 1.1995
 IR Inten    --     58.0178                48.1884                17.4645

                     31                     32                     33
                      A                      A                      A
 Frequencies --   1101.3385              1102.1740              1112.0054
 Red. masses --      1.3670                 1.3652                 6.7667
 Frc consts  --      0.9769                 0.9771                 4.9299
 IR Inten    --      2.8532                 3.0335               160.5945

                     34                     35                     36
                      A                      A                      A
 Frequencies --   1124.2257              1169.6576              1190.2024
 Red. masses --      1.1553                 1.6162                 1.3336
 Frc consts  --      0.8603                 1.3027                 1.1131
 IR Inten    --      2.5531                94.2899                50.3397

                     37                     38                     39
                      A                      A                      A
 Frequencies --   1203.0533              1235.8933              1251.8506
 Red. masses --      1.3547                 1.9636                 1.2079
 Frc consts  --      1.1552                 1.7671                 1.1152
 IR Inten    --      2.1126                 6.0202                12.8012

                     40                     41                     42
                      A                      A                      A
 Frequencies --   1313.0339              1356.1632              1369.2486
 Red. masses --      5.4558                 1.5782                 1.3136
 Frc consts  --      5.5419                 1.7102                 1.4510
 IR Inten    --    165.1752                 7.7411                 9.7794

                     43                     44                     45
                      A                      A                      A
 Frequencies --   1439.3136              1473.9097              1482.9986
 Red. masses --      1.5655                 1.9173                 1.0941
 Frc consts  --      1.9108                 2.4541                 1.4177
 IR Inten    --     82.6070                17.4926                 2.7132

                     46                     47                     48
                      A                      A                      A
 Frequencies --   1510.2313              1521.6408              1669.3855
 Red. masses --      1.0862                 1.3245                 1.3110
 Frc consts  --      1.4597                 1.8068                 2.1526
 IR Inten    --      9.6196                 0.5788                68.2887

                     49                     50                     51
                      A                      A                      A
 Frequencies --   1736.6791              3084.4270              3143.7022
 Red. masses --      4.6261                 1.0634                 1.1031
 Frc consts  --      8.2206                 5.9607                 6.4231
 IR Inten    --    224.8227                18.8811                 6.7694

                     52                     53                     54
                      A                      A                      A
 Frequencies --   3167.7973              3168.5993              3198.4178
 Red. masses --      1.0518                 1.0571                 1.0902
 Frc consts  --      6.2188                 6.2534                 6.5710
 IR Inten    --      7.7892                 6.4332                 0.1344

                     55                     56                     57
                      A                      A                      A
 Frequencies --   3247.8852              3258.2203              3467.5766
 Red. masses --      1.1196                 1.1163                 1.0752
 Frc consts  --      6.9584                 6.9822                 7.6175
 IR Inten    --      0.2062                 5.4312                 2.0853

                     58                     59                     60
                      A                      A                      A
 Frequencies --   3533.4316              3541.7711              3668.5868
 Red. masses --      1.0749                 1.0491                 1.1011
 Frc consts  --      7.9073                 7.7534                 8.7313
 IR Inten    --     31.7765               115.6847                93.0214

 - Thermochemistry -
 -------------------
 Temperature   298.150 Kelvin.  Pressure   1.00000 Atm.
 Atom     1 has atomic number  6 and mass  12.00000

 Molecular mass:   177.05720 amu.
 Principal axes and moments of inertia in atomic units:
                           1         2         3
     Eigenvalues --   989.601542885.532853208.84961
           X            0.99985  -0.01695   0.00276
           Y            0.01690   0.99970   0.01753
           Z           -0.00306  -0.01748   0.99984
 This molecule is an asymmetric top.
 Rotational symmetry number  1.
 Warning -- assumption of classical behavior for rotation
           may cause significant error
 Rotational temperatures (Kelvin)      0.08752     0.03002     0.02699
 Rotational constants (GHZ):           1.82370     0.62544     0.56243
 Zero-point vibrational energy     469357.3 (Joules/Mol)
                                  112.17909 (Kcal/Mol)
 Warning -- explicit consideration of  17 degrees of freedom as
           vibrations may cause significant error
 Vibrational temperatures:     60.92    81.34   107.02   151.15   234.12
          (Kelvin)            295.37   339.19   404.12   486.74   510.75
                              619.87   648.21   696.92   705.62   755.60
                              797.69   822.82   898.57   981.36  1047.41
                             1123.11  1189.90  1201.52  1207.64  1293.18
                             1328.25  1386.12  1449.46  1547.55  1551.01
                             1584.58  1585.78  1599.93  1617.51  1682.88
                             1712.44  1730.93  1778.17  1801.13  1889.16
                             1951.22  1970.04  2070.85  2120.63  2133.70
                             2172.89  2189.30  2401.87  2498.69  4437.80
                             4523.09  4557.75  4558.91  4601.81  4672.98
                             4687.85  4989.07  5083.82  5095.82  5278.28

 Zero-point correction=                           0.178769 (Hartree/Particle)
 Thermal correction to Energy=                    0.190352
 Thermal correction to Enthalpy=                  0.191296
 Thermal correction to Gibbs Free Energy=         0.140415
 Sum of electronic and zero-point Energies=           -909.798614
 Sum of electronic and thermal Energies=              -909.787031
 Sum of electronic and thermal Enthalpies=            -909.786086
 Sum of electronic and thermal Free Energies=         -909.836967

                     E (Thermal)             CV                S
                      KCal/Mol        Cal/Mol-Kelvin    Cal/Mol-Kelvin
 Total                  119.448             43.330            107.088
 Electronic               0.000              0.000              0.000
 Translational            0.889              2.981             41.421
 Rotational               0.889              2.981             30.595
 Vibrational            117.670             37.369             35.073
 Vibration     1          0.595              1.980              5.147
 Vibration     2          0.596              1.975              4.575
 Vibration     3          0.599              1.966              4.034
 Vibration     4          0.605              1.945              3.358
 Vibration     5          0.623              1.888              2.518
 Vibration     6          0.640              1.832              2.085
 Vibration     7          0.655              1.786              1.835
 Vibration     8          0.681              1.709              1.528
 Vibration     9          0.719              1.599              1.220
 Vibration    10          0.731              1.565              1.144
 Vibration    11          0.792              1.403              0.856
 Vibration    12          0.809              1.360              0.794
 Vibration    13          0.841              1.285              0.698
 Vibration    14          0.846              1.271              0.682
 Vibration    15          0.880              1.194              0.598
 Vibration    16          0.910              1.130              0.535
 Vibration    17          0.928              1.092              0.501

                           ! Non-Optimized Parameters !
 Normal termination of Gaussian 16 at Tue Dec  8 20:24:18 2020.

 ----------------------------------------------------------------------
 # B3LYP/6-311++G(d,p) empiricaldispersion=gd3bj scf=xqc pop=npa geom=c
 heck
 ----------------------------------------------------------------------

 --------------------------------------
 CID_64553306_JID_1513_Energie_neutraal
 --------------------------------------
 Structure from the checkpoint file:  "JID_1513.chk"
 Charge =  0 Multiplicity = 1

 SCF Done:  E(RB3LYP) =  -910.168741789     A.U. after   14 cycles
 Normal termination of Gaussian 16 at Tue Dec  8 20:28:15 2020.

 ----------------------------------------------------------------------
 # B3LYP/6-311++G(d,p) empiricaldispersion=gd3bj scf=xqc pop=npa geom=c
 heck
 ----------------------------------------------------------------------

 ------------------------------------
 CID_64553306_JID_1513_Energie_kation
 ------------------------------------
 Structure from the checkpoint file:  "JID_1513.chk"
 Charge =  1 Multiplicity = 2

 SCF Done:  E(UB3LYP) =  -909.833756848     A.U. after   33 cycles
 SCF Done:  E(UB3LYP) =  -909.833756848     a.u. after    1 cycles
 Normal termination of Gaussian 16 at Tue Dec  8 20:37:51 2020.
 Gaussian 16:  ES64L-G16RevA.03 25-Dec-2016

 ----------------------------------------------------------------------
 # B3LYP/6-311++G(d,p) empiricaldispersion=gd3bj scf=xqc pop=npa geom=c
 heck
 ----------------------------------------------------------------------

 -----------------------------------
 CID_64553306_JID_1513_Energie_anion
 -----------------------------------
 Structure from the checkpoint file:  "JID_1513.chk"
 Charge = -1 Multiplicity = 2

                         Standard orientation:
 ---------------------------------------------------------------------
 Center     Atomic      Atomic             Coordinates (Angstroms)
 Number     Number       Type             X           Y           Z
 ---------------------------------------------------------------------
      1          6           0        2.447676   -1.298320    0.854626
      2          6           0        2.912669   -1.010807   -0.549265
      3          6           0        2.309430    0.085640    0.281164
      4         16           0        0.712170    0.761196   -0.125564
      5          8           0        0.156254    1.313253    1.123025
      6          8           0        0.834523    1.594063   -1.323969
      7          7           0       -0.175473   -0.605002   -0.573868
      8          6           0       -1.235950   -1.104079    0.323349
      9          6           0       -2.584903   -0.432812    0.074649
     10          7           0       -3.521618   -0.928162   -0.652368
     11          7           0       -2.729166    0.784653    0.685013
     12          1           0        3.180478   -1.426093    1.645112
     13          1           0        1.548932   -1.895967    0.962658
     14          1           0        3.975609   -0.940478   -0.757130
     15          1           0        2.310767   -1.412338   -1.357747
     16          1           0        2.944451    0.881331    0.659988
     17          1           0       -0.488050   -0.473311   -1.533901
     18          1           0       -1.329769   -2.180840    0.153660
     19          1           0       -0.905464   -0.947955    1.352690
     20          1           0       -3.264324   -1.864091   -0.970648
     21          1           0       -1.894704    1.280204    0.978742
     22          1           0       -3.508580    1.343709    0.364588
 ---------------------------------------------------------------------

 SCF Done:  E(UB3LYP) =  -910.160060588     A.U. after   31 cycles

 The electronic state is 2-A.
 Alpha  occ. eigenvalues --  -88.97509 -19.03240 -19.02916 -14.25869 -14.22745
 Alpha  occ. eigenvalues --  -14.18283 -10.15281 -10.12944 -10.12177 -10.09274
 Alpha  occ. eigenvalues --  -10.09218  -8.03714  -6.00021  -5.99964  -5.99758
 Alpha  occ. eigenvalues --   -1.03237  -0.92293  -0.86417  -0.83207  -0.78706
 Alpha  occ. eigenvalues --   -0.75796  -0.64642  -0.59498  -0.52090  -0.51178
 Alpha  occ. eigenvalues --   -0.49708  -0.45575  -0.43806  -0.42969  -0.40722
 Alpha  occ. eigenvalues --   -0.39636  -0.36786  -0.36654  -0.34599  -0.33564
 Alpha  occ. eigenvalues --   -0.31869  -0.28387  -0.28282  -0.26341  -0.25983
 Alpha  occ. eigenvalues --   -0.24489  -0.23113  -0.21832  -0.20745  -0.19583
 Alpha  occ. eigenvalues --   -0.16798  -0.15304   0.04235
 Alpha virt. eigenvalues --    0.06424   0.08035   0.08095   0.09190   0.09633
 Alpha virt. eigenvalues --    0.09797   0.10448   0.11485   0.12907   0.13282
 Alpha virt. eigenvalues --    0.13659   0.13901   0.15342   0.15655   0.16037

  Beta  occ. eigenvalues --  -88.97507 -19.03230 -19.02912 -14.25834 -14.22735
  Beta  occ. eigenvalues --  -14.18247 -10.15277 -10.12905 -10.12161 -10.09227
  Beta  occ. eigenvalues --  -10.09181  -8.03711  -6.00018  -5.99961  -5.99757
  Beta  occ. eigenvalues --   -1.03221  -0.92279  -0.86380  -0.83160  -0.78674
  Beta  occ. eigenvalues --   -0.75746  -0.64579  -0.59428  -0.51970  -0.51129
  Beta  occ. eigenvalues --   -0.49651  -0.45547  -0.43758  -0.42940  -0.40634
  Beta  occ. eigenvalues --   -0.39556  -0.36762  -0.36614  -0.34546  -0.33519
  Beta  occ. eigenvalues --   -0.31823  -0.28339  -0.28245  -0.26309  -0.25957
  Beta  occ. eigenvalues --   -0.24445  -0.23092  -0.21791  -0.20721  -0.19541
  Beta  occ. eigenvalues --   -0.16756  -0.15238
  Beta virt. eigenvalues --    0.07026   0.07813   0.08505   0.08821   0.09726
  Beta virt. eigenvalues --    0.09970   0.10455   0.10972   0.12094   0.13161
  Beta virt. eigenvalues --    0.13552   0.13971   0.14293   0.15366   0.15773

 Mulliken charges and spin densities:
               1          2
     1  C    1.568596  -1.873980
     2  C    1.596122  -1.972077
     3  C   -2.312639   2.201691
     4  S    1.467935  -1.270996
     5  O   -0.228132   0.005790
     6  O   -0.186572   0.004244
     7  N   -0.501826   0.205774
     8  C    0.418206  -0.882963
     9  C    0.376927  -0.456093
    10  N   -0.394580   0.048012
    11  N   -0.303255   0.006281
    12  H   -0.784621   0.978876
    13  H   -0.333413   0.512801
    14  H   -0.263825   0.434176
    15  H   -0.349331   0.533090
    16  H   -0.682786   0.975323
    17  H    0.047880   0.270816
    18  H   -0.731635   0.925486
    19  H    0.098228   0.102018
    20  H   -0.008526   0.215358
    21  H    0.273672   0.003492
    22  H    0.233574   0.032881
 Sum of Mulliken charges =  -1.00000   1.00000

 Dipole moment (field-independent basis, Debye):
    X=             -3.6992    Y=              4.4315    Z=             -0.2123  Tot=              5.7764
 Quadrupole moment (field-independent basis, Debye-Ang):
   XX=           -148.0724   YY=           -116.1707   ZZ=           -105.5144
   XY=             -1.0790   XZ=             -9.6167   YZ=              1.2857

 Summary of Natural Population Analysis:

                                       Natural Population
                Natural  -----------------------------------------------
    Atom  No    Charge         Core      Valence    Rydberg      Total
 -----------------------------------------------------------------------
      C    1   -0.19034      0.99961     2.17943    0.01130     3.19034
      C    2   -0.19037      0.99961     2.18025    0.01051     3.19037
      C    3   -0.22548      0.99950     2.20919    0.01680     3.22548
      S    4    1.10220      4.99922     1.79941    0.09918     6.89780
      O    5   -0.47519      0.99990     3.46981    0.00547     4.47519
      O    6   -0.46151      0.99991     3.45645    0.00515     4.46151
      N    7   -0.43889      0.99977     2.92421    0.01492     3.93889
      C    8   -0.12255      0.99956     2.10888    0.01411     3.12255
      C    9    0.21010      0.99967     1.77127    0.01896     2.78990
      N   10   -0.36461      0.99971     2.85595    0.00896     3.86461
      N   11   -0.40479      0.99969     2.89630    0.00880     3.90479
      H   12    0.11295      0.00000     0.38304    0.00401     0.38705
      H   13    0.11180      0.00000     0.38570    0.00249     0.38820
      H   14    0.11098      0.00000     0.38686    0.00217     0.38902
      H   15    0.11310      0.00000     0.38505    0.00185     0.38690
      H   16    0.12510      0.00000     0.37363    0.00127     0.37490
      H   17    0.20340      0.00000     0.29424    0.00237     0.29660
      H   18    0.11002      0.00000     0.38674    0.00324     0.38998
      H   19    0.11278      0.00000     0.38537    0.00185     0.38722
      H   20    0.16618      0.00000     0.33135    0.00247     0.33382
      H   21    0.20540      0.00000     0.29260    0.00200     0.29460
      H   22    0.18973      0.00000     0.30873    0.00155     0.31027
 =======================================================================
   * Total *   -0.00000     14.99613    31.76444    0.23943    47.00000

 Normal termination of Gaussian 16 at Tue Dec  8 20:45:25 2020.
