 Gaussian 16, Revision A.03,

 -----------------------------------------------------------
 # opt freq B3LYP/6-31G(d) empiricaldispersion=gd3bj scf=xqc
 -----------------------------------------------------------

 ------------------------------
 CID_86592951_JID_7893_neutraal
 ------------------------------
 Symbolic Z-matrix:
 Charge =  0 Multiplicity = 1

 SCF Done:  E(RB3LYP) =  -783.674719920     A.U. after   14 cycles
 SCF Done:  E(RB3LYP) =  -783.678911607     A.U. after   12 cycles
 SCF Done:  E(RB3LYP) =  -783.678487384     A.U. after   13 cycles
 SCF Done:  E(RB3LYP) =  -783.679894356     A.U. after   12 cycles
 SCF Done:  E(RB3LYP) =  -783.680231249     A.U. after   12 cycles
 SCF Done:  E(RB3LYP) =  -783.680461702     A.U. after   13 cycles
 SCF Done:  E(RB3LYP) =  -783.680590959     A.U. after   12 cycles
 SCF Done:  E(RB3LYP) =  -783.680848125     A.U. after   13 cycles
 SCF Done:  E(RB3LYP) =  -783.680314125     A.U. after   16 cycles
 SCF Done:  E(RB3LYP) =  -783.682124062     A.U. after   13 cycles
 SCF Done:  E(RB3LYP) =  -783.684882193     A.U. after   12 cycles
 SCF Done:  E(RB3LYP) =  -783.684880244     A.U. after   11 cycles
 SCF Done:  E(RB3LYP) =  -783.684884690     A.U. after   11 cycles
 SCF Done:  E(RB3LYP) =  -783.684884524     A.U. after    9 cycles
 SCF Done:  E(RB3LYP) =  -783.684884726     A.U. after   10 cycles
 SCF Done:  E(RB3LYP) =  -783.684884745     A.U. after    8 cycles
 Optimization completed on the basis of negligible forces.
    -- Stationary point found.
 Normal termination of Gaussian 16 at Fri Dec 11 13:47:14 2020.

 --------------------------------------------------------------------
 #N Geom=AllCheck Guess=TCheck SCRF=Check GenChk RB3LYP/6-31G(d) Freq
 --------------------------------------------------------------------

 Structure from the checkpoint file:  "JID_7893.chk"
 ------------------------------
 CID_86592951_JID_7893_neutraal
 ------------------------------
 Charge =  0 Multiplicity = 1

 SCF Done:  E(RB3LYP) =  -783.684884745     A.U. after    1 cycles

  Exact polarizability: 217.039   0.550 134.415  13.579  -6.178  88.109
 Approx polarizability: 291.805  -7.048 221.574  31.956 -18.229 144.786

                      1                      2                      3
                      A                      A                      A
 Frequencies --     15.8514                29.4829                41.7625
 Red. masses --      4.2009                 5.4268                 4.3235
 Frc consts  --      0.0006                 0.0028                 0.0044
 IR Inten    --      0.6985                 0.4777                 0.2917

                      4                      5                      6
                      A                      A                      A
 Frequencies --     65.2664                90.9274               105.9022
 Red. masses --      4.7923                 2.9102                 5.5969
 Frc consts  --      0.0120                 0.0142                 0.0370
 IR Inten    --      7.0310                 2.3617                 1.6185

                      7                      8                      9
                      A                      A                      A
 Frequencies --    120.5575               147.1474               179.7798
 Red. masses --      6.5125                 7.3373                 3.5440
 Frc consts  --      0.0558                 0.0936                 0.0675
 IR Inten    --      4.5750                 3.0406                 0.6546

                     10                     11                     12
                      A                      A                      A
 Frequencies --    186.5168               223.9197               266.8774
 Red. masses --      3.2656                 1.3307                 5.0819
 Frc consts  --      0.0669                 0.0393                 0.2133
 IR Inten    --      2.3931                 3.6337                 0.4663

                     13                     14                     15
                      A                      A                      A
 Frequencies --    322.1381               359.6557               384.6708
 Red. masses --      2.2756                 3.4717                 4.3572
 Frc consts  --      0.1391                 0.2646                 0.3799
 IR Inten    --     10.8205                 3.8235                 3.1399

                     16                     17                     18
                      A                      A                      A
 Frequencies --    412.5950               439.6973               449.7522
 Red. masses --      5.4889                 3.3960                 3.9214
 Frc consts  --      0.5505                 0.3868                 0.4673
 IR Inten    --      0.0354                 7.3447                12.0291

                     19                     20                     21
                      A                      A                      A
 Frequencies --    464.1042               497.8912               550.6142
 Red. masses --      3.7130                 5.6791                 7.1485
 Frc consts  --      0.4712                 0.8295                 1.2769
 IR Inten    --      1.1341                 2.3197                 0.0656

                     22                     23                     24
                      A                      A                      A
 Frequencies --    601.9295               604.4246               645.4694
 Red. masses --      5.1537                 4.8452                 3.1334
 Frc consts  --      1.1002                 1.0429                 0.7692
 IR Inten    --      2.3625                 9.1474                 7.9902

                     25                     26                     27
                      A                      A                      A
 Frequencies --    701.1837               724.9931               736.2939
 Red. masses --      4.4778                 6.0338                 4.3311
 Frc consts  --      1.2971                 1.8686                 1.3834
 IR Inten    --      4.3167                 4.8325                 1.5140

                     28                     29                     30
                      A                      A                      A
 Frequencies --    756.7746               810.3704               842.0860
 Red. masses --      4.4973                 1.4149                 1.6318
 Frc consts  --      1.5175                 0.5474                 0.6817
 IR Inten    --      3.6858                 2.7395                15.8458

                     31                     32                     33
                      A                      A                      A
 Frequencies --    857.2762               870.4856               903.2269
 Red. masses --      2.5559                 2.7390                 1.4141
 Frc consts  --      1.1067                 1.2228                 0.6797
 IR Inten    --     11.2632                 5.5564                 9.3677

                     34                     35                     36
                      A                      A                      A
 Frequencies --    907.3425               943.1808               961.2344
 Red. masses --      2.7600                 3.7430                 2.1942
 Frc consts  --      1.3387                 1.9618                 1.1945
 IR Inten    --     21.6661                 2.3470                 4.5698

                     37                     38                     39
                      A                      A                      A
 Frequencies --    969.2500              1006.6150              1035.0292
 Red. masses --      1.6943                 2.8389                 2.8794
 Frc consts  --      0.9378                 1.6948                 1.8174
 IR Inten    --      4.0570                 7.0975                11.0069

                     40                     41                     42
                      A                      A                      A
 Frequencies --   1052.6333              1077.3363              1094.7434
 Red. masses --      2.1077                 3.1728                 6.3859
 Frc consts  --      1.3760                 2.1697                 4.5092
 IR Inten    --     16.5839                17.4534               142.9622

                     43                     44                     45
                      A                      A                      A
 Frequencies --   1133.7587              1138.6527              1172.6311
 Red. masses --      1.9724                 2.3872                 1.4976
 Frc consts  --      1.4938                 1.8236                 1.2133
 IR Inten    --     26.2321                 0.4255                31.8743

                     46                     47                     48
                      A                      A                      A
 Frequencies --   1192.5062              1209.8152              1214.4748
 Red. masses --      1.5690                 1.3438                 1.4178
 Frc consts  --      1.3146                 1.1588                 1.2321
 IR Inten    --    116.0591                 1.4728                29.6735

                     49                     50                     51
                      A                      A                      A
 Frequencies --   1230.3760              1263.3816              1272.5851
 Red. masses --      1.9073                 1.6395                 2.4476
 Frc consts  --      1.7011                 1.5418                 2.3354
 IR Inten    --     22.6536                32.6398                92.2823

                     52                     53                     54
                      A                      A                      A
 Frequencies --   1300.9616              1320.8092              1341.9149
 Red. masses --      1.6695                 2.1300                 1.3185
 Frc consts  --      1.6648                 2.1893                 1.3989
 IR Inten    --     26.8879                76.7070                 2.6278

                     55                     56                     57
                      A                      A                      A
 Frequencies --   1347.8878              1358.5474              1397.7376
 Red. masses --      2.0155                 1.5512                 1.3651
 Frc consts  --      2.1574                 1.6869                 1.5713
 IR Inten    --     82.5913                 1.4375                56.8848

                     58                     59                     60
                      A                      A                      A
 Frequencies --   1403.3961              1423.2326              1445.4122
 Red. masses --      1.8464                 1.3701                 1.3347
 Frc consts  --      2.1426                 1.6351                 1.6429
 IR Inten    --     34.4087                41.3050                12.3182

                     61                     62                     63
                      A                      A                      A
 Frequencies --   1470.7887              1489.9519              1515.6662
 Red. masses --      3.7923                 1.1125                 1.0486
 Frc consts  --      4.8334                 1.4551                 1.4192
 IR Inten    --      8.6408                 9.4636                 9.3379

                     64                     65                     66
                      A                      A                      A
 Frequencies --   1519.9420              1534.5942              1536.3138
 Red. masses --      1.0829                 2.6628                 1.0623
 Frc consts  --      1.4739                 3.6947                 1.4772
 IR Inten    --      5.9065                15.1130                 9.0811

                     67                     68                     69
                      A                      A                      A
 Frequencies --   1546.3450              1634.1031              1674.3914
 Red. masses --      1.0980                 7.0306                 6.4711
 Frc consts  --      1.5469                11.0613                10.6891
 IR Inten    --      0.7829                 2.2796                 8.0683

                     70                     71                     72
                      A                      A                      A
 Frequencies --   1818.9175              2351.8355              3008.3754
 Red. masses --     10.9265                12.6799                 1.0689
 Frc consts  --     21.2989                41.3217                 5.6999
 IR Inten    --    196.1782                36.6565                49.3373

                     73                     74                     75
                      A                      A                      A
 Frequencies --   3063.2877              3066.3128              3067.9029
 Red. masses --      1.0365                 1.0935                 1.0650
 Frc consts  --      5.7303                 6.0577                 5.9057
 IR Inten    --     15.6709                29.3492                 8.0541

                     76                     77                     78
                      A                      A                      A
 Frequencies --   3072.7694              3096.6041              3130.0045
 Red. masses --      1.0863                 1.0588                 1.1016
 Frc consts  --      6.0433                 5.9820                 6.3585
 IR Inten    --     13.7091                29.8239                27.8035

                     79                     80                     81
                      A                      A                      A
 Frequencies --   3139.3225              3142.7349              3162.3359
 Red. masses --      1.0998                 1.1046                 1.1074
 Frc consts  --      6.3862                 6.4279                 6.5246
 IR Inten    --      8.9269                 7.9083                26.8669

                     82                     83                     84
                      A                      A                      A
 Frequencies --   3199.7898              3213.7073              3225.2624
 Red. masses --      1.0895                 1.0920                 1.0942
 Frc consts  --      6.5723                 6.6450                 6.7061
 IR Inten    --      6.5529                 2.5656                 3.7681

 - Thermochemistry -
 -------------------
 Temperature   298.150 Kelvin.  Pressure   1.00000 Atm.
 Atom     1 has atomic number  6 and mass  12.00000

 Molecular mass:   231.08954 amu.
 Principal axes and moments of inertia in atomic units:
                           1         2         3
     Eigenvalues --  1175.431669471.51403**********
           X            0.99995   0.00874  -0.00392
           Y           -0.00873   0.99996   0.00336
           Z            0.00395  -0.00332   0.99999
 This molecule is an asymmetric top.
 Rotational symmetry number  1.
 Warning -- assumption of classical behavior for rotation
           may cause significant error
 Rotational temperatures (Kelvin)      0.07369     0.00914     0.00864
 Rotational constants (GHZ):           1.53539     0.19054     0.18012
 Zero-point vibrational energy     629871.7 (Joules/Mol)
                                  150.54295 (Kcal/Mol)
 Warning -- explicit consideration of  23 degrees of freedom as
           vibrations may cause significant error
 Vibrational temperatures:     22.81    42.42    60.09    93.90   130.82
          (Kelvin)            152.37   173.46   211.71   258.66   268.36
                              322.17   383.98   463.48   517.46   553.46
                              593.63   632.63   647.09   667.74   716.35
                              792.21   866.04   869.63   928.69  1008.85
                             1043.10  1059.36  1088.83  1165.94  1211.57
                             1233.43  1252.43  1299.54  1305.46  1357.03
                             1383.00  1394.53  1448.29  1489.18  1514.50
                             1550.05  1575.09  1631.23  1638.27  1687.15
                             1715.75  1740.65  1747.36  1770.24  1817.72
                             1830.97  1871.79  1900.35  1930.72  1939.31
                             1954.65  2011.03  2019.17  2047.71  2079.63
                             2116.14  2143.71  2180.71  2186.86  2207.94
                             2210.41  2224.85  2351.11  2409.08  2617.02
                             3383.77  4328.38  4407.39  4411.74  4414.03
                             4421.03  4455.32  4503.38  4516.78  4521.69
                             4549.90  4603.78  4623.81  4640.43

 Zero-point correction=                           0.239905 (Hartree/Particle)
 Thermal correction to Energy=                    0.255512
 Thermal correction to Enthalpy=                  0.256456
 Thermal correction to Gibbs Free Energy=         0.194081
 Sum of electronic and zero-point Energies=           -783.444979
 Sum of electronic and thermal Energies=              -783.429373
 Sum of electronic and thermal Enthalpies=            -783.428429
 Sum of electronic and thermal Free Energies=         -783.490803

                     E (Thermal)             CV                S
                      KCal/Mol        Cal/Mol-Kelvin    Cal/Mol-Kelvin
 Total                  160.336             57.286            131.279
 Electronic               0.000              0.000              0.000
 Translational            0.889              2.981             42.215
 Rotational               0.889              2.981             33.078
 Vibrational            158.559             51.324             55.986
 Vibration     1          0.593              1.986              7.096
 Vibration     2          0.593              1.984              5.864
 Vibration     3          0.594              1.980              5.174
 Vibration     4          0.597              1.971              4.291
 Vibration     5          0.602              1.956              3.640
 Vibration     6          0.605              1.945              3.343
 Vibration     7          0.609              1.932              3.091
 Vibration     8          0.617              1.906              2.709
 Vibration     9          0.629              1.867              2.331
 Vibration    10          0.632              1.858              2.262
 Vibration    11          0.649              1.805              1.927
 Vibration    12          0.672              1.734              1.616
 Vibration    13          0.707              1.631              1.299
 Vibration    14          0.734              1.555              1.124
 Vibration    15          0.754              1.503              1.021
 Vibration    16          0.776              1.443              0.917
 Vibration    17          0.800              1.384              0.828
 Vibration    18          0.809              1.361              0.797
 Vibration    19          0.822              1.330              0.754
 Vibration    20          0.853              1.255              0.663
 Vibration    21          0.906              1.138              0.543
 Vibration    22          0.960              1.028              0.446
 Vibration    23          0.963              1.022              0.442

 Optimization completed on the basis of negligible forces.
    -- Stationary point found.
 Normal termination of Gaussian 16 at Fri Dec 11 13:56:00 2020.

 ----------------------------------------------------------------------
 # B3LYP/6-311++G(d,p) empiricaldispersion=gd3bj scf=xqc pop=npa geom=c
 heck
 ----------------------------------------------------------------------

 --------------------------------------
 CID_86592951_JID_7893_Energie_neutraal
 --------------------------------------
 Structure from the checkpoint file:  "JID_7893.chk"
 Charge =  0 Multiplicity = 1

 SCF Done:  E(RB3LYP) =  -783.900582658     A.U. after   16 cycles
 Normal termination of Gaussian 16 at Fri Dec 11 13:59:41 2020.

 ----------------------------------------------------------------------
 # B3LYP/6-311++G(d,p) empiricaldispersion=gd3bj scf=xqc pop=npa geom=c
 heck
 ----------------------------------------------------------------------

 ------------------------------------
 CID_86592951_JID_7893_Energie_kation
 ------------------------------------
 Structure from the checkpoint file:  "JID_7893.chk"
 Charge =  1 Multiplicity = 2

 SCF Done:  E(UB3LYP) =  -783.573572986     A.U. after   24 cycles
 Normal termination of Gaussian 16 at Fri Dec 11 14:07:08 2020.
 Gaussian 16:  ES64L-G16RevA.03 25-Dec-2016

 ----------------------------------------------------------------------
 # B3LYP/6-311++G(d,p) empiricaldispersion=gd3bj scf=xqc pop=npa geom=c
 heck
 ----------------------------------------------------------------------

 -----------------------------------
 CID_86592951_JID_7893_Energie_anion
 -----------------------------------
 Structure from the checkpoint file:  "JID_7893.chk"
 Charge = -1 Multiplicity = 2

                         Standard orientation:
 ---------------------------------------------------------------------
 Center     Atomic      Atomic             Coordinates (Angstroms)
 Number     Number       Type             X           Y           Z
 ---------------------------------------------------------------------
      1          6           0        5.030960    1.256340   -0.004250
      2          6           0        4.824620    0.001061   -0.835927
      3          8           0        3.414751   -0.224045   -1.086376
      4          6           0        2.730367   -0.838656   -0.104147
      5          8           0        3.220379   -1.244094    0.928933
      6          6           0        1.257905   -0.960819   -0.438941
      7          6           0        0.417737   -0.362761    0.700936
      8          6           0       -1.061705   -0.433359    0.431448
      9          6           0       -1.545771    0.859666    0.231658
     10          6           0       -0.402926    1.829137    0.381449
     11          8           0        0.697466    1.038269    0.838604
     12          6           0       -2.881765    1.082889   -0.065589
     13          6           0       -3.739866   -0.028316   -0.154108
     14          6           0       -3.251499   -1.331593    0.049952
     15          6           0       -1.904501   -1.537246    0.341660
     16          6           0       -5.126880    0.169290   -0.453724
     17          7           0       -6.252350    0.331263   -0.698445
     18          1           0        4.577873    2.123716   -0.494507
     19          1           0        6.102457    1.448533    0.121202
     20          1           0        4.581991    1.135995    0.984997
     21          1           0        5.262548    0.096964   -1.831899
     22          1           0        5.237656   -0.879252   -0.337974
     23          1           0        1.030138   -0.462213   -1.383903
     24          1           0        1.019667   -2.026791   -0.540024
     25          1           0        0.707491   -0.852611    1.637761
     26          1           0       -0.156461    2.320466   -0.572548
     27          1           0       -0.599647    2.614395    1.121739
     28          1           0       -3.274332    2.081998   -0.225479
     29          1           0       -3.935052   -2.170704   -0.020626
     30          1           0       -1.528709   -2.544171    0.498591
 ---------------------------------------------------------------------

 SCF Done:  E(UB3LYP) =  -783.912731151     A.U. after   28 cycles

 The electronic state is 2-A.
 Alpha  occ. eigenvalues --  -19.07471 -19.01560 -19.01039 -14.15927 -10.19827
 Alpha  occ. eigenvalues --  -10.14388 -10.11814 -10.11436 -10.08305 -10.07811
 Alpha  occ. eigenvalues --  -10.06146 -10.05631 -10.05596 -10.05535 -10.04928
 Alpha  occ. eigenvalues --  -10.04377 -10.03750  -1.01247  -0.93357  -0.92347
 Alpha  occ. eigenvalues --   -0.76473  -0.73593  -0.70124  -0.67568  -0.65142
 Alpha  occ. eigenvalues --   -0.63217  -0.59455  -0.56157  -0.52845  -0.48647
 Alpha  occ. eigenvalues --   -0.47973  -0.46028  -0.41796  -0.41112  -0.39599
 Alpha  occ. eigenvalues --   -0.38929  -0.37519  -0.36665  -0.35377  -0.34348
 Alpha  occ. eigenvalues --   -0.32923  -0.32473  -0.31519  -0.31115  -0.30023
 Alpha  occ. eigenvalues --   -0.28990  -0.28306  -0.27633  -0.26219  -0.25655
 Alpha  occ. eigenvalues --   -0.24575  -0.23433  -0.22341  -0.21627  -0.21499
 Alpha  occ. eigenvalues --   -0.20802  -0.19066  -0.18275  -0.15841  -0.13671
 Alpha  occ. eigenvalues --   -0.12214   0.03954
 Alpha virt. eigenvalues --    0.05414   0.07770   0.08376   0.08600   0.09342
 Alpha virt. eigenvalues --    0.09750   0.09957   0.10204   0.11203   0.11614
 Alpha virt. eigenvalues --    0.11989   0.12174   0.12466   0.13616   0.14091

  Beta  occ. eigenvalues --  -19.07458 -19.01555 -19.00998 -14.15646 -10.19756
  Beta  occ. eigenvalues --  -10.14381 -10.11842 -10.11429 -10.08289 -10.07786
  Beta  occ. eigenvalues --  -10.06146 -10.05694 -10.05531 -10.05321 -10.04877
  Beta  occ. eigenvalues --  -10.04103 -10.03354  -1.01185  -0.93330  -0.92284
  Beta  occ. eigenvalues --   -0.76034  -0.73175  -0.70045  -0.67441  -0.64796
  Beta  occ. eigenvalues --   -0.62770  -0.59282  -0.56084  -0.52314  -0.48438
  Beta  occ. eigenvalues --   -0.47772  -0.45936  -0.41696  -0.40949  -0.39463
  Beta  occ. eigenvalues --   -0.38828  -0.37352  -0.36576  -0.35215  -0.34289
  Beta  occ. eigenvalues --   -0.32823  -0.32311  -0.31378  -0.31049  -0.29928
  Beta  occ. eigenvalues --   -0.28912  -0.28158  -0.27493  -0.25708  -0.24928
  Beta  occ. eigenvalues --   -0.24393  -0.23283  -0.21938  -0.21458  -0.21200
  Beta  occ. eigenvalues --   -0.19903  -0.18895  -0.18194  -0.15631  -0.12486
  Beta  occ. eigenvalues --   -0.10602
  Beta virt. eigenvalues --    0.05723   0.07779   0.08299   0.08610   0.09062
  Beta virt. eigenvalues --    0.09470   0.09867   0.10246   0.10711   0.11212
  Beta virt. eigenvalues --    0.11767   0.11904   0.12099   0.12370   0.13596

 Mulliken charges and spin densities:
               1          2
     1  C   -0.012361  -0.359998
     2  C   -0.168103  -0.004208
     3  O    0.034344   0.011017
     4  C   -0.466824   0.019266
     5  O   -0.257237   0.022838
     6  C   -0.041927  -0.118456
     7  C   -0.260967   0.004246
     8  C    0.462553   0.202248
     9  C    0.380243  -0.100592
    10  C   -0.349224   0.011488
    11  O   -0.071619   0.001835
    12  C   -0.534399   0.291443
    13  C    2.017918   0.197676
    14  C   -0.644354   0.028372
    15  C   -0.669390   0.131600
    16  C   -1.556992  -0.086507
    17  N   -0.315582   0.152130
    18  H    0.114505   0.023791
    19  H   -0.120265   0.255300
    20  H    0.097421   0.086198
    21  H   -0.026424   0.177519
    22  H    0.144770   0.012944
    23  H    0.203683   0.008318
    24  H    0.163568  -0.008857
    25  H    0.194953   0.052156
    26  H    0.143603  -0.003572
    27  H    0.144067   0.014248
    28  H    0.139157  -0.018375
    29  H    0.139137  -0.000078
    30  H    0.115748  -0.003989
 Sum of Mulliken charges =  -1.00000   1.00000

 Dipole moment (field-independent basis, Debye):
    X=              9.1592    Y=             -0.3543    Z=             -0.6501  Tot=              9.1891
 Quadrupole moment (field-independent basis, Debye-Ang):
   XX=           -224.0536   YY=           -107.1381   ZZ=           -114.9528
   XY=              3.3623   XZ=            -13.1125   YZ=              2.0596

 Summary of Natural Population Analysis:

                                       Natural Population
                Natural  -----------------------------------------------
    Atom  No    Charge         Core      Valence    Rydberg      Total
 -----------------------------------------------------------------------
      C    1   -0.29968      0.99966     2.29537    0.00465     3.29968
      C    2   -0.02046      0.99959     2.00829    0.01258     3.02046
      O    3   -0.28122      0.99986     3.27273    0.00864     4.28122
      C    4    0.42157      0.99970     1.55290    0.02584     2.57843
      O    5   -0.31425      0.99987     3.30877    0.00562     4.31425
      C    6   -0.23459      0.99956     2.22772    0.00731     3.23459
      C    7    0.06717      0.99952     1.91822    0.01508     2.93283
      C    8    0.03830      0.99945     1.95217    0.01008     2.96170
      C    9   -0.04863      0.99946     2.04198    0.00718     3.04863
      C   10   -0.00594      0.99955     1.99644    0.00995     3.00594
      O   11   -0.30573      0.99989     3.29741    0.00843     4.30573
      C   12   -0.02745      0.99950     2.02016    0.00779     3.02745
      C   13   -0.05006      0.99943     2.03984    0.01078     3.05006
      C   14   -0.07434      0.99956     2.06693    0.00785     3.07434
      C   15   -0.10056      0.99952     2.09273    0.00831     3.10056
      C   16    0.14940      0.99964     1.83265    0.01831     2.85060
      N   17   -0.17082      0.99979     2.65974    0.01130     3.67082
      H   18    0.10012      0.00000     0.39848    0.00140     0.39988
      H   19    0.09843      0.00000     0.40023    0.00133     0.40157
      H   20    0.10955      0.00000     0.38893    0.00152     0.39045
      H   21    0.08747      0.00000     0.41134    0.00119     0.41253
      H   22    0.09427      0.00000     0.40444    0.00128     0.40573
      H   23    0.10890      0.00000     0.39013    0.00097     0.39110
      H   24    0.11140      0.00000     0.38767    0.00093     0.38860
      H   25    0.09725      0.00000     0.40107    0.00168     0.40275
      H   26    0.07884      0.00000     0.41961    0.00155     0.42116
      H   27    0.08432      0.00000     0.41425    0.00143     0.41568
      H   28    0.09508      0.00000     0.40406    0.00086     0.40492
      H   29    0.09716      0.00000     0.40198    0.00085     0.40284
      H   30    0.09448      0.00000     0.40456    0.00096     0.40552
 =======================================================================
   * Total *    0.00000     16.99355    43.81080    0.19565    61.00000

 Normal termination of Gaussian 16 at Fri Dec 11 14:15:48 2020.
