 Gaussian 16, Revision A.03,

 -----------------------------------------------------------
 # opt freq B3LYP/6-31G(d) empiricaldispersion=gd3bj scf=xqc
 -----------------------------------------------------------

 -------------------------------
 CID_112480844_JID_8827_neutraal
 -------------------------------
 Symbolic Z-matrix:
 Charge =  0 Multiplicity = 1

 SCF Done:  E(RB3LYP) =  -815.287340218     A.U. after   16 cycles
 SCF Done:  E(RB3LYP) =  -815.291105956     A.U. after   13 cycles
 SCF Done:  E(RB3LYP) =  -815.290982666     A.U. after   15 cycles
 SCF Done:  E(RB3LYP) =  -815.293576706     A.U. after   14 cycles
 SCF Done:  E(RB3LYP) =  -815.293875130     A.U. after   14 cycles
 SCF Done:  E(RB3LYP) =  -815.294501469     A.U. after   13 cycles
 SCF Done:  E(RB3LYP) =  -815.294632244     A.U. after   11 cycles
 SCF Done:  E(RB3LYP) =  -815.294591190     A.U. after   12 cycles
 SCF Done:  E(RB3LYP) =  -815.294658483     A.U. after   12 cycles
 SCF Done:  E(RB3LYP) =  -815.294702860     A.U. after   10 cycles
 SCF Done:  E(RB3LYP) =  -815.295269560     A.U. after   10 cycles
 SCF Done:  E(RB3LYP) =  -815.295270531     A.U. after   10 cycles
 SCF Done:  E(RB3LYP) =  -815.295271531     A.U. after    9 cycles
 SCF Done:  E(RB3LYP) =  -815.295271605     A.U. after    7 cycles
 Optimization completed.
    -- Stationary point found.
 Normal termination of Gaussian 16 at Fri Dec 11 22:25:31 2020.

 --------------------------------------------------------------------
 #N Geom=AllCheck Guess=TCheck SCRF=Check GenChk RB3LYP/6-31G(d) Freq
 --------------------------------------------------------------------

 Structure from the checkpoint file:  "JID_8827.chk"
 -------------------------------
 CID_112480844_JID_8827_neutraal
 -------------------------------
 Charge =  0 Multiplicity = 1

 SCF Done:  E(RB3LYP) =  -815.295271604     A.U. after    1 cycles

  Exact polarizability: 211.797 -12.301 166.738   2.227  -8.565 103.294
 Approx polarizability: 297.452 -30.266 318.166   5.143 -30.053 157.298

                      1                      2                      3
                      A                      A                      A
 Frequencies --     37.1795                54.9719                57.5596
 Red. masses --      4.8449                 1.1690                 4.0806
 Frc consts  --      0.0039                 0.0021                 0.0080
 IR Inten    --      2.2061                 0.1572                 0.6977

                      4                      5                      6
                      A                      A                      A
 Frequencies --     70.0746                89.6916               119.3094
 Red. masses --      6.0850                 4.7619                 5.1733
 Frc consts  --      0.0176                 0.0226                 0.0434
 IR Inten    --      0.7425                 0.7660                 1.0628

                      7                      8                      9
                      A                      A                      A
 Frequencies --    134.6684               144.3591               158.7038
 Red. masses --      3.1395                 2.9169                 3.1962
 Frc consts  --      0.0335                 0.0358                 0.0474
 IR Inten    --      1.4997                 1.6570                 3.8412

                     10                     11                     12
                      A                      A                      A
 Frequencies --    166.3337               192.2677               225.5075
 Red. masses --      1.4001                 5.3215                 4.4296
 Frc consts  --      0.0228                 0.1159                 0.1327
 IR Inten    --      0.9280                 3.4066                 0.2682

                     13                     14                     15
                      A                      A                      A
 Frequencies --    256.9455               289.8624               296.3173
 Red. masses --      3.8584                 2.7288                 2.0811
 Frc consts  --      0.1501                 0.1351                 0.1077
 IR Inten    --     15.3674                16.9957                26.0103

                     16                     17                     18
                      A                      A                      A
 Frequencies --    309.2032               322.9622               337.1004
 Red. masses --      2.2067                 4.5560                 1.6739
 Frc consts  --      0.1243                 0.2800                 0.1121
 IR Inten    --     80.6925                 1.0918                40.3181

                     19                     20                     21
                      A                      A                      A
 Frequencies --    409.0215               425.8035               460.7918
 Red. masses --      4.4874                 5.0577                 3.0754
 Frc consts  --      0.4423                 0.5403                 0.3847
 IR Inten    --      8.3137                 0.6787                 1.0979

                     22                     23                     24
                      A                      A                      A
 Frequencies --    485.0279               541.9631               567.0841
 Red. masses --      4.2977                 3.6782                13.4699
 Frc consts  --      0.5957                 0.6365                 2.5522
 IR Inten    --      6.3397                 0.9508                14.5552

                     25                     26                     27
                      A                      A                      A
 Frequencies --    575.5008               597.1031               644.8984
 Red. masses --      4.2197                 4.6126                 3.7358
 Frc consts  --      0.8234                 0.9689                 0.9154
 IR Inten    --      5.0446                 1.5379                 2.8782

                     28                     29                     30
                      A                      A                      A
 Frequencies --    664.9918               689.0447               703.4396
 Red. masses --      5.5453                 4.5458                 4.7721
 Frc consts  --      1.4448                 1.2716                 1.3913
 IR Inten    --      7.0367                 8.7854                17.8312

                     31                     32                     33
                      A                      A                      A
 Frequencies --    761.8383               779.2651               782.6789
 Red. masses --      4.0080                 4.6846                 5.0281
 Frc consts  --      1.3706                 1.6761                 1.8148
 IR Inten    --      7.0147                 2.0265                 2.7164

                     34                     35                     36
                      A                      A                      A
 Frequencies --    812.0729               856.4278               889.0677
 Red. masses --      1.5766                 4.9170                 3.0595
 Frc consts  --      0.6126                 2.1249                 1.4249
 IR Inten    --     22.2371                23.1350                11.0738

                     37                     38                     39
                      A                      A                      A
 Frequencies --    907.8792               926.7243               928.0840
 Red. masses --      3.3745                 1.3393                 2.6251
 Frc consts  --      1.6387                 0.6777                 1.3322
 IR Inten    --      4.9970                 0.7584                 8.8348

                     40                     41                     42
                      A                      A                      A
 Frequencies --    967.1393               973.0735              1031.6136
 Red. masses --      1.3012                 2.5592                 1.6637
 Frc consts  --      0.7171                 1.4277                 1.0432
 IR Inten    --      9.7386                 2.4702                 9.1286

                     43                     44                     45
                      A                      A                      A
 Frequencies --   1050.5526              1074.3097              1091.1372
 Red. masses --      2.4216                 1.5014                 1.7520
 Frc consts  --      1.5746                 1.0209                 1.2290
 IR Inten    --     13.9191                 1.7658                 6.9012

                     46                     47                     48
                      A                      A                      A
 Frequencies --   1109.4079              1126.4388              1161.2431
 Red. masses --      3.8910                 2.6254                 1.2959
 Frc consts  --      2.8216                 1.9628                 1.0296
 IR Inten    --     44.5486                 7.5244                 0.1639

                     49                     50                     51
                      A                      A                      A
 Frequencies --   1171.3907              1192.1798              1213.8879
 Red. masses --      1.8016                 1.5110                 2.5758
 Frc consts  --      1.4565                 1.2653                 2.2362
 IR Inten    --      1.1280                13.6141                 0.7511

                     52                     53                     54
                      A                      A                      A
 Frequencies --   1223.9533              1256.5419              1279.2870
 Red. masses --      1.1505                 1.2167                 3.4132
 Frc consts  --      1.0155                 1.1319                 3.2912
 IR Inten    --     42.0655                 1.0543                25.9085

                     55                     56                     57
                      A                      A                      A
 Frequencies --   1298.1262              1318.6843              1342.3516
 Red. masses --      1.4649                 1.9197                 1.3781
 Frc consts  --      1.4544                 1.9668                 1.4630
 IR Inten    --     17.5241               102.4166                 9.2503

                     58                     59                     60
                      A                      A                      A
 Frequencies --   1352.9756              1374.5230              1407.9917
 Red. masses --      3.2857                 2.1970                 2.7462
 Frc consts  --      3.5437                 2.4456                 3.2076
 IR Inten    --     47.1181                42.0777                 3.2785

                     61                     62                     63
                      A                      A                      A
 Frequencies --   1420.9804              1422.2619              1431.7169
 Red. masses --      1.4798                 2.0304                 2.0094
 Frc consts  --      1.7605                 2.4199                 2.4268
 IR Inten    --     28.1341                23.9630                20.8378

                     64                     65                     66
                      A                      A                      A
 Frequencies --   1442.2669              1477.7682              1485.7473
 Red. masses --      1.8210                 1.5333                 1.3563
 Frc consts  --      2.2318                 1.9728                 1.7640
 IR Inten    --     55.5170                21.5014                 6.8715

                     67                     68                     69
                      A                      A                      A
 Frequencies --   1491.6243              1493.9960              1506.6321
 Red. masses --      1.8155                 1.1457                 1.0419
 Frc consts  --      2.3800                 1.5066                 1.3934
 IR Inten    --     34.1941                 4.2317                15.3959

                     70                     71                     72
                      A                      A                      A
 Frequencies --   1516.6748              1520.5102              1530.4988
 Red. masses --      1.4270                 1.0425                 2.6925
 Frc consts  --      1.9341                 1.4200                 3.7160
 IR Inten    --      0.1292                 0.1595                29.0193

                     73                     74                     75
                      A                      A                      A
 Frequencies --   1545.9918              1554.9599              1587.3631
 Red. masses --      1.1332                 1.0874                 5.5457
 Frc consts  --      1.5958                 1.5491                 8.2330
 IR Inten    --      4.4037                 7.7888                60.1610

                     76                     77                     78
                      A                      A                      A
 Frequencies --   1643.7999              1680.6083              2269.9893
 Red. masses --      6.7512                 6.9718                13.8911
 Frc consts  --     10.7481                11.6019                42.1730
 IR Inten    --      2.1669                11.9618               388.4363

                     79                     80                     81
                      A                      A                      A
 Frequencies --   3003.2101              3042.6746              3047.8922
 Red. masses --      1.0627                 1.0947                 1.0403
 Frc consts  --      5.6472                 5.9709                 5.6940
 IR Inten    --     66.4922                41.8973                22.4375

                     82                     83                     84
                      A                      A                      A
 Frequencies --   3050.9916              3053.0207              3086.6699
 Red. masses --      1.0684                 1.0370                 1.0852
 Frc consts  --      5.8593                 5.6947                 6.0918
 IR Inten    --     42.2406                56.0908                28.4220

                     85                     86                     87
                      A                      A                      A
 Frequencies --   3097.9747              3100.7987              3106.8578
 Red. masses --      1.1011                 1.1014                 1.1058
 Frc consts  --      6.2266                 6.2392                 6.2890
 IR Inten    --     15.3175                35.4207                19.1470

                     88                     89                     90
                      A                      A                      A
 Frequencies --   3169.9118              3172.2965              3184.2902
 Red. masses --      1.0978                 1.0987                 1.0872
 Frc consts  --      6.4993                 6.5143                 6.4951
 IR Inten    --      5.1422                 6.7521                 7.9456

                     91                     92                     93
                      A                      A                      A
 Frequencies --   3204.0621              3241.6817              3759.2682
 Red. masses --      1.0943                 1.0913                 1.0666
 Frc consts  --      6.6187                 6.7566                 8.8808
 IR Inten    --     19.4451                 0.9717                22.2264

 - Thermochemistry -
 -------------------
 Temperature   298.150 Kelvin.  Pressure   1.00000 Atm.
 Atom     1 has atomic number  6 and mass  12.00000

 Molecular mass:   245.12766 amu.
 Principal axes and moments of inertia in atomic units:
                           1         2         3
     Eigenvalues --  2218.436357294.855387910.56034
           X            0.99986  -0.00565   0.01599
           Y            0.00521   0.99962   0.02722
           Z           -0.01614  -0.02713   0.99950
 This molecule is an asymmetric top.
 Rotational symmetry number  1.
 Warning -- assumption of classical behavior for rotation
           may cause significant error
 Rotational temperatures (Kelvin)      0.03904     0.01187     0.01095
 Rotational constants (GHZ):           0.81352     0.24740     0.22814
 Zero-point vibrational energy     705997.3 (Joules/Mol)
                                  168.73740 (Kcal/Mol)
 Warning -- explicit consideration of  26 degrees of freedom as
           vibrations may cause significant error
 Vibrational temperatures:     53.49    79.09    82.82   100.82   129.05
          (Kelvin)            171.66   193.76   207.70   228.34   239.32
                              276.63   324.46   369.69   417.05   426.33
                              444.87   464.67   485.01   588.49   612.64
                              662.98   697.85   779.76   815.91   828.02
                              859.10   927.86   956.77   991.38  1012.09
                             1096.12  1121.19  1126.10  1168.39  1232.21
                             1279.17  1306.24  1333.35  1335.31  1391.50
                             1400.04  1484.26  1511.51  1545.69  1569.90
                             1596.19  1620.69  1670.77  1685.37  1715.28
                             1746.51  1761.00  1807.88  1840.61  1867.71
                             1897.29  1931.34  1946.63  1977.63  2025.79
                             2044.47  2046.32  2059.92  2075.10  2126.18
                             2137.66  2146.11  2149.53  2167.71  2182.16
                             2187.68  2202.05  2224.34  2237.24  2283.86
                             2365.06  2418.02  3266.01  4320.95  4377.73
                             4385.24  4389.70  4392.62  4441.03  4457.29
                             4461.36  4470.08  4560.80  4564.23  4581.48
                             4609.93  4664.06  5408.75

 Zero-point correction=                           0.268900 (Hartree/Particle)
 Thermal correction to Energy=                    0.286034
 Thermal correction to Enthalpy=                  0.286979
 Thermal correction to Gibbs Free Energy=         0.223397
 Sum of electronic and zero-point Energies=           -815.026371
 Sum of electronic and thermal Energies=              -815.009237
 Sum of electronic and thermal Enthalpies=            -815.008293
 Sum of electronic and thermal Free Energies=         -815.071875

                     E (Thermal)             CV                S
                      KCal/Mol        Cal/Mol-Kelvin    Cal/Mol-Kelvin
 Total                  179.489             63.601            133.818
 Electronic               0.000              0.000              0.000
 Translational            0.889              2.981             42.391
 Rotational               0.889              2.981             33.215
 Vibrational            177.712             57.640             58.213
 Vibration     1          0.594              1.982              5.404
 Vibration     2          0.596              1.976              4.630
 Vibration     3          0.596              1.974              4.539
 Vibration     4          0.598              1.968              4.151
 Vibration     5          0.602              1.956              3.667
 Vibration     6          0.609              1.933              3.112
 Vibration     7          0.613              1.919              2.878
 Vibration     8          0.616              1.909              2.745
 Vibration     9          0.621              1.893              2.565
 Vibration    10          0.624              1.884              2.477
 Vibration    11          0.634              1.851              2.206
 Vibration    12          0.650              1.802              1.914
 Vibration    13          0.667              1.751              1.682
 Vibration    14          0.686              1.693              1.475
 Vibration    15          0.690              1.681              1.438
 Vibration    16          0.699              1.656              1.367
 Vibration    17          0.708              1.629              1.295
 Vibration    18          0.718              1.601              1.226
 Vibration    19          0.773              1.451              0.930
 Vibration    20          0.788              1.414              0.872
 Vibration    21          0.819              1.337              0.764
 Vibration    22          0.841              1.283              0.697
 Vibration    23          0.897              1.157              0.561
 Vibration    24          0.923              1.102              0.510
 Vibration    25          0.932              1.084              0.494
 Vibration    26          0.955              1.038              0.455

 Optimization completed.
    -- Stationary point found.
 Normal termination of Gaussian 16 at Fri Dec 11 22:37:50 2020.

 ----------------------------------------------------------------------
 # B3LYP/6-311++G(d,p) empiricaldispersion=gd3bj scf=xqc pop=npa geom=c
 heck
 ----------------------------------------------------------------------

 ---------------------------------------
 CID_112480844_JID_8827_Energie_neutraal
 ---------------------------------------
 Structure from the checkpoint file:  "JID_8827.chk"
 Charge =  0 Multiplicity = 1

 SCF Done:  E(RB3LYP) =  -815.519918565     A.U. after   17 cycles
 Normal termination of Gaussian 16 at Fri Dec 11 22:44:20 2020.

 ----------------------------------------------------------------------
 # B3LYP/6-311++G(d,p) empiricaldispersion=gd3bj scf=xqc pop=npa geom=c
 heck
 ----------------------------------------------------------------------

 -------------------------------------
 CID_112480844_JID_8827_Energie_kation
 -------------------------------------
 Structure from the checkpoint file:  "JID_8827.chk"
 Charge =  1 Multiplicity = 2

 SCF Done:  E(UB3LYP) =  -815.228369805     A.U. after   33 cycles
 SCF Done:  E(UB3LYP) =  -815.228370156     a.u. after    2 cycles
 Normal termination of Gaussian 16 at Fri Dec 11 23:19:28 2020.
 Gaussian 16:  ES64L-G16RevA.03 25-Dec-2016

 ----------------------------------------------------------------------
 # B3LYP/6-311++G(d,p) empiricaldispersion=gd3bj scf=xqc pop=npa geom=c
 heck
 ----------------------------------------------------------------------

 ------------------------------------
 CID_112480844_JID_8827_Energie_anion
 ------------------------------------
 Structure from the checkpoint file:  "JID_8827.chk"
 Charge = -1 Multiplicity = 2

                         Standard orientation:
 ---------------------------------------------------------------------
 Center     Atomic      Atomic             Coordinates (Angstroms)
 Number     Number       Type             X           Y           Z
 ---------------------------------------------------------------------
      1          6           0        4.347729   -1.910622   -0.123263
      2          6           0        3.122057   -1.060084   -0.083646
      3          7           0        1.893331   -1.524301   -0.109972
      4          6           0        1.074953   -0.402862   -0.051341
      5          6           0        1.863485    0.770045    0.007536
      6          7           0        3.175370    0.326434   -0.013605
      7          6           0        4.344731    1.178440    0.042497
      8          6           0        1.298748    2.042176    0.070213
      9          6           0       -0.092253    2.108448    0.073593
     10          6           0       -0.907756    0.956346    0.010415
     11          6           0       -0.318196   -0.312568   -0.048885
     12          6           0       -2.413246    1.147296    0.018298
     13          6           0       -3.150017    0.731082   -1.278634
     14          6           0       -2.865360   -0.652029   -1.842609
     15          8           0       -3.164786   -1.623468   -0.843723
     16          7           0       -3.104999    0.603734    1.226757
     17          7           0       -2.741868   -0.477288    1.687397
     18          7           0       -2.498041   -1.452573    2.229089
     19          1           0        4.034971   -2.954244   -0.179116
     20          1           0        4.965233   -1.779708    0.773791
     21          1           0        4.974274   -1.686406   -0.995318
     22          1           0        4.358762    1.754763    0.974504
     23          1           0        5.245448    0.565372   -0.002542
     24          1           0        4.353368    1.876345   -0.802293
     25          1           0        1.903301    2.942837    0.120263
     26          1           0       -0.570336    3.082656    0.130585
     27          1           0       -0.919140   -1.212493   -0.085751
     28          1           0       -2.601183    2.219428    0.121939
     29          1           0       -4.224053    0.829525   -1.084988
     30          1           0       -2.887919    1.461525   -2.055316
     31          1           0       -3.489946   -0.803110   -2.736905
     32          1           0       -1.813970   -0.718980   -2.155135
     33          1           0       -2.906323   -2.495814   -1.176633
 ---------------------------------------------------------------------

 SCF Done:  E(UB3LYP) =  -815.513446520     A.U. after   33 cycles
 SCF Done:  E(UB3LYP) =  -815.513452688     a.u. after    4 cycles

 The electronic state is 2-A.
 Alpha  occ. eigenvalues --  -19.04827 -14.38332 -14.28028 -14.27561 -14.26158
 Alpha  occ. eigenvalues --  -14.20113 -10.15130 -10.14117 -10.13773 -10.11661
 Alpha  occ. eigenvalues --  -10.11537 -10.10250 -10.09346 -10.09295 -10.08904
 Alpha  occ. eigenvalues --  -10.08722 -10.08607 -10.08176  -1.04153  -0.94881
 Alpha  occ. eigenvalues --   -0.92796  -0.88390  -0.80124  -0.76621  -0.71988
 Alpha  occ. eigenvalues --   -0.67879  -0.66177  -0.63694  -0.62891  -0.60002
 Alpha  occ. eigenvalues --   -0.53022  -0.52063  -0.51486  -0.48120  -0.45255
 Alpha  occ. eigenvalues --   -0.44312  -0.43205  -0.41785  -0.41146  -0.40241
 Alpha  occ. eigenvalues --   -0.38817  -0.38626  -0.36580  -0.35908  -0.34761
 Alpha  occ. eigenvalues --   -0.34427  -0.33576  -0.33035  -0.32647  -0.31536
 Alpha  occ. eigenvalues --   -0.31070  -0.30666  -0.30414  -0.29188  -0.28062
 Alpha  occ. eigenvalues --   -0.26647  -0.25283  -0.24312  -0.20988  -0.20471
 Alpha  occ. eigenvalues --   -0.20364  -0.18407  -0.15995  -0.13749  -0.13705
 Alpha  occ. eigenvalues --    0.03644
 Alpha virt. eigenvalues --    0.05000   0.05306   0.06457   0.06517   0.07330
 Alpha virt. eigenvalues --    0.07808   0.08435   0.08853   0.09201   0.09611
 Alpha virt. eigenvalues --    0.09708   0.10430   0.11100   0.11377   0.11633

  Beta  occ. eigenvalues --  -19.04818 -14.38310 -14.27990 -14.27559 -14.26164
  Beta  occ. eigenvalues --  -14.20107 -10.15127 -10.14108 -10.13759 -10.11586
  Beta  occ. eigenvalues --  -10.11536 -10.10250 -10.09335 -10.09297 -10.08889
  Beta  occ. eigenvalues --  -10.08682 -10.08601 -10.08169  -1.04105  -0.94859
  Beta  occ. eigenvalues --   -0.92785  -0.88362  -0.80110  -0.76609  -0.71964
  Beta  occ. eigenvalues --   -0.67848  -0.66147  -0.63657  -0.62820  -0.59961
  Beta  occ. eigenvalues --   -0.52991  -0.52028  -0.51467  -0.48075  -0.45220
  Beta  occ. eigenvalues --   -0.44279  -0.43144  -0.41719  -0.41121  -0.40181
  Beta  occ. eigenvalues --   -0.38781  -0.38594  -0.36530  -0.35878  -0.34720
  Beta  occ. eigenvalues --   -0.34376  -0.33525  -0.33008  -0.32604  -0.31504
  Beta  occ. eigenvalues --   -0.31037  -0.30631  -0.30370  -0.29166  -0.28038
  Beta  occ. eigenvalues --   -0.26629  -0.25252  -0.24292  -0.20955  -0.20424
  Beta  occ. eigenvalues --   -0.20347  -0.18376  -0.15981  -0.13733  -0.13689
  Beta virt. eigenvalues --    0.05385   0.05539   0.06442   0.06587   0.06938
  Beta virt. eigenvalues --    0.07801   0.08286   0.08865   0.09305   0.09476
  Beta virt. eigenvalues --    0.09919   0.10243   0.10545   0.11316   0.11652

 Mulliken charges and spin densities:
               1          2
     1  C    2.552899  -2.785991
     2  C   -1.175156   1.484386
     3  N   -0.111582   0.043533
     4  C   -0.373627   0.000503
     5  C    0.227491  -0.146608
     6  N   -0.262770   0.283036
     7  C    1.742223  -2.052977
     8  C   -0.194607  -0.210432
     9  C   -0.652922   0.466482
    10  C    0.145268   0.223368
    11  C   -0.739237  -0.032814
    12  C    0.631515  -0.393362
    13  C   -0.353108  -0.296031
    14  C   -0.003525  -0.420353
    15  O   -0.274252   0.000601
    16  N   -0.595773   0.112111
    17  N    0.891569  -0.018002
    18  N   -0.321402  -0.073299
    19  H    0.094350   0.076478
    20  H   -0.169242   0.352623
    21  H   -0.269974   0.457265
    22  H   -0.393448   0.573619
    23  H   -0.847288   1.016354
    24  H   -0.490326   0.669353
    25  H   -0.312806   0.485430
    26  H   -0.114483   0.263368
    27  H    0.174096  -0.044252
    28  H    0.050601   0.178274
    29  H    0.147640   0.051013
    30  H   -0.046602   0.198264
    31  H   -0.205800   0.367545
    32  H    0.089399   0.068284
    33  H    0.160878   0.102233
 Sum of Mulliken charges =  -1.00000   1.00000

 Dipole moment (field-independent basis, Debye):
    X=             -7.7754    Y=             -1.2154    Z=             -0.9206  Tot=              7.9235
 Quadrupole moment (field-independent basis, Debye-Ang):
   XX=           -219.6481   YY=           -145.0568   ZZ=           -140.9304
   XY=            -10.6334   XZ=              5.1925   YZ=              3.3195

 Summary of Natural Population Analysis:

                                       Natural Population
                Natural  -----------------------------------------------
    Atom  No    Charge         Core      Valence    Rydberg      Total
 -----------------------------------------------------------------------
      C    1   -0.31135      0.99962     2.30598    0.00574     3.31135
      C    2    0.22217      0.99961     1.76160    0.01663     2.77783
      N    3   -0.26196      0.99968     2.75324    0.00904     3.76196
      C    4    0.06129      0.99946     1.92571    0.01355     2.93871
      C    5    0.07290      0.99945     1.91658    0.01106     2.92710
      N    6   -0.21415      0.99959     2.70413    0.01042     3.71415
      C    7   -0.17583      0.99964     2.16787    0.00832     3.17583
      C    8   -0.11405      0.99953     2.10561    0.00891     3.11405
      C    9   -0.09723      0.99954     2.08799    0.00970     3.09723
      C   10   -0.04327      0.99950     2.03351    0.01026     3.04327
      C   11   -0.10462      0.99947     2.09599    0.00916     3.10462
      C   12   -0.01851      0.99950     2.00414    0.01487     3.01851
      C   13   -0.19867      0.99959     2.18945    0.00963     3.19867
      C   14   -0.01643      0.99959     2.00505    0.01179     3.01643
      O   15   -0.37396      0.99989     3.36700    0.00707     4.37396
      N   16   -0.18029      0.99969     2.66696    0.01364     3.68029
      N   17    0.12411      0.99969     2.36011    0.01608     3.37589
      N   18   -0.04680      0.99982     2.53501    0.01197     3.54680
      H   19    0.11504      0.00000     0.38394    0.00103     0.38496
      H   20    0.11035      0.00000     0.38844    0.00121     0.38965
      H   21    0.11157      0.00000     0.38692    0.00152     0.38843
      H   22    0.10160      0.00000     0.39614    0.00226     0.39840
      H   23    0.10941      0.00000     0.38685    0.00374     0.39059
      H   24    0.10252      0.00000     0.39478    0.00270     0.39748
      H   25    0.10764      0.00000     0.39116    0.00120     0.39236
      H   26    0.09934      0.00000     0.39963    0.00103     0.40066
      H   27    0.11179      0.00000     0.38560    0.00261     0.38821
      H   28    0.10286      0.00000     0.39524    0.00191     0.39714
      H   29    0.10396      0.00000     0.39486    0.00118     0.39604
      H   30    0.10481      0.00000     0.39410    0.00109     0.39519
      H   31    0.07995      0.00000     0.41874    0.00132     0.42005
      H   32    0.08455      0.00000     0.41404    0.00141     0.41545
      H   33    0.23126      0.00000     0.26604    0.00269     0.26874
 =======================================================================
   * Total *    0.00000     17.99286    46.78240    0.22473    65.00000

 Normal termination of Gaussian 16 at Sat Dec 12 00:43:44 2020.
