 Gaussian 16, Revision A.03,

 -----------------------------------------------------------
 # opt freq B3LYP/6-31G(d) empiricaldispersion=gd3bj scf=xqc
 -----------------------------------------------------------

 ------------------------------
 CID_84097199_JID_9280_neutraal
 ------------------------------
 Symbolic Z-matrix:
 Charge =  0 Multiplicity = 1

 SCF Done:  E(RB3LYP) =  -787.896001664     A.U. after   14 cycles
 SCF Done:  E(RB3LYP) =  -787.899336829     A.U. after   12 cycles
 SCF Done:  E(RB3LYP) =  -787.897813235     A.U. after   12 cycles
 SCF Done:  E(RB3LYP) =  -787.901257098     A.U. after   11 cycles
 SCF Done:  E(RB3LYP) =  -787.902394277     A.U. after   12 cycles
 SCF Done:  E(RB3LYP) =  -787.903110130     A.U. after   12 cycles
 SCF Done:  E(RB3LYP) =  -787.904619634     A.U. after   15 cycles
 SCF Done:  E(RB3LYP) =  -787.906298054     A.U. after   12 cycles
 SCF Done:  E(RB3LYP) =  -787.906690083     A.U. after   12 cycles
 SCF Done:  E(RB3LYP) =  -787.908144101     A.U. after   12 cycles
 SCF Done:  E(RB3LYP) =  -787.909394521     A.U. after   11 cycles
 SCF Done:  E(RB3LYP) =  -787.909444007     A.U. after   10 cycles
 SCF Done:  E(RB3LYP) =  -787.909462781     A.U. after   10 cycles
 SCF Done:  E(RB3LYP) =  -787.909465274     A.U. after    8 cycles
 SCF Done:  E(RB3LYP) =  -787.909465722     A.U. after    7 cycles
 SCF Done:  E(RB3LYP) =  -787.909465847     A.U. after    7 cycles
 Optimization completed.
    -- Stationary point found.
 Normal termination of Gaussian 16 at Sun Dec 13 16:33:12 2020.

 --------------------------------------------------------------------
 #N Geom=AllCheck Guess=TCheck SCRF=Check GenChk RB3LYP/6-31G(d) Freq
 --------------------------------------------------------------------

 Structure from the checkpoint file:  "JID_9280.chk"
 ------------------------------
 CID_84097199_JID_9280_neutraal
 ------------------------------
 Charge =  0 Multiplicity = 1

 SCF Done:  E(RB3LYP) =  -787.909465847     A.U. after    1 cycles

  Exact polarizability: 212.469   0.751 165.346   6.059   0.981 134.190
 Approx polarizability: 272.961   4.963 265.650   8.918   3.705 210.579

                      1                      2                      3
                      A                      A                      A
 Frequencies --     28.1593                64.9790               114.7608
 Red. masses --      3.8803                 3.5691                 4.0607
 Frc consts  --      0.0018                 0.0089                 0.0315
 IR Inten    --      0.2641                 0.5990                 0.2513

                      4                      5                      6
                      A                      A                      A
 Frequencies --    129.7011               166.0655               202.4423
 Red. masses --      3.2544                 3.6884                 3.5381
 Frc consts  --      0.0323                 0.0599                 0.0854
 IR Inten    --      1.2276                 0.9387                 0.3043

                      7                      8                      9
                      A                      A                      A
 Frequencies --    257.9445               273.9958               292.7128
 Red. masses --      4.6223                 3.2193                 2.6475
 Frc consts  --      0.1812                 0.1424                 0.1336
 IR Inten    --      0.3888                 0.8282                 3.1912

                     10                     11                     12
                      A                      A                      A
 Frequencies --    326.4818               348.8758               355.1879
 Red. masses --      2.0297                 1.9398                 2.7391
 Frc consts  --      0.1275                 0.1391                 0.2036
 IR Inten    --      0.0671                 1.5059                 1.1002

                     13                     14                     15
                      A                      A                      A
 Frequencies --    385.7934               417.7071               441.3128
 Red. masses --      1.9850                 4.7665                 2.4516
 Frc consts  --      0.1741                 0.4900                 0.2813
 IR Inten    --      0.2614                 0.6181                 1.3348

                     16                     17                     18
                      A                      A                      A
 Frequencies --    444.5074               458.6558               461.5762
 Red. masses --      2.2193                 2.6924                 3.2711
 Frc consts  --      0.2584                 0.3337                 0.4106
 IR Inten    --      0.7520                 0.4942                 1.2065

                     19                     20                     21
                      A                      A                      A
 Frequencies --    508.7597               531.8074               634.1955
 Red. masses --      3.3487                 3.4156                 4.4808
 Frc consts  --      0.5107                 0.5691                 1.0618
 IR Inten    --      5.6246                12.3708                 5.0427

                     22                     23                     24
                      A                      A                      A
 Frequencies --    648.9002               652.9909               664.1129
 Red. masses --      4.1148                 3.6200                 3.2595
 Frc consts  --      1.0208                 0.9094                 0.8470
 IR Inten    --      5.0875                 1.1152                 7.3941

                     25                     26                     27
                      A                      A                      A
 Frequencies --    683.2092               696.7051               733.5637
 Red. masses --      4.9019                 2.6084                 4.0764
 Frc consts  --      1.3481                 0.7460                 1.2924
 IR Inten    --      3.4530                44.3882                 4.4930

                     28                     29                     30
                      A                      A                      A
 Frequencies --    776.6736               784.3813               805.1816
 Red. masses --      3.9659                 1.3721                 3.0666
 Frc consts  --      1.4095                 0.4974                 1.1714
 IR Inten    --      0.5102                 9.3998                 2.9967

                     31                     32                     33
                      A                      A                      A
 Frequencies --    818.1682               828.9043               834.4352
 Red. masses --      2.0463                 2.6875                 2.7086
 Frc consts  --      0.8070                 1.0879                 1.1112
 IR Inten    --     40.8782                 1.0892                 0.1349

                     34                     35                     36
                      A                      A                      A
 Frequencies --    844.8599               902.1724               904.0028
 Red. masses --      2.9961                 1.6071                 1.5625
 Frc consts  --      1.2600                 0.7707                 0.7523
 IR Inten    --      3.9151                 0.1454                 0.1022

                     37                     38                     39
                      A                      A                      A
 Frequencies --    907.1472               923.4572               927.3695
 Red. masses --      2.0190                 2.2232                 2.1190
 Frc consts  --      0.9789                 1.1170                 1.0737
 IR Inten    --      2.7803                 1.5111                 0.1864

                     40                     41                     42
                      A                      A                      A
 Frequencies --    950.9457               970.6702               984.2576
 Red. masses --      2.8560                 2.1264                 2.1445
 Frc consts  --      1.5217                 1.1804                 1.2240
 IR Inten    --     32.4045                 0.5597                 8.5760

                     43                     44                     45
                      A                      A                      A
 Frequencies --   1003.0056              1009.3805              1035.6650
 Red. masses --      2.0874                 2.0600                 1.6032
 Frc consts  --      1.2372                 1.2366                 1.0132
 IR Inten    --      1.1090                 1.6843                 4.5262

                     46                     47                     48
                      A                      A                      A
 Frequencies --   1054.8712              1056.4797              1061.4018
 Red. masses --      3.1990                 2.4972                 1.9478
 Frc consts  --      2.0973                 1.6422                 1.2929
 IR Inten    --      0.8340                 0.0545                 0.1022

                     49                     50                     51
                      A                      A                      A
 Frequencies --   1082.7042              1088.9532              1100.5435
 Red. masses --      2.1263                 1.8184                 1.7565
 Frc consts  --      1.4686                 1.2704                 1.2535
 IR Inten    --      5.8098                 1.9354                 6.3957

                     52                     53                     54
                      A                      A                      A
 Frequencies --   1123.6834              1129.2182              1135.7553
 Red. masses --      2.1479                 1.6092                 1.9653
 Frc consts  --      1.5979                 1.2090                 1.4936
 IR Inten    --     16.7925                 2.4597                 0.6234

                     55                     56                     57
                      A                      A                      A
 Frequencies --   1144.2590              1145.9196              1152.0418
 Red. masses --      1.6956                 1.4639                 1.0460
 Frc consts  --      1.3080                 1.1326                 0.8179
 IR Inten    --     12.9539                 8.7343                 5.5103

                     58                     59                     60
                      A                      A                      A
 Frequencies --   1154.0665              1196.7717              1209.2046
 Red. masses --      1.1010                 2.2409                 1.2954
 Frc consts  --      0.8639                 1.8910                 1.1159
 IR Inten    --      0.7481                 1.5562                 2.8028

                     61                     62                     63
                      A                      A                      A
 Frequencies --   1220.0839              1228.5434              1256.4353
 Red. masses --      1.1629                 1.4520                 1.5762
 Frc consts  --      1.0199                 1.2912                 1.4660
 IR Inten    --      0.3213                 2.1718                59.4991

                     64                     65                     66
                      A                      A                      A
 Frequencies --   1260.6977              1283.6453              1292.6473
 Red. masses --      1.0471                 1.5556                 1.4719
 Frc consts  --      0.9806                 1.5102                 1.4491
 IR Inten    --      4.0571                24.5802                15.4463

                     67                     68                     69
                      A                      A                      A
 Frequencies --   1313.1864              1316.6340              1331.8907
 Red. masses --      1.8001                 1.5367                 1.6565
 Frc consts  --      1.8289                 1.5696                 1.7314
 IR Inten    --      4.9045                12.0235                 1.4352

                     70                     71                     72
                      A                      A                      A
 Frequencies --   1337.2835              1344.0264              1353.0250
 Red. masses --      1.5892                 1.7168                 1.7298
 Frc consts  --      1.6744                 1.8272                 1.8657
 IR Inten    --      2.7117                12.9733                 4.7806

                     73                     74                     75
                      A                      A                      A
 Frequencies --   1361.1315              1363.2719              1370.3532
 Red. masses --      2.0417                 2.0246                 1.3323
 Frc consts  --      2.2286                 2.2169                 1.4740
 IR Inten    --     17.1510                12.8429                 0.3262

                     76                     77                     78
                      A                      A                      A
 Frequencies --   1372.8868              1377.0527              1392.7830
 Red. masses --      1.3448                 1.4495                 1.6698
 Frc consts  --      1.4934                 1.6195                 1.9085
 IR Inten    --      0.3296                 2.2797                 9.2260

                     79                     80                     81
                      A                      A                      A
 Frequencies --   1400.3285              1409.0072              1418.4725
 Red. masses --      1.5425                 1.6542                 1.6141
 Frc consts  --      1.7821                 1.9349                 1.9134
 IR Inten    --      1.6122                 0.2052                 0.8841

                     82                     83                     84
                      A                      A                      A
 Frequencies --   1421.9441              1423.8939              1430.2405
 Red. masses --      1.6000                 1.5604                 1.7688
 Frc consts  --      1.9060                 1.8639                 2.1318
 IR Inten    --      0.2547                 4.0845                11.2541

                     85                     86                     87
                      A                      A                      A
 Frequencies --   1445.3252              1459.5245              1503.4076
 Red. masses --      1.6614                 2.7597                 1.3178
 Frc consts  --      2.0448                 3.4636                 1.7549
 IR Inten    --      4.7433                 2.4941                 0.3594

                     88                     89                     90
                      A                      A                      A
 Frequencies --   1507.8850              1509.9922              1515.1644
 Red. masses --      1.1297                 1.0906                 1.0957
 Frc consts  --      1.5134                 1.4651                 1.4820
 IR Inten    --      5.4296                 0.0062                 1.2260

                     91                     92                     93
                      A                      A                      A
 Frequencies --   1523.4606              1524.4044              1525.7812
 Red. masses --      1.1191                 1.4564                 1.1920
 Frc consts  --      1.5304                 1.9941                 1.6349
 IR Inten    --      9.1414                24.7913                 6.5738

                     94                     95                     96
                      A                      A                      A
 Frequencies --   1531.7677              1536.0316              1543.1254
 Red. masses --      1.8334                 1.1212                 1.0934
 Frc consts  --      2.5345                 1.5585                 1.5340
 IR Inten    --     40.4530                 1.5215                 4.3464

                     97                     98                     99
                      A                      A                      A
 Frequencies --   1641.3042              2900.3793              2935.9593
 Red. masses --      7.6816                 1.0741                 1.0735
 Frc consts  --     12.1921                 5.3234                 5.4521
 IR Inten    --      9.4022                99.7969                84.3087

                    100                    101                    102
                      A                      A                      A
 Frequencies --   3015.1268              3029.5179              3032.0055
 Red. masses --      1.0833                 1.0623                 1.0621
 Frc consts  --      5.8027                 5.7443                 5.7530
 IR Inten    --     14.6516                17.9444                23.0102

                    103                    104                    105
                      A                      A                      A
 Frequencies --   3035.4137              3037.4987              3040.0153
 Red. masses --      1.0640                 1.0842                 1.0673
 Frc consts  --      5.7762                 5.8939                 5.8113
 IR Inten    --     14.0334                43.9705                 8.9683

                    106                    107                    108
                      A                      A                      A
 Frequencies --   3042.0352              3043.9637              3054.7410
 Red. masses --      1.0622                 1.0680                 1.0815
 Frc consts  --      5.7912                 5.8306                 5.9461
 IR Inten    --     40.0467                28.0294               116.1015

                    109                    110                    111
                      A                      A                      A
 Frequencies --   3057.9208              3065.1572              3067.5202
 Red. masses --      1.0821                 1.0836                 1.1044
 Frc consts  --      5.9614                 5.9982                 6.1226
 IR Inten    --     98.3179                28.1308                16.6483

                    112                    113                    114
                      A                      A                      A
 Frequencies --   3072.6589              3077.1677              3081.6874
 Red. masses --      1.1029                 1.1034                 1.1003
 Frc consts  --      6.1348                 6.1560                 6.1566
 IR Inten    --     55.5462                63.6821                30.5863

                    115                    116                    117
                      A                      A                      A
 Frequencies --   3082.4972              3094.7204              3102.2339
 Red. masses --      1.1038                 1.0900                 1.0842
 Frc consts  --      6.1794                 6.1508                 6.1477
 IR Inten    --     40.3551                58.9444                29.5638

                    118                    119                    120
                      A                      A                      A
 Frequencies --   3108.8006              3300.2527              3506.9711
 Red. masses --      1.0948                 1.0950                 1.0747
 Frc consts  --      6.2343                 7.0267                 7.7873
 IR Inten    --     37.0775                 2.0300                 1.6336

 - Thermochemistry -
 -------------------
 Temperature   298.150 Kelvin.  Pressure   1.00000 Atm.
 Atom     1 has atomic number  6 and mass  12.00000

 Molecular mass:   257.18920 amu.
 Principal axes and moments of inertia in atomic units:
                           1         2         3
     Eigenvalues --  1975.807097233.869068014.75983
           X            0.99996  -0.00837   0.00402
           Y            0.00838   0.99996  -0.00297
           Z           -0.00400   0.00300   0.99999
 This molecule is an asymmetric top.
 Rotational symmetry number  1.
 Warning -- assumption of classical behavior for rotation
           may cause significant error
 Rotational temperatures (Kelvin)      0.04384     0.01197     0.01081
 Rotational constants (GHZ):           0.91342     0.24948     0.22518
 Zero-point vibrational energy     997700.7 (Joules/Mol)
                                  238.45620 (Kcal/Mol)
 Warning -- explicit consideration of  20 degrees of freedom as
           vibrations may cause significant error
 Vibrational temperatures:     40.51    93.49   165.12   186.61   238.93
          (Kelvin)            291.27   371.12   394.22   421.15   469.73
                              501.95   511.04   555.07   600.99   634.95
                              639.55   659.90   664.11   731.99   765.15
                              912.47   933.62   939.51   955.51   982.99
                             1002.40  1055.43  1117.46  1128.55  1158.48
                             1177.16  1192.61  1200.57  1215.56  1298.02
                             1300.66  1305.18  1328.65  1334.28  1368.20
                             1396.58  1416.13  1443.10  1452.27  1490.09
                             1517.72  1520.04  1527.12  1557.77  1566.76
                             1583.44  1616.73  1624.69  1634.10  1646.33
                             1648.72  1657.53  1660.44  1721.89  1739.78
                             1755.43  1767.60  1807.73  1813.86  1846.88
                             1859.83  1889.38  1894.34  1916.29  1924.05
                             1933.75  1946.70  1958.36  1961.44  1971.63
                             1975.28  1981.27  2003.90  2014.76  2027.25
                             2040.87  2045.86  2048.67  2057.80  2079.50
                             2099.93  2163.07  2169.51  2172.54  2179.98
                             2191.92  2193.28  2195.26  2203.87  2210.01
                             2220.21  2361.47  4173.00  4224.19  4338.09
                             4358.80  4362.38  4367.28  4370.28  4373.90
                             4376.81  4379.58  4395.09  4399.67  4410.08
                             4413.48  4420.87  4427.36  4433.86  4435.03
                             4452.61  4463.42  4472.87  4748.33  5045.75

 Zero-point correction=                           0.380004 (Hartree/Particle)
 Thermal correction to Energy=                    0.394152
 Thermal correction to Enthalpy=                  0.395096
 Thermal correction to Gibbs Free Energy=         0.339119
 Sum of electronic and zero-point Energies=           -787.529462
 Sum of electronic and thermal Energies=              -787.515314
 Sum of electronic and thermal Enthalpies=            -787.514370
 Sum of electronic and thermal Free Energies=         -787.570346

                     E (Thermal)             CV                S
                      KCal/Mol        Cal/Mol-Kelvin    Cal/Mol-Kelvin
 Total                  247.334             61.507            117.813
 Electronic               0.000              0.000              0.000
 Translational            0.889              2.981             42.534
 Rotational               0.889              2.981             33.104
 Vibrational            245.557             55.545             42.175
 Vibration     1          0.593              1.984              5.955
 Vibration     2          0.597              1.971              4.300
 Vibration     3          0.608              1.937              3.187
 Vibration     4          0.612              1.924              2.950
 Vibration     5          0.624              1.884              2.480
 Vibration     6          0.639              1.836              2.111
 Vibration     7          0.667              1.749              1.676
 Vibration     8          0.676              1.721              1.571
 Vibration     9          0.688              1.687              1.458
 Vibration    10          0.710              1.623              1.277
 Vibration    11          0.726              1.578              1.171
 Vibration    12          0.731              1.565              1.143
 Vibration    13          0.754              1.501              1.016
 Vibration    14          0.781              1.432              0.900
 Vibration    15          0.801              1.380              0.822
 Vibration    16          0.804              1.373              0.813
 Vibration    17          0.817              1.342              0.770
 Vibration    18          0.819              1.335              0.762
 Vibration    19          0.864              1.231              0.637
 Vibration    20          0.887              1.180              0.583

                           ! Non-Optimized Parameters !
 Normal termination of Gaussian 16 at Sun Dec 13 17:02:01 2020.

 ----------------------------------------------------------------------
 # B3LYP/6-311++G(d,p) empiricaldispersion=gd3bj scf=xqc pop=npa geom=c
 heck
 ----------------------------------------------------------------------

 --------------------------------------
 CID_84097199_JID_9280_Energie_neutraal
 --------------------------------------
 Structure from the checkpoint file:  "JID_9280.chk"
 Charge =  0 Multiplicity = 1

 SCF Done:  E(RB3LYP) =  -788.112139753     A.U. after   14 cycles
 Normal termination of Gaussian 16 at Sun Dec 13 17:14:35 2020.

 ----------------------------------------------------------------------
 # B3LYP/6-311++G(d,p) empiricaldispersion=gd3bj scf=xqc pop=npa geom=c
 heck
 ----------------------------------------------------------------------

 ------------------------------------
 CID_84097199_JID_9280_Energie_kation
 ------------------------------------
 Structure from the checkpoint file:  "JID_9280.chk"
 Charge =  1 Multiplicity = 2

 SCF Done:  E(UB3LYP) =  -787.833813225     A.U. after   22 cycles
 Normal termination of Gaussian 16 at Sun Dec 13 17:42:26 2020.
 Gaussian 16:  ES64L-G16RevA.03 25-Dec-2016

 ----------------------------------------------------------------------
 # B3LYP/6-311++G(d,p) empiricaldispersion=gd3bj scf=xqc pop=npa geom=c
 heck
 ----------------------------------------------------------------------

 -----------------------------------
 CID_84097199_JID_9280_Energie_anion
 -----------------------------------
 Structure from the checkpoint file:  "JID_9280.chk"
 Charge = -1 Multiplicity = 2

                         Standard orientation:
 ---------------------------------------------------------------------
 Center     Atomic      Atomic             Coordinates (Angstroms)
 Number     Number       Type             X           Y           Z
 ---------------------------------------------------------------------
      1          6           0        4.254112    0.639992    0.226239
      2          6           0        4.402374   -0.860817    0.523564
      3          7           0        3.622169   -1.643145   -0.446311
      4          6           0        2.174417   -1.510350   -0.238924
      5          6           0        1.866487   -0.047473   -0.170494
      6          6           0        2.801809    0.936835    0.024384
      7          7           0        2.216536    2.182976   -0.032822
      8          6           0        0.940229    1.948551   -0.260860
      9          7           0        0.650257    0.603683   -0.341964
     10          6           0       -0.616997   -0.042580   -0.707657
     11          6           0       -1.072737   -1.093739    0.332764
     12          6           0       -1.504087   -0.409345    1.641024
     13          6           0       -2.691155    0.533172    1.370201
     14          6           0       -3.866200   -0.259369    0.767990
     15          6           0       -3.423856   -0.916942   -0.552695
     16          6           0       -2.255753   -1.876933   -0.267860
     17          6           0       -2.955690    0.169059   -1.540418
     18          6           0       -1.771852    0.957058   -0.940103
     19          6           0       -2.240559    1.616323    0.375462
     20          1           0        4.667711    1.232435    1.051389
     21          1           0        4.824966    0.897739   -0.675597
     22          1           0        4.085589   -1.052326    1.567104
     23          1           0        5.450556   -1.164382    0.437096
     24          1           0        3.872927   -2.625625   -0.366833
     25          1           0        1.655307   -1.993739   -1.078126
     26          1           0        1.834554   -2.023235    0.683815
     27          1           0        0.187059    2.709907   -0.383465
     28          1           0       -0.430892   -0.564433   -1.657048
     29          1           0       -0.252226   -1.786696    0.537182
     30          1           0       -1.785119   -1.174486    2.376117
     31          1           0       -0.662769    0.152588    2.064847
     32          1           0       -3.006680    1.007124    2.307788
     33          1           0       -4.717315    0.411121    0.589260
     34          1           0       -4.205443   -1.029036    1.474069
     35          1           0       -4.262092   -1.473124   -0.990414
     36          1           0       -2.571410   -2.659795    0.433527
     37          1           0       -1.943041   -2.381510   -1.192060
     38          1           0       -3.778172    0.862177   -1.757690
     39          1           0       -2.661010   -0.288284   -2.494036
     40          1           0       -1.449403    1.722199   -1.655896
     41          1           0       -1.447274    2.218027    0.828002
     42          1           0       -3.071810    2.298108    0.152940
 ---------------------------------------------------------------------

 SCF Done:  E(UB3LYP) =  -788.105014688     A.U. after   31 cycles

 The electronic state is 2-A.
 Alpha  occ. eigenvalues --  -14.27077 -14.21163 -14.19426 -10.12468 -10.12254
 Alpha  occ. eigenvalues --  -10.11260 -10.10657 -10.09788 -10.08926 -10.08416
 Alpha  occ. eigenvalues --  -10.08133 -10.07893 -10.07762 -10.07576 -10.07285
 Alpha  occ. eigenvalues --  -10.07216 -10.06855 -10.06788 -10.06649  -0.91780
 Alpha  occ. eigenvalues --   -0.82376  -0.80279  -0.76808  -0.68601  -0.68118
 Alpha  occ. eigenvalues --   -0.67732  -0.67717  -0.65505  -0.58891  -0.57718
 Alpha  occ. eigenvalues --   -0.56126  -0.53159  -0.51630  -0.49869  -0.49312
 Alpha  occ. eigenvalues --   -0.47680  -0.44643  -0.44113  -0.41302  -0.39537
 Alpha  occ. eigenvalues --   -0.38389  -0.37850  -0.37032  -0.36080  -0.35885
 Alpha  occ. eigenvalues --   -0.34553  -0.33463  -0.32981  -0.32214  -0.31717
 Alpha  occ. eigenvalues --   -0.31310  -0.30957  -0.30481  -0.30223  -0.30183
 Alpha  occ. eigenvalues --   -0.27860  -0.26914  -0.25837  -0.24940  -0.24430
 Alpha  occ. eigenvalues --   -0.24242  -0.23845  -0.23715  -0.20028  -0.19677
 Alpha  occ. eigenvalues --   -0.19579  -0.17498  -0.16898  -0.14226  -0.12102
 Alpha  occ. eigenvalues --    0.03690
 Alpha virt. eigenvalues --    0.05588   0.06946   0.06978   0.07666   0.08215
 Alpha virt. eigenvalues --    0.08493   0.09132   0.09342   0.09710   0.10094
 Alpha virt. eigenvalues --    0.10230   0.10851   0.11371   0.11995   0.12211

  Beta  occ. eigenvalues --  -14.27074 -14.21144 -14.19425 -10.12458 -10.12249
  Beta  occ. eigenvalues --  -10.11234 -10.10646 -10.09786 -10.08922 -10.08414
  Beta  occ. eigenvalues --  -10.08129 -10.07892 -10.07757 -10.07569 -10.07272
  Beta  occ. eigenvalues --  -10.07193 -10.06839 -10.06762 -10.06629  -0.91773
  Beta  occ. eigenvalues --   -0.82347  -0.80264  -0.76787  -0.68576  -0.68094
  Beta  occ. eigenvalues --   -0.67714  -0.67687  -0.65476  -0.58858  -0.57673
  Beta  occ. eigenvalues --   -0.56091  -0.53128  -0.51602  -0.49834  -0.49281
  Beta  occ. eigenvalues --   -0.47651  -0.44591  -0.44086  -0.41255  -0.39500
  Beta  occ. eigenvalues --   -0.38361  -0.37825  -0.36996  -0.36049  -0.35853
  Beta  occ. eigenvalues --   -0.34525  -0.33438  -0.32958  -0.32193  -0.31696
  Beta  occ. eigenvalues --   -0.31289  -0.30931  -0.30450  -0.30193  -0.30152
  Beta  occ. eigenvalues --   -0.27840  -0.26889  -0.25814  -0.24920  -0.24406
  Beta  occ. eigenvalues --   -0.24215  -0.23820  -0.23686  -0.19995  -0.19641
  Beta  occ. eigenvalues --   -0.19542  -0.17486  -0.16885  -0.14191  -0.12086
  Beta virt. eigenvalues --    0.05822   0.06338   0.07526   0.07585   0.08115
  Beta virt. eigenvalues --    0.08576   0.08839   0.09452   0.09620   0.10006
  Beta virt. eigenvalues --    0.10355   0.10402   0.11062   0.11518   0.12253

 Mulliken charges and spin densities:
               1          2
     1  C   -1.176493   0.413597
     2  C    0.164745  -0.448231
     3  N   -0.287834   0.168805
     4  C    1.465697  -2.017678
     5  C   -0.547909   0.666985
     6  C   -0.210391   0.035347
     7  N   -0.066821  -0.001050
     8  C    0.207070  -0.062039
     9  N    0.224298   0.074750
    10  C    0.188716  -0.843875
    11  C   -0.682152   1.356635
    12  C   -0.343150  -0.519952
    13  C   -0.430842   0.799677
    14  C    1.136973  -1.867978
    15  C   -0.809053   1.292380
    16  C    0.699925  -1.610378
    17  C    0.488340  -1.429988
    18  C   -0.301082   0.630085
    19  C    0.203281  -0.768682
    20  H    0.121285   0.024247
    21  H    0.151328   0.004232
    22  H    0.017945   0.082330
    23  H   -0.019610   0.191011
    24  H    0.001035   0.249170
    25  H   -0.204493   0.392498
    26  H   -0.377853   0.558799
    27  H    0.115566   0.069990
    28  H    0.283682   0.021225
    29  H    0.621139  -0.345957
    30  H   -0.281944   0.465255
    31  H    0.143269   0.010018
    32  H   -0.061576   0.286430
    33  H   -0.188520   0.345872
    34  H   -0.000824   0.147401
    35  H   -0.310808   0.553598
    36  H   -0.335342   0.496952
    37  H   -0.256229   0.410584
    38  H   -0.213734   0.387585
    39  H   -0.229787   0.358488
    40  H    0.106682   0.122981
    41  H    0.095880   0.021322
    42  H   -0.100410   0.277560
 Sum of Mulliken charges =  -1.00000   1.00000

 Dipole moment (field-independent basis, Debye):
    X=              2.6423    Y=              2.5638    Z=              0.8782  Tot=              3.7850
 Quadrupole moment (field-independent basis, Debye-Ang):
   XX=           -198.7576   YY=           -168.9534   ZZ=           -154.1201
   XY=             -3.7632   XZ=              0.7810   YZ=             -0.8202

 Summary of Natural Population Analysis:

                                       Natural Population
                Natural  -----------------------------------------------
    Atom  No    Charge         Core      Valence    Rydberg      Total
 -----------------------------------------------------------------------
      C    1   -0.20037      0.99959     2.19283    0.00795     3.20037
      C    2   -0.08563      0.99964     2.07393    0.01206     3.08563
      N    3   -0.33581      0.99974     2.82457    0.01149     3.83581
      C    4   -0.09885      0.99959     2.08823    0.01103     3.09885
      C    5    0.05784      0.99942     1.93200    0.01074     2.94216
      C    6    0.05168      0.99944     1.93522    0.01366     2.94832
      N    7   -0.25818      0.99970     2.74858    0.00990     3.75818
      C    8    0.10480      0.99963     1.88029    0.01528     2.89520
      N    9   -0.20502      0.99961     2.69567    0.00974     3.70502
      C   10    0.00421      0.99953     1.98345    0.01281     2.99579
      C   11   -0.11723      0.99957     2.10489    0.01277     3.11723
      C   12   -0.18912      0.99960     2.17997    0.00955     3.18912
      C   13   -0.11089      0.99959     2.09987    0.01142     3.11089
      C   14   -0.18731      0.99960     2.17787    0.00983     3.18731
      C   15   -0.11172      0.99959     2.09994    0.01219     3.11172
      C   16   -0.18623      0.99960     2.17615    0.01047     3.18623
      C   17   -0.18471      0.99960     2.17509    0.01002     3.18471
      C   18   -0.11497      0.99958     2.10404    0.01135     3.11497
      C   19   -0.19078      0.99960     2.18176    0.00943     3.19078
      H   20    0.10148      0.00000     0.39710    0.00142     0.39852
      H   21    0.10079      0.00000     0.39774    0.00146     0.39921
      H   22    0.07842      0.00000     0.41996    0.00162     0.42158
      H   23    0.09361      0.00000     0.40547    0.00092     0.40639
      H   24    0.17635      0.00000     0.32051    0.00314     0.32365
      H   25    0.10280      0.00000     0.39552    0.00168     0.39720
      H   26    0.08797      0.00000     0.40987    0.00216     0.41203
      H   27    0.09325      0.00000     0.40499    0.00176     0.40675
      H   28    0.10234      0.00000     0.39579    0.00188     0.39766
      H   29    0.10580      0.00000     0.39173    0.00246     0.39420
      H   30    0.10225      0.00000     0.39668    0.00108     0.39775
      H   31    0.10180      0.00000     0.39681    0.00139     0.39820
      H   32    0.09937      0.00000     0.39937    0.00126     0.40063
      H   33    0.09930      0.00000     0.39943    0.00127     0.40070
      H   34    0.09989      0.00000     0.39889    0.00122     0.40011
      H   35    0.10197      0.00000     0.39636    0.00167     0.39803
      H   36    0.10289      0.00000     0.39572    0.00140     0.39711
      H   37    0.10118      0.00000     0.39721    0.00161     0.39882
      H   38    0.10180      0.00000     0.39693    0.00127     0.39820
      H   39    0.10104      0.00000     0.39775    0.00122     0.39896
      H   40    0.10313      0.00000     0.39518    0.00170     0.39687
      H   41    0.09997      0.00000     0.39858    0.00146     0.40003
      H   42    0.10089      0.00000     0.39808    0.00103     0.39911
 =======================================================================
   * Total *    0.00000     18.99223    50.76000    0.24777    70.00000

 Normal termination of Gaussian 16 at Sun Dec 13 18:20:39 2020.
