 Gaussian 16, Revision A.03,

 -----------------------------------------------------------
 # opt freq B3LYP/6-31G(d) empiricaldispersion=gd3bj scf=xqc
 -----------------------------------------------------------

 -------------------------------
 CID_129996304_JID_1354_neutraal
 -------------------------------
 Symbolic Z-matrix:
 Charge =  0 Multiplicity = 1

 SCF Done:  E(RB3LYP) =  -496.819553353     A.U. after   14 cycles
 SCF Done:  E(RB3LYP) =  -496.824782830     A.U. after   12 cycles
 SCF Done:  E(RB3LYP) =  -496.825458130     A.U. after   12 cycles
 SCF Done:  E(RB3LYP) =  -496.825600745     A.U. after   11 cycles
 SCF Done:  E(RB3LYP) =  -496.825635745     A.U. after   10 cycles
 SCF Done:  E(RB3LYP) =  -496.825657454     A.U. after    9 cycles
 SCF Done:  E(RB3LYP) =  -496.825665738     A.U. after    9 cycles
 SCF Done:  E(RB3LYP) =  -496.825669420     A.U. after    9 cycles
 SCF Done:  E(RB3LYP) =  -496.825676177     A.U. after   10 cycles
 SCF Done:  E(RB3LYP) =  -496.825684057     A.U. after   10 cycles
 SCF Done:  E(RB3LYP) =  -496.825687960     A.U. after    9 cycles
 SCF Done:  E(RB3LYP) =  -496.825689278     A.U. after    8 cycles
 SCF Done:  E(RB3LYP) =  -496.825689585     A.U. after    7 cycles
 Optimization completed.
    -- Stationary point found.
 Normal termination of Gaussian 16 at Tue Dec  8 19:53:53 2020.

 --------------------------------------------------------------------
 #N Geom=AllCheck Guess=TCheck SCRF=Check GenChk RB3LYP/6-31G(d) Freq
 --------------------------------------------------------------------

 Structure from the checkpoint file:  "JID_1354.chk"
 -------------------------------
 CID_129996304_JID_1354_neutraal
 -------------------------------
 Charge =  0 Multiplicity = 1

 SCF Done:  E(RB3LYP) =  -496.825689585     A.U. after    1 cycles

  Exact polarizability: 107.430   4.255  84.820  -4.453   0.299  78.346
 Approx polarizability: 141.142  12.859 132.809  -7.824   3.963 125.460

                      1                      2                      3
                      A                      A                      A
 Frequencies --     50.1644                70.3182               118.1073
 Red. masses --      4.1728                 4.8299                 4.0560
 Frc consts  --      0.0062                 0.0141                 0.0333
 IR Inten    --      2.4393                 3.1947                 0.9288

                      4                      5                      6
                      A                      A                      A
 Frequencies --    204.4546               293.7708               354.4124
 Red. masses --      3.4031                 4.5183                 3.3161
 Frc consts  --      0.0838                 0.2297                 0.2454
 IR Inten    --      5.7330                 0.4876                 2.4885

                      7                      8                      9
                      A                      A                      A
 Frequencies --    390.0471               407.3710               488.6632
 Red. masses --      1.2915                 2.1438                 1.6670
 Frc consts  --      0.1158                 0.2096                 0.2345
 IR Inten    --     55.7834                46.8170                12.5333

                     10                     11                     12
                      A                      A                      A
 Frequencies --    494.2910               510.6333               558.0370
 Red. masses --      1.8140                 2.3124                 1.4074
 Frc consts  --      0.2611                 0.3552                 0.2582
 IR Inten    --     11.6779                30.5275                71.5957

                     13                     14                     15
                      A                      A                      A
 Frequencies --    585.9725               614.7830               695.7392
 Red. masses --      2.2955                 1.9881                 3.8010
 Frc consts  --      0.4644                 0.4427                 1.0840
 IR Inten    --     84.7820                22.0654                 2.5841

                     16                     17                     18
                      A                      A                      A
 Frequencies --    736.7351               770.6483               787.2105
 Red. masses --      1.5983                 8.1514                 4.6035
 Frc consts  --      0.5111                 2.8523                 1.6808
 IR Inten    --     39.5697                58.6659                 2.1929

                     19                     20                     21
                      A                      A                      A
 Frequencies --    812.4828               865.1147               880.7185
 Red. masses --      4.0383                 2.7848                 2.2440
 Frc consts  --      1.5707                 1.2280                 1.0255
 IR Inten    --      2.0288                 3.1621                 0.8471

                     22                     23                     24
                      A                      A                      A
 Frequencies --    912.9479               920.1005               933.5647
 Red. masses --      2.5118                 2.9016                 1.6285
 Frc consts  --      1.2335                 1.4473                 0.8362
 IR Inten    --      3.2944                 1.2810                 5.3188

                     25                     26                     27
                      A                      A                      A
 Frequencies --    954.5352               962.6562               968.0712
 Red. masses --      1.8202                 2.7221                 2.1830
 Frc consts  --      0.9771                 1.4862                 1.2054
 IR Inten    --      0.2568                 2.3108                 0.3999

                     28                     29                     30
                      A                      A                      A
 Frequencies --   1022.2435              1031.1341              1050.5997
 Red. masses --      1.9031                 1.7514                 1.6578
 Frc consts  --      1.1717                 1.0971                 1.0781
 IR Inten    --      5.0526                 3.0009                 5.2717

                     31                     32                     33
                      A                      A                      A
 Frequencies --   1128.9558              1136.0818              1147.6328
 Red. masses --      1.3092                 1.3966                 1.6422
 Frc consts  --      0.9831                 1.0621                 1.2743
 IR Inten    --     12.0800                19.4210                21.9909

                     34                     35                     36
                      A                      A                      A
 Frequencies --   1151.9112              1203.2582              1211.0594
 Red. masses --      1.2584                 1.9721                 1.3940
 Frc consts  --      0.9838                 1.6822                 1.2046
 IR Inten    --      2.4670                 3.0420                 0.3555

                     37                     38                     39
                      A                      A                      A
 Frequencies --   1220.8964              1288.0893              1300.8242
 Red. masses --      1.4927                 1.4065                 1.3413
 Frc consts  --      1.3109                 1.3749                 1.3372
 IR Inten    --      8.9372                 7.0184                 0.4897

                     40                     41                     42
                      A                      A                      A
 Frequencies --   1318.0056              1326.4701              1339.0578
 Red. masses --      1.5758                 1.4547                 1.4897
 Frc consts  --      1.6128                 1.5080                 1.5738
 IR Inten    --      0.3400                 4.7524                 0.5889

                     43                     44                     45
                      A                      A                      A
 Frequencies --   1376.6305              1381.8532              1439.6617
 Red. masses --      1.5702                 1.4020                 4.3773
 Frc consts  --      1.7532                 1.5773                 5.3454
 IR Inten    --     18.2495                11.7330               270.5014

                     46                     47                     48
                      A                      A                      A
 Frequencies --   1472.5850              1514.1073              1530.2899
 Red. masses --      1.3943                 1.0930                 1.1096
 Frc consts  --      1.7815                 1.4763                 1.5309
 IR Inten    --     19.9395                 4.6621                 1.3619

                     49                     50                     51
                      A                      A                      A
 Frequencies --   1656.0972              1662.5871              1818.6167
 Red. masses --      1.2198                 5.4449                 6.8052
 Frc consts  --      1.9712                 8.8676                13.2609
 IR Inten    --    163.6690                 1.2882               482.3742

                     52                     53                     54
                      A                      A                      A
 Frequencies --   3050.5026              3067.6518              3087.9662
 Red. masses --      1.0859                 1.0627                 1.0603
 Frc consts  --      5.9539                 5.8922                 5.9569
 IR Inten    --     33.6994                34.0289                22.5590

                     55                     56                     57
                      A                      A                      A
 Frequencies --   3124.8016              3127.1770              3133.2629
 Red. masses --      1.0881                 1.0925                 1.0995
 Frc consts  --      6.2598                 6.2948                 6.3599
 IR Inten    --     45.0114                22.7106                29.4847

                     58                     59                     60
                      A                      A                      A
 Frequencies --   3135.2951              3208.9932              3233.0502
 Red. masses --      1.1075                 1.0861                 1.1057
 Frc consts  --      6.4143                 6.5896                 6.8095
 IR Inten    --     25.3865                 8.0811                20.0879

                     61                     62                     63
                      A                      A                      A
 Frequencies --   3569.4022              3612.6539              3683.4885
 Red. masses --      1.0472                 1.0760                 1.1001
 Frc consts  --      7.8611                 8.2741                 8.7946
 IR Inten    --     16.1442                20.4044                25.9333

 - Thermochemistry -
 -------------------
 Temperature   298.150 Kelvin.  Pressure   1.00000 Atm.
 Atom     1 has atomic number  6 and mass  12.00000

 Molecular mass:   152.09496 amu.
 Principal axes and moments of inertia in atomic units:
                           1         2         3
     Eigenvalues --   651.470312680.530922784.23050
           X            0.99991  -0.01164   0.00596
           Y            0.01186   0.99920  -0.03823
           Z           -0.00551   0.03830   0.99925
 This molecule is an asymmetric top.
 Rotational symmetry number  1.
 Warning -- assumption of classical behavior for rotation
           may cause significant error
 Rotational temperatures (Kelvin)      0.13295     0.03231     0.03111
 Rotational constants (GHZ):           2.77026     0.67328     0.64820
 Zero-point vibrational energy     521000.3 (Joules/Mol)
                                  124.52205 (Kcal/Mol)
 Warning -- explicit consideration of  14 degrees of freedom as
           vibrations may cause significant error
 Vibrational temperatures:     72.18   101.17   169.93   294.16   422.67
          (Kelvin)            509.92   561.19   586.12   703.08   711.17
                              734.69   802.89   843.08   884.54  1001.01
                             1060.00  1108.79  1132.62  1168.98  1244.71
                             1267.16  1313.53  1323.82  1343.19  1373.36
                             1385.05  1392.84  1470.78  1483.57  1511.58
                             1624.32  1634.57  1651.19  1657.34  1731.22
                             1742.44  1756.60  1853.27  1871.60  1896.32
                             1908.49  1926.61  1980.66  1988.18  2071.35
                             2118.72  2178.46  2201.75  2382.75  2392.09
                             2616.58  4388.99  4413.67  4442.89  4495.89
                             4499.31  4508.07  4510.99  4617.03  4651.64
                             5135.57  5197.80  5299.72

 Zero-point correction=                           0.198439 (Hartree/Particle)
 Thermal correction to Energy=                    0.207920
 Thermal correction to Enthalpy=                  0.208865
 Thermal correction to Gibbs Free Energy=         0.163196
 Sum of electronic and zero-point Energies=           -496.627251
 Sum of electronic and thermal Energies=              -496.617769
 Sum of electronic and thermal Enthalpies=            -496.616825
 Sum of electronic and thermal Free Energies=         -496.662494

                     E (Thermal)             CV                S
                      KCal/Mol        Cal/Mol-Kelvin    Cal/Mol-Kelvin
 Total                  130.472             38.132             96.118
 Electronic               0.000              0.000              0.000
 Translational            0.889              2.981             40.968
 Rotational               0.889              2.981             29.965
 Vibrational            128.695             32.170             25.185
 Vibration     1          0.595              1.978              4.811
 Vibration     2          0.598              1.968              4.144
 Vibration     3          0.608              1.934              3.131
 Vibration     4          0.640              1.834              2.093
 Vibration     5          0.689              1.685              1.452
 Vibration     6          0.730              1.566              1.147
 Vibration     7          0.758              1.491              1.000
 Vibration     8          0.772              1.454              0.936
 Vibration     9          0.845              1.275              0.687
 Vibration    10          0.850              1.263              0.673
 Vibration    11          0.866              1.226              0.632
 Vibration    12          0.914              1.122              0.528
 Vibration    13          0.943              1.062              0.474
 Vibration    14          0.974              1.001              0.425

                           ! Non-Optimized Parameters !
 Normal termination of Gaussian 16 at Tue Dec  8 19:58:42 2020.

 ----------------------------------------------------------------------
 # B3LYP/6-311++G(d,p) empiricaldispersion=gd3bj scf=xqc pop=npa geom=c
 heck
 ----------------------------------------------------------------------

 ---------------------------------------
 CID_129996304_JID_1354_Energie_neutraal
 ---------------------------------------
 Structure from the checkpoint file:  "JID_1354.chk"
 Charge =  0 Multiplicity = 1

 SCF Done:  E(RB3LYP) =  -496.977205330     A.U. after   14 cycles
 Normal termination of Gaussian 16 at Tue Dec  8 20:01:08 2020.

 ----------------------------------------------------------------------
 # B3LYP/6-311++G(d,p) empiricaldispersion=gd3bj scf=xqc pop=npa geom=c
 heck
 ----------------------------------------------------------------------

 -------------------------------------
 CID_129996304_JID_1354_Energie_kation
 -------------------------------------
 Structure from the checkpoint file:  "JID_1354.chk"
 Charge =  1 Multiplicity = 2

 SCF Done:  E(UB3LYP) =  -496.661096676     A.U. after   25 cycles
 Normal termination of Gaussian 16 at Tue Dec  8 20:06:32 2020.
 Gaussian 16:  ES64L-G16RevA.03 25-Dec-2016

 ----------------------------------------------------------------------
 # B3LYP/6-311++G(d,p) empiricaldispersion=gd3bj scf=xqc pop=npa geom=c
 heck
 ----------------------------------------------------------------------

 ------------------------------------
 CID_129996304_JID_1354_Energie_anion
 ------------------------------------
 Structure from the checkpoint file:  "JID_1354.chk"
 Charge = -1 Multiplicity = 2

                         Standard orientation:
 ---------------------------------------------------------------------
 Center     Atomic      Atomic             Coordinates (Angstroms)
 Number     Number       Type             X           Y           Z
 ---------------------------------------------------------------------
      1          6           0        1.599988   -1.156844    0.757875
      2          6           0        1.854440    0.330970    1.092562
      3          6           0        0.458771    0.942294    0.747534
      4          6           0        0.015562    0.118847   -0.513206
      5          6           0        1.221750   -0.860229   -0.714150
      6          6           0        2.402854    0.004257   -1.129491
      7          6           0        2.780643    0.710587   -0.056447
      8          7           0       -1.215921   -0.643130   -0.345865
      9          6           0       -2.455198   -0.115331   -0.046110
     10          8           0       -3.372636   -0.800139    0.388266
     11          7           0       -2.579838    1.253827   -0.251424
     12          1           0        0.788719   -1.600405    1.347140
     13          1           0        2.496835   -1.776122    0.842753
     14          1           0        2.210433    0.561066    2.098822
     15          1           0        0.515630    2.016057    0.551559
     16          1           0       -0.255626    0.786180    1.560355
     17          1           0       -0.088785    0.760458   -1.395607
     18          1           0        0.985057   -1.705755   -1.363800
     19          1           0        2.771760    0.093216   -2.145718
     20          1           0        3.527426    1.496685   -0.015172
     21          1           0       -1.128941   -1.596760   -0.020332
     22          1           0       -1.998254    1.691392   -0.953896
     23          1           0       -3.545711    1.552913   -0.262610
 ---------------------------------------------------------------------

 SCF Done:  E(UB3LYP) =  -496.965672151     A.U. after   32 cycles

 The electronic state is 2-A.
 Alpha  occ. eigenvalues --  -18.97686 -14.22622 -14.22038 -10.19036 -10.11390
 Alpha  occ. eigenvalues --  -10.08645 -10.08160 -10.07377 -10.06921 -10.06825
 Alpha  occ. eigenvalues --  -10.06700  -0.94234  -0.83214  -0.79287  -0.77088
 Alpha  occ. eigenvalues --   -0.64200  -0.62456  -0.60334  -0.51598  -0.49045
 Alpha  occ. eigenvalues --   -0.46993  -0.44270  -0.42697  -0.42017  -0.38817
 Alpha  occ. eigenvalues --   -0.38025  -0.35812  -0.33095  -0.31857  -0.30348
 Alpha  occ. eigenvalues --   -0.29802  -0.26398  -0.26246  -0.25734  -0.25180
 Alpha  occ. eigenvalues --   -0.23605  -0.22172  -0.17697  -0.16415  -0.15567
 Alpha  occ. eigenvalues --   -0.14120   0.04380
 Alpha virt. eigenvalues --    0.06730   0.07581   0.07785   0.09084   0.09610
 Alpha virt. eigenvalues --    0.09871   0.10159   0.10479   0.11386   0.13077
 Alpha virt. eigenvalues --    0.13775   0.13873   0.14639   0.16255   0.16463

  Beta  occ. eigenvalues --  -18.97681 -14.22615 -14.21983 -10.19032 -10.11369
  Beta  occ. eigenvalues --  -10.08637 -10.08151 -10.07359 -10.06906 -10.06810
  Beta  occ. eigenvalues --  -10.06682  -0.94218  -0.83189  -0.79223  -0.77045
  Beta  occ. eigenvalues --   -0.64162  -0.62423  -0.60290  -0.51553  -0.48987
  Beta  occ. eigenvalues --   -0.46949  -0.44197  -0.42645  -0.41960  -0.38760
  Beta  occ. eigenvalues --   -0.37988  -0.35774  -0.33071  -0.31840  -0.30312
  Beta  occ. eigenvalues --   -0.29776  -0.26362  -0.26211  -0.25704  -0.25150
  Beta  occ. eigenvalues --   -0.23573  -0.22137  -0.17655  -0.16383  -0.15549
  Beta  occ. eigenvalues --   -0.14100
  Beta virt. eigenvalues --    0.06827   0.08003   0.08345   0.08534   0.09264
  Beta virt. eigenvalues --    0.10205   0.10455   0.10878   0.11007   0.11867
  Beta virt. eigenvalues --    0.13346   0.13956   0.14432   0.14886   0.16416

 Mulliken charges and spin densities:
               1          2
     1  C    0.668541  -1.420759
     2  C   -0.261841   0.661426
     3  C    0.065518  -0.630114
     4  C    0.485964  -0.819112
     5  C   -0.123863   0.431270
     6  C    0.447502  -0.992750
     7  C    0.696659  -1.033973
     8  N   -0.163373   0.051523
     9  C    0.342160  -0.163424
    10  O   -0.411115   0.005581
    11  N   -0.299841  -0.085443
    12  H    0.211473  -0.088792
    13  H   -0.237901   0.402347
    14  H   -0.281630   0.523107
    15  H   -0.296815   0.464104
    16  H    0.116247   0.069790
    17  H   -0.464155   0.722602
    18  H   -0.127381   0.376213
    19  H   -0.671662   0.825578
    20  H   -0.679007   0.844829
    21  H    0.266359   0.007973
    22  H   -0.200559   0.460777
    23  H   -0.081279   0.387248
 Sum of Mulliken charges =  -1.00000   1.00000

 Dipole moment (field-independent basis, Debye):
    X=             -0.3268    Y=             -3.1041    Z=              2.1720  Tot=              3.8026
 Quadrupole moment (field-independent basis, Debye-Ang):
   XX=           -134.3725   YY=           -104.2991   ZZ=           -101.5139
   XY=             -4.3399   XZ=              2.8059   YZ=              4.2008

 Summary of Natural Population Analysis:

                                       Natural Population
                Natural  -----------------------------------------------
    Atom  No    Charge         Core      Valence    Rydberg      Total
 -----------------------------------------------------------------------
      C    1   -0.18157      0.99963     2.17264    0.00930     3.18157
      C    2   -0.12860      0.99960     2.11621    0.01278     3.12860
      C    3   -0.19180      0.99961     2.18284    0.00935     3.19180
      C    4   -0.01007      0.99957     1.99631    0.01419     3.01007
      C    5   -0.12734      0.99959     2.11442    0.01333     3.12734
      C    6   -0.09567      0.99952     2.08432    0.01183     3.09567
      C    7   -0.08829      0.99952     2.07744    0.01133     3.08829
      N    8   -0.33475      0.99966     2.82421    0.01088     3.83475
      C    9    0.40483      0.99973     1.57271    0.02273     2.59517
      O   10   -0.34429      0.99988     3.33883    0.00558     4.34429
      N   11   -0.41747      0.99972     2.90909    0.00866     3.91747
      H   12    0.09547      0.00000     0.40323    0.00130     0.40453
      H   13    0.10457      0.00000     0.39424    0.00119     0.39543
      H   14    0.10425      0.00000     0.39442    0.00133     0.39575
      H   15    0.10628      0.00000     0.39205    0.00167     0.39372
      H   16    0.10432      0.00000     0.39430    0.00137     0.39568
      H   17    0.10069      0.00000     0.39599    0.00333     0.39931
      H   18    0.10668      0.00000     0.39197    0.00135     0.39332
      H   19    0.10516      0.00000     0.39309    0.00174     0.39484
      H   20    0.10446      0.00000     0.39374    0.00180     0.39554
      H   21    0.19344      0.00000     0.30410    0.00247     0.30656
      H   22    0.19553      0.00000     0.29917    0.00531     0.30447
      H   23    0.19413      0.00000     0.30409    0.00177     0.30587
 =======================================================================
   * Total *    0.00000     10.99601    29.84942    0.15457    41.00000

 Normal termination of Gaussian 16 at Tue Dec  8 20:14:38 2020.
