 Gaussian 16, Revision A.03,

 -----------------------------------------------------------
 # opt freq B3LYP/6-31G(d) empiricaldispersion=gd3bj scf=xqc
 -----------------------------------------------------------

 --------------------------------
 CID_103005567_JID_10229_neutraal
 --------------------------------
 Symbolic Z-matrix:
 Charge =  0 Multiplicity = 1

 SCF Done:  E(RB3LYP) =  -856.846256067     A.U. after   14 cycles
 SCF Done:  E(RB3LYP) =  -856.853670058     A.U. after   13 cycles
 SCF Done:  E(RB3LYP) =  -856.849343233     A.U. after   14 cycles
 SCF Done:  E(RB3LYP) =  -856.853503802     A.U. after   12 cycles
 SCF Done:  E(RB3LYP) =  -856.854755838     A.U. after    9 cycles
 SCF Done:  E(RB3LYP) =  -856.857250916     A.U. after   14 cycles
 SCF Done:  E(RB3LYP) =  -856.855288082     A.U. after   15 cycles
 SCF Done:  E(RB3LYP) =  -856.858680869     A.U. after   12 cycles
 SCF Done:  E(RB3LYP) =  -856.859593747     A.U. after   12 cycles
 SCF Done:  E(RB3LYP) =  -856.859793624     A.U. after   12 cycles
 SCF Done:  E(RB3LYP) =  -856.860037398     A.U. after   12 cycles
 SCF Done:  E(RB3LYP) =  -856.860077465     A.U. after   11 cycles
 SCF Done:  E(RB3LYP) =  -856.860082732     A.U. after    9 cycles
 SCF Done:  E(RB3LYP) =  -856.860086524     A.U. after    9 cycles
 SCF Done:  E(RB3LYP) =  -856.860086984     A.U. after    8 cycles
 SCF Done:  E(RB3LYP) =  -856.860087101     A.U. after    7 cycles
 Optimization completed.
    -- Stationary point found.
 Normal termination of Gaussian 16 at Mon Dec 14 17:52:26 2020.

 --------------------------------------------------------------------
 #N Geom=AllCheck Guess=TCheck SCRF=Check GenChk RB3LYP/6-31G(d) Freq
 --------------------------------------------------------------------

 Structure from the checkpoint file:  "JID_10229.chk"
 --------------------------------
 CID_103005567_JID_10229_neutraal
 --------------------------------
 Charge =  0 Multiplicity = 1

 SCF Done:  E(RB3LYP) =  -856.860087101     A.U. after    1 cycles

  Exact polarizability: 201.034  -2.654 192.288  40.755  -2.618 135.484
 Approx polarizability: 313.810  -1.162 322.200  90.834  -4.824 227.510

 ******    1 imaginary frequencies (negative Signs) ******

                      1                      2                      3
                      A                      A                      A
 Frequencies --    -22.3379                33.0997                67.2634
 Red. masses --      1.9459                 3.1692                 5.2243
 Frc consts  --      0.0006                 0.0020                 0.0139
 IR Inten    --      0.3221                 0.1007                 2.0972

                      4                      5                      6
                      A                      A                      A
 Frequencies --     76.3011                80.2967               102.8011
 Red. masses --      3.2868                 3.3116                 3.7345
 Frc consts  --      0.0113                 0.0126                 0.0233
 IR Inten    --      1.1940                 0.2556                 0.5308

                      7                      8                      9
                      A                      A                      A
 Frequencies --    113.0870               125.5407               153.2016
 Red. masses --      3.8176                 2.5012                 2.5977
 Frc consts  --      0.0288                 0.0232                 0.0359
 IR Inten    --      0.2130                 0.5151                 1.8445

                     10                     11                     12
                      A                      A                      A
 Frequencies --    205.4934               209.0004               219.0157
 Red. masses --      2.9617                 3.2989                 3.4832
 Frc consts  --      0.0737                 0.0849                 0.0984
 IR Inten    --      2.6219                 5.9500                 0.8986

                     13                     14                     15
                      A                      A                      A
 Frequencies --    247.7921               261.8715               277.6455
 Red. masses --      2.3608                 1.7368                 2.3776
 Frc consts  --      0.0854                 0.0702                 0.1080
 IR Inten    --      4.6517                 3.0917                 2.3985

                     16                     17                     18
                      A                      A                      A
 Frequencies --    310.8124               336.3405               375.7005
 Red. masses --      3.2851                 2.4632                 2.7838
 Frc consts  --      0.1870                 0.1642                 0.2315
 IR Inten    --      0.6653                 0.6356                 4.8303

                     19                     20                     21
                      A                      A                      A
 Frequencies --    421.5414               438.9278               451.0240
 Red. masses --      2.3768                 3.3465                 3.7520
 Frc consts  --      0.2488                 0.3799                 0.4497
 IR Inten    --      4.2022                 1.1508                 1.1429

                     22                     23                     24
                      A                      A                      A
 Frequencies --    489.9280               546.2507               557.3967
 Red. masses --      4.0116                 3.8774                 4.0377
 Frc consts  --      0.5673                 0.6817                 0.7391
 IR Inten    --      3.6820                 2.0924                 0.6085

                     25                     26                     27
                      A                      A                      A
 Frequencies --    581.6608               606.9983               621.3911
 Red. masses --      4.7668                 4.0155                 4.5675
 Frc consts  --      0.9502                 0.8717                 1.0391
 IR Inten    --     13.9318                 4.3411                 2.8419

                     28                     29                     30
                      A                      A                      A
 Frequencies --    642.9867               664.5664               683.6462
 Red. masses --      4.0304                 5.6754                 3.1081
 Frc consts  --      0.9817                 1.4768                 0.8559
 IR Inten    --      6.9352                 2.2063                16.0402

                     31                     32                     33
                      A                      A                      A
 Frequencies --    702.2242               745.6713               779.3810
 Red. masses --      3.1610                 3.3708                 4.4023
 Frc consts  --      0.9184                 1.1043                 1.5755
 IR Inten    --      2.4589                 6.0039                 5.8625

                     34                     35                     36
                      A                      A                      A
 Frequencies --    787.7749               790.2420               802.1432
 Red. masses --      1.5209                 1.7210                 2.5687
 Frc consts  --      0.5561                 0.6332                 0.9738
 IR Inten    --     57.8445                13.0659                 9.7459

                     37                     38                     39
                      A                      A                      A
 Frequencies --    813.9699               824.5371               840.8305
 Red. masses --      2.2552                 1.6859                 2.4038
 Frc consts  --      0.8803                 0.6753                 1.0013
 IR Inten    --     19.3847                17.5741               119.5090

                     40                     41                     42
                      A                      A                      A
 Frequencies --    875.7321               919.6899               938.3300
 Red. masses --      1.2948                 2.4246                 2.7468
 Frc consts  --      0.5851                 1.2083                 1.4249
 IR Inten    --      3.5309                 2.1237                 1.3300

                     43                     44                     45
                      A                      A                      A
 Frequencies --    942.6346               944.0851               955.4732
 Red. masses --      1.3867                 2.0396                 4.5394
 Frc consts  --      0.7260                 1.0711                 2.4417
 IR Inten    --      0.3868                 5.5206                12.3372

                     46                     47                     48
                      A                      A                      A
 Frequencies --    971.4279              1004.7580              1026.5623
 Red. masses --      1.2982                 1.4467                 2.4786
 Frc consts  --      0.7218                 0.8605                 1.5390
 IR Inten    --      1.1132                12.0516                 3.4834

                     49                     50                     51
                      A                      A                      A
 Frequencies --   1039.8898              1053.5737              1071.0403
 Red. masses --      1.9431                 2.7767                 2.3325
 Frc consts  --      1.2380                 1.8160                 1.5764
 IR Inten    --      8.0046                 6.7636                 0.7777

                     52                     53                     54
                      A                      A                      A
 Frequencies --   1080.0635              1126.2608              1136.7160
 Red. masses --      1.5154                 2.0268                 2.2311
 Frc consts  --      1.0416                 1.5148                 1.6985
 IR Inten    --      2.3893                 7.8968                13.8406

                     55                     56                     57
                      A                      A                      A
 Frequencies --   1157.1214              1158.7607              1171.6733
 Red. masses --      1.4509                 1.4220                 1.3936
 Frc consts  --      1.1446                 1.1250                 1.1272
 IR Inten    --      5.0473                 2.8326                 8.9386

                     58                     59                     60
                      A                      A                      A
 Frequencies --   1183.8231              1194.3268              1218.1983
 Red. masses --      1.9344                 2.3016                 1.6926
 Frc consts  --      1.5972                 1.9343                 1.4799
 IR Inten    --     24.9347                 8.2798                25.5623

                     61                     62                     63
                      A                      A                      A
 Frequencies --   1235.9574              1242.9251              1256.0127
 Red. masses --      1.8962                 1.6266                 1.4008
 Frc consts  --      1.7066                 1.4806                 1.3020
 IR Inten    --      1.7761                13.0300                 1.4889

                     64                     65                     66
                      A                      A                      A
 Frequencies --   1292.6573              1318.6268              1326.4144
 Red. masses --      1.6816                 4.7188                 1.4969
 Frc consts  --      1.6555                 4.8342                 1.5516
 IR Inten    --      1.2243                11.5637                 5.1574

                     67                     68                     69
                      A                      A                      A
 Frequencies --   1354.8330              1373.2792              1375.5187
 Red. masses --      2.2835                 2.6418                 2.3948
 Frc consts  --      2.4696                 2.9354                 2.6696
 IR Inten    --      7.9122                 0.4937                 7.9388

                     70                     71                     72
                      A                      A                      A
 Frequencies --   1380.6234              1387.9915              1398.0738
 Red. masses --      1.3758                 2.2251                 2.2688
 Frc consts  --      1.5451                 2.5256                 2.6128
 IR Inten    --     37.2161                15.5106                15.5655

                     73                     74                     75
                      A                      A                      A
 Frequencies --   1406.7839              1440.5247              1447.1755
 Red. masses --      1.5112                 2.4736                 3.0307
 Frc consts  --      1.7621                 3.0243                 3.7397
 IR Inten    --     47.0353                 8.2936                31.4390

                     76                     77                     78
                      A                      A                      A
 Frequencies --   1475.3110              1477.6734              1480.0116
 Red. masses --      1.7722                 1.6025                 1.3701
 Frc consts  --      2.2726                 2.0616                 1.7683
 IR Inten    --     51.1115                35.2046                 4.8126

                     79                     80                     81
                      A                      A                      A
 Frequencies --   1505.5344              1506.3423              1509.7195
 Red. masses --      1.0913                 1.2418                 1.1216
 Frc consts  --      1.4574                 1.6602                 1.5062
 IR Inten    --      6.0622                 9.0445                 9.7100

                     82                     83                     84
                      A                      A                      A
 Frequencies --   1516.9353              1521.3503              1527.7705
 Red. masses --      1.2607                 1.4315                 1.1064
 Frc consts  --      1.7092                 1.9521                 1.5215
 IR Inten    --      5.3774                17.5421                 7.8323

                     85                     86                     87
                      A                      A                      A
 Frequencies --   1533.5147              1536.9396              1543.6748
 Red. masses --      1.1744                 2.6156                 1.5736
 Frc consts  --      1.6272                 3.6403                 2.2093
 IR Inten    --      3.9791                10.1031                13.4295

                     88                     89                     90
                      A                      A                      A
 Frequencies --   1557.8395              1586.8852              1587.9624
 Red. masses --      1.0730                 5.5644                 5.0127
 Frc consts  --      1.5342                 8.2558                 7.4474
 IR Inten    --      8.4183                21.1754                16.3064

                     91                     92                     93
                      A                      A                      A
 Frequencies --   1623.6543              1654.0675              2972.0722
 Red. masses --      5.8974                 6.4571                 1.0560
 Frc consts  --      9.1600                10.4087                 5.4957
 IR Inten    --      9.7547                19.3339                69.9015

                     94                     95                     96
                      A                      A                      A
 Frequencies --   3040.4096              3059.9624              3069.9438
 Red. masses --      1.0595                 1.0782                 1.0486
 Frc consts  --      5.7704                 5.9480                 5.8227
 IR Inten    --     51.0119                68.8961                29.9986

                     97                     98                     99
                      A                      A                      A
 Frequencies --   3073.7914              3080.2507              3088.0128
 Red. masses --      1.0631                 1.1053                 1.0615
 Frc consts  --      5.9180                 6.1787                 5.9641
 IR Inten    --     26.5580                22.9150                33.1245

                    100                    101                    102
                      A                      A                      A
 Frequencies --   3113.0018              3123.2019              3146.9922
 Red. masses --      1.0999                 1.0992                 1.1065
 Frc consts  --      6.2802                 6.3175                 6.4565
 IR Inten    --     31.5977                15.3321                 8.5932

                    103                    104                    105
                      A                      A                      A
 Frequencies --   3166.2138              3178.0117              3197.9213
 Red. masses --      1.0876                 1.0886                 1.0890
 Frc consts  --      6.4240                 6.4781                 6.5616
 IR Inten    --      5.5084                20.4297                13.2115

                    106                    107                    108
                      A                      A                      A
 Frequencies --   3207.0274              3215.8935              3254.2332
 Red. masses --      1.1049                 1.0960                 1.0916
 Frc consts  --      6.6954                 6.6785                 6.8113
 IR Inten    --      1.3749                24.5127                 5.9098

                    109                    110                    111
                      A                      A                      A
 Frequencies --   3269.5433              3271.4660              3468.6831
 Red. masses --      1.0963                 1.1020                 1.0746
 Frc consts  --      6.9048                 6.9488                 7.6180
 IR Inten    --      0.5656                 5.0173                28.3913

 - Thermochemistry -
 -------------------
 Temperature   298.150 Kelvin.  Pressure   1.00000 Atm.
 Atom     1 has atomic number  6 and mass  12.00000

 Molecular mass:   269.16405 amu.
 Principal axes and moments of inertia in atomic units:
                           1         2         3
     Eigenvalues --  3795.560404947.060966788.83694
           X            0.99825   0.05566   0.01981
           Y           -0.05576   0.99843   0.00435
           Z           -0.01954  -0.00545   0.99979
 This molecule is an asymmetric top.
 Rotational symmetry number  1.
 Warning -- assumption of classical behavior for rotation
           may cause significant error
 Rotational temperatures (Kelvin)      0.02282     0.01751     0.01276
 Rotational constants (GHZ):           0.47549     0.36481     0.26584
    1 imaginary frequencies ignored.
 Zero-point vibrational energy     870508.8 (Joules/Mol)
                                  208.05660 (Kcal/Mol)
 Warning -- explicit consideration of  25 degrees of freedom as
           vibrations may cause significant error
 Vibrational temperatures:     47.62    96.78   109.78   115.53   147.91
          (Kelvin)            162.71   180.63   220.42   295.66   300.71
                              315.11   356.52   376.77   399.47   447.19
                              483.92   540.55   606.50   631.52   648.92
                              704.90   785.93   801.97   836.88   873.34
                              894.04   925.11   956.16   983.61  1010.34
                             1072.85  1121.36  1133.43  1136.98  1154.11
                             1171.12  1186.33  1209.77  1259.98  1323.23
                             1350.05  1356.24  1358.33  1374.71  1397.67
                             1445.62  1476.99  1496.17  1515.86  1540.99
                             1553.97  1620.44  1635.48  1664.84  1667.20
                             1685.78  1703.26  1718.37  1752.72  1778.27
                             1788.29  1807.12  1859.85  1897.21  1908.41
                             1949.30  1975.84  1979.06  1986.41  1997.01
                             2011.52  2024.05  2072.59  2082.16  2122.64
                             2126.04  2129.41  2166.13  2167.29  2172.15
                             2182.53  2188.88  2198.12  2206.39  2211.31
                             2221.00  2241.38  2283.17  2284.72  2336.08
                             2379.83  4276.15  4374.47  4402.60  4416.96
                             4422.50  4431.79  4442.96  4478.92  4493.59
                             4527.82  4555.48  4572.45  4601.10  4614.20
                             4626.95  4682.12  4704.14  4706.91  4990.66

 Zero-point correction=                           0.331559 (Hartree/Particle)
 Thermal correction to Energy=                    0.348463
 Thermal correction to Enthalpy=                  0.349407
 Thermal correction to Gibbs Free Energy=         0.286956
 Sum of electronic and zero-point Energies=           -856.528528
 Sum of electronic and thermal Energies=              -856.511624
 Sum of electronic and thermal Enthalpies=            -856.510680
 Sum of electronic and thermal Free Energies=         -856.573131

                     E (Thermal)             CV                S
                      KCal/Mol        Cal/Mol-Kelvin    Cal/Mol-Kelvin
 Total                  218.664             66.621            131.439
 Electronic               0.000              0.000              0.000
 Translational            0.889              2.981             42.669
 Rotational               0.889              2.981             33.210
 Vibrational            216.886             60.660             55.559
 Vibration     1          0.594              1.983              5.634
 Vibration     2          0.598              1.970              4.232
 Vibration     3          0.599              1.965              3.984
 Vibration     4          0.600              1.963              3.884
 Vibration     5          0.605              1.947              3.401
 Vibration     6          0.607              1.939              3.215
 Vibration     7          0.610              1.928              3.013
 Vibration     8          0.619              1.899              2.632
 Vibration     9          0.640              1.832              2.083
 Vibration    10          0.642              1.827              2.052
 Vibration    11          0.647              1.812              1.967
 Vibration    12          0.661              1.766              1.746
 Vibration    13          0.669              1.743              1.649
 Vibration    14          0.679              1.715              1.548
 Vibration    15          0.700              1.653              1.358
 Vibration    16          0.717              1.603              1.229
 Vibration    17          0.747              1.522              1.056
 Vibration    18          0.784              1.423              0.887
 Vibration    19          0.799              1.385              0.830
 Vibration    20          0.810              1.359              0.793
 Vibration    21          0.846              1.272              0.684
 Vibration    22          0.901              1.148              0.552
 Vibration    23          0.913              1.124              0.529
 Vibration    24          0.938              1.071              0.482
 Vibration    25          0.966              1.017              0.438

                           ! Non-Optimized Parameters !
 Normal termination of Gaussian 16 at Mon Dec 14 18:21:16 2020.

 ----------------------------------------------------------------------
 # B3LYP/6-311++G(d,p) empiricaldispersion=gd3bj scf=xqc pop=npa geom=c
 heck
 ----------------------------------------------------------------------

 ----------------------------------------
 CID_103005567_JID_10229_Energie_neutraal
 ----------------------------------------
 Structure from the checkpoint file:  "JID_10229.chk"
 Charge =  0 Multiplicity = 1

 SCF Done:  E(RB3LYP) =  -857.083121183     A.U. after   16 cycles
 Normal termination of Gaussian 16 at Mon Dec 14 18:33:49 2020.

 ----------------------------------------------------------------------
 # B3LYP/6-311++G(d,p) empiricaldispersion=gd3bj scf=xqc pop=npa geom=c
 heck
 ----------------------------------------------------------------------

 --------------------------------------
 CID_103005567_JID_10229_Energie_kation
 --------------------------------------
 Structure from the checkpoint file:  "JID_10229.chk"
 Charge =  1 Multiplicity = 2

 SCF Done:  E(UB3LYP) =  -856.814842656     A.U. after   25 cycles
 Normal termination of Gaussian 16 at Mon Dec 14 19:02:00 2020.
 Gaussian 16:  ES64L-G16RevA.03 25-Dec-2016

 ----------------------------------------------------------------------
 # B3LYP/6-311++G(d,p) empiricaldispersion=gd3bj scf=xqc pop=npa geom=c
 heck
 ----------------------------------------------------------------------

 -------------------------------------
 CID_103005567_JID_10229_Energie_anion
 -------------------------------------
 Structure from the checkpoint file:  "JID_10229.chk"
 Charge = -1 Multiplicity = 2

                         Standard orientation:
 ---------------------------------------------------------------------
 Center     Atomic      Atomic             Coordinates (Angstroms)
 Number     Number       Type             X           Y           Z
 ---------------------------------------------------------------------
      1          6           0        0.779379    3.324514    0.806139
      2          7           0       -0.073498    3.157181   -0.361875
      3          6           0        0.552080    2.421037   -1.468698
      4          6           0        0.715693    0.938027   -1.252752
      5          6           0       -0.203798   -0.011606   -1.625223
      6          7           0        0.166411   -1.273408   -1.179839
      7          6           0        1.348003   -1.142339   -0.477686
      8          6           0        1.737209    0.230373   -0.520228
      9          6           0        2.930937    0.555112    0.133969
     10          6           0        3.613831   -0.468631    0.787606
     11          6           0        3.097735   -1.776497    0.782059
     12          7           0        1.967129   -2.135152    0.159425
     13          6           0       -0.710149   -2.426524   -1.101838
     14          6           0       -1.570406   -2.417607    0.188650
     15          6           0       -2.262286   -1.102731    0.367939
     16          6           0       -3.364976   -0.578845   -0.295155
     17          6           0       -3.439515    0.764148    0.121636
     18          7           0       -2.466091    1.065798    0.983483
     19          7           0       -1.755229   -0.080230    1.117307
     20          6           0       -0.677333   -0.110787    2.090164
     21          1           0        1.655984    3.925967    0.532955
     22          1           0        1.150255    2.387592    1.258154
     23          1           0        0.226368    3.873644    1.575307
     24          1           0       -0.924102    2.668832   -0.078870
     25          1           0       -0.065926    2.577206   -2.361389
     26          1           0        1.521259    2.893659   -1.673086
     27          1           0       -1.134715    0.115169   -2.159564
     28          1           0        3.307330    1.573892    0.146193
     29          1           0        4.540595   -0.265238    1.314611
     30          1           0        3.622244   -2.570373    1.309361
     31          1           0       -1.357179   -2.415322   -1.983472
     32          1           0       -0.092518   -3.327063   -1.131641
     33          1           0       -2.308140   -3.224818    0.119387
     34          1           0       -0.925140   -2.646583    1.041167
     35          1           0       -4.005209   -1.099695   -0.993257
     36          1           0       -4.152861    1.525643   -0.164677
     37          1           0       -0.231133    0.881967    2.124034
     38          1           0       -1.060427   -0.369364    3.083472
     39          1           0        0.083846   -0.830291    1.792318
 ---------------------------------------------------------------------

 SCF Done:  E(UB3LYP) =  -857.076486216     A.U. after   32 cycles

 The electronic state is 2-A.
 Alpha  occ. eigenvalues --  -14.29139 -14.23936 -14.22989 -14.18610 -14.17724
 Alpha  occ. eigenvalues --  -10.11415 -10.11138 -10.10916 -10.10621 -10.09271
 Alpha  occ. eigenvalues --  -10.08846 -10.08765 -10.08401 -10.07417 -10.07388
 Alpha  occ. eigenvalues --  -10.06444 -10.05319 -10.05238 -10.05077 -10.04530
 Alpha  occ. eigenvalues --   -0.95143  -0.88185  -0.80497  -0.79348  -0.74707
 Alpha  occ. eigenvalues --   -0.72250  -0.69804  -0.66424  -0.63371  -0.61979
 Alpha  occ. eigenvalues --   -0.60374  -0.58999  -0.55367  -0.52443  -0.51426
 Alpha  occ. eigenvalues --   -0.50407  -0.48113  -0.45929  -0.44522  -0.41847
 Alpha  occ. eigenvalues --   -0.40140  -0.38890  -0.38738  -0.37242  -0.36460
 Alpha  occ. eigenvalues --   -0.35250  -0.34974  -0.34210  -0.33510  -0.33024
 Alpha  occ. eigenvalues --   -0.31983  -0.31829  -0.30992  -0.30274  -0.29532
 Alpha  occ. eigenvalues --   -0.28262  -0.28069  -0.27984  -0.27681  -0.26773
 Alpha  occ. eigenvalues --   -0.26293  -0.25580  -0.23849  -0.22889  -0.19906
 Alpha  occ. eigenvalues --   -0.18481  -0.15707  -0.14724  -0.14670  -0.12438
 Alpha  occ. eigenvalues --   -0.11792  -0.09437   0.04533
 Alpha virt. eigenvalues --    0.06394   0.07349   0.07864   0.08093   0.08775
 Alpha virt. eigenvalues --    0.09170   0.09470   0.09710   0.10616   0.10747
 Alpha virt. eigenvalues --    0.11172   0.11645   0.12330   0.12538   0.12902

  Beta  occ. eigenvalues --  -14.29136 -14.23942 -14.22989 -14.18610 -14.17472
  Beta  occ. eigenvalues --  -10.11416 -10.11136 -10.10895 -10.10646 -10.09267
  Beta  occ. eigenvalues --  -10.08835 -10.08761 -10.08400 -10.07282 -10.07206
  Beta  occ. eigenvalues --  -10.06428 -10.05364 -10.05046 -10.04968 -10.04528
  Beta  occ. eigenvalues --   -0.95138  -0.88081  -0.80158  -0.79342  -0.74697
  Beta  occ. eigenvalues --   -0.72174  -0.69659  -0.66206  -0.63310  -0.61783
  Beta  occ. eigenvalues --   -0.60362  -0.58900  -0.55312  -0.52370  -0.51084
  Beta  occ. eigenvalues --   -0.50339  -0.48045  -0.45906  -0.44365  -0.41795
  Beta  occ. eigenvalues --   -0.40052  -0.38837  -0.38679  -0.37106  -0.36384
  Beta  occ. eigenvalues --   -0.35208  -0.34913  -0.34175  -0.33467  -0.32984
  Beta  occ. eigenvalues --   -0.31936  -0.31758  -0.30827  -0.30219  -0.29509
  Beta  occ. eigenvalues --   -0.28153  -0.27976  -0.27784  -0.27592  -0.26689
  Beta  occ. eigenvalues --   -0.26237  -0.25530  -0.23768  -0.22248  -0.19897
  Beta  occ. eigenvalues --   -0.17508  -0.15684  -0.14704  -0.14417  -0.12319
  Beta  occ. eigenvalues --   -0.11251  -0.08781
  Beta virt. eigenvalues --    0.07020   0.07591   0.07972   0.08172   0.08600
  Beta virt. eigenvalues --    0.08821   0.09642   0.09747   0.10060   0.10686
  Beta virt. eigenvalues --    0.11021   0.11228   0.11755   0.12402   0.12683

 Mulliken charges and spin densities:
               1          2
     1  C   -0.467431  -0.006785
     2  N   -0.163706   0.009813
     3  C   -0.534986  -0.280602
     4  C    0.268818   0.183723
     5  C    0.155589  -0.245493
     6  N    0.147557   0.085317
     7  C   -0.796473  -0.124103
     8  C    0.234872   0.104531
     9  C    0.030149   0.263840
    10  C   -0.551822  -0.108224
    11  C    0.000493   0.132653
    12  N   -0.161222   0.134483
    13  C    0.619633  -0.942016
    14  C   -0.269541  -0.353856
    15  C   -0.069551  -0.131242
    16  C    0.182610  -0.025487
    17  C    0.211132  -0.395671
    18  N   -0.387770  -0.023869
    19  N    0.464993   0.021313
    20  C   -0.292514  -0.022865
    21  H    0.131164   0.008350
    22  H    0.113939   0.003792
    23  H    0.130997   0.004867
    24  H    0.305881  -0.010808
    25  H    0.056441   0.127771
    26  H    0.096971   0.045713
    27  H   -0.001733   0.140510
    28  H    0.100637   0.015070
    29  H    0.115064   0.017085
    30  H    0.124398   0.016064
    31  H   -0.404605   0.605300
    32  H    0.067755   0.113865
    33  H   -0.386544   0.578378
    34  H    0.172777  -0.008380
    35  H   -0.729734   0.906729
    36  H    0.028495   0.123230
    37  H    0.176904  -0.028304
    38  H    0.096309   0.091476
    39  H    0.184056  -0.026168
 Sum of Mulliken charges =  -1.00000   1.00000

 Dipole moment (field-independent basis, Debye):
    X=              2.3883    Y=              2.9170    Z=              4.4202  Tot=              5.8096
 Quadrupole moment (field-independent basis, Debye-Ang):
   XX=           -174.0334   YY=           -167.8599   ZZ=           -148.4760
   XY=             -4.3164   XZ=             -5.9501   YZ=             -6.2584

 Summary of Natural Population Analysis:

                                       Natural Population
                Natural  -----------------------------------------------
    Atom  No    Charge         Core      Valence    Rydberg      Total
 -----------------------------------------------------------------------
      C    1   -0.17963      0.99966     2.17314    0.00682     3.17963
      N    2   -0.34653      0.99976     2.83441    0.01236     3.84653
      C    3   -0.09390      0.99959     2.08118    0.01313     3.09390
      C    4   -0.07493      0.99947     2.06546    0.01000     3.07493
      C    5    0.04621      0.99949     1.94178    0.01251     2.95379
      N    6   -0.22351      0.99961     2.71261    0.01128     3.72351
      C    7    0.18687      0.99948     1.79808    0.01557     2.81313
      C    8   -0.05591      0.99945     2.04638    0.01008     3.05591
      C    9   -0.03843      0.99954     2.03099    0.00790     3.03843
      C   10   -0.15445      0.99958     2.14555    0.00932     3.15445
      C   11    0.03561      0.99961     1.94948    0.01530     2.96439
      N   12   -0.22756      0.99967     2.71758    0.01031     3.72756
      C   13   -0.07560      0.99961     2.06350    0.01249     3.07560
      C   14   -0.21427      0.99958     2.20587    0.00882     3.21427
      C   15    0.09014      0.99952     1.89690    0.01344     2.90986
      C   16   -0.16297      0.99949     2.15384    0.00964     3.16297
      C   17   -0.01373      0.99963     1.99956    0.01455     3.01373
      N   18   -0.16664      0.99973     2.65524    0.01167     3.66664
      N   19   -0.10714      0.99961     2.59547    0.01206     3.60714
      C   20   -0.17571      0.99963     2.16935    0.00672     3.17571
      H   21    0.08604      0.00000     0.41308    0.00088     0.41396
      H   22    0.08195      0.00000     0.41645    0.00160     0.41805
      H   23    0.09075      0.00000     0.40851    0.00074     0.40925
      H   24    0.18276      0.00000     0.31351    0.00373     0.31724
      H   25    0.09644      0.00000     0.40230    0.00127     0.40356
      H   26    0.09114      0.00000     0.40782    0.00104     0.40886
      H   27    0.10092      0.00000     0.39742    0.00166     0.39908
      H   28    0.09296      0.00000     0.40555    0.00149     0.40704
      H   29    0.09563      0.00000     0.40328    0.00109     0.40437
      H   30    0.08167      0.00000     0.41736    0.00097     0.41833
      H   31    0.10190      0.00000     0.39563    0.00247     0.39810
      H   32    0.10868      0.00000     0.38968    0.00163     0.39132
      H   33    0.11123      0.00000     0.38738    0.00139     0.38877
      H   34    0.10859      0.00000     0.38998    0.00143     0.39141
      H   35    0.11185      0.00000     0.38644    0.00171     0.38815
      H   36    0.09649      0.00000     0.40264    0.00087     0.40351
      H   37    0.10968      0.00000     0.38929    0.00103     0.39032
      H   38    0.09254      0.00000     0.40660    0.00086     0.40746
      H   39    0.11085      0.00000     0.38792    0.00123     0.38915
 =======================================================================
   * Total *    0.00000     19.99172    51.75722    0.25106    72.00000

 Normal termination of Gaussian 16 at Mon Dec 14 19:37:48 2020.
