 Gaussian 16, Revision A.03,

 ----------------------------------------------------------------------
 # opt=(cartesian,calcfc) freq B3LYP/6-31G(d) empiricaldispersion=gd3bj
  scf=xqc
 ----------------------------------------------------------------------

 -------------------------------
 CID_80765217_JID_10578_neutraal
 -------------------------------
 Symbolic Z-matrix:
 Charge =  0 Multiplicity = 1

 SCF Done:  E(RB3LYP) =  -940.942880168     A.U. after   15 cycles
 SCF Done:  E(RB3LYP) =  -940.942856691     A.U. after   12 cycles
 SCF Done:  E(RB3LYP) =  -940.942898855     A.U. after   11 cycles
 SCF Done:  E(RB3LYP) =  -940.942908220     A.U. after   10 cycles
 SCF Done:  E(RB3LYP) =  -940.942901247     A.U. after   11 cycles
 SCF Done:  E(RB3LYP) =  -940.942910322     A.U. after   10 cycles
 SCF Done:  E(RB3LYP) =  -940.942914015     A.U. after   10 cycles
 SCF Done:  E(RB3LYP) =  -940.942915395     A.U. after    9 cycles
 SCF Done:  E(RB3LYP) =  -940.942916260     A.U. after   10 cycles
 SCF Done:  E(RB3LYP) =  -940.942916602     A.U. after    8 cycles
 SCF Done:  E(RB3LYP) =  -940.942916717     A.U. after    7 cycles
 SCF Done:  E(RB3LYP) =  -940.942916689     A.U. after    8 cycles
 SCF Done:  E(RB3LYP) =  -940.942916761     A.U. after    7 cycles
 Optimization completed.
    -- Stationary point found.
 Normal termination of Gaussian 16 at Mon Jan  4 11:23:58 2021.

 --------------------------------------------------------------------
 #N Geom=AllCheck Guess=TCheck SCRF=Check GenChk RB3LYP/6-31G(d) Freq
 --------------------------------------------------------------------

 Structure from the checkpoint file:  "JID_10578.chk"
 -------------------------------
 CID_80765217_JID_10578_neutraal
 -------------------------------
 Charge =  0 Multiplicity = 1

 SCF Done:  E(RB3LYP) =  -940.942916761     A.U. after    1 cycles

  Exact polarizability: 236.589   7.738 180.399 -10.675  -4.376  95.227
 Approx polarizability: 318.969  12.403 288.170 -19.270 -12.975 148.424

                      1                      2                      3
                      A                      A                      A
 Frequencies --     28.8371                32.0451                45.0114
 Red. masses --      6.2034                 6.4605                 4.4724
 Frc consts  --      0.0030                 0.0039                 0.0053
 IR Inten    --      4.6722                 0.5001                 4.0652

                      4                      5                      6
                      A                      A                      A
 Frequencies --     59.5890                89.6073               100.7746
 Red. masses --      4.6222                 4.7236                 6.0206
 Frc consts  --      0.0097                 0.0223                 0.0360
 IR Inten    --      1.3589                 1.1398                 3.3463

                      7                      8                      9
                      A                      A                      A
 Frequencies --    116.5093               148.3436               180.0518
 Red. masses --      3.5604                 3.6909                 6.5171
 Frc consts  --      0.0285                 0.0479                 0.1245
 IR Inten    --      1.2333                 1.0201                 0.7396

                     10                     11                     12
                      A                      A                      A
 Frequencies --    192.4354               207.4613               238.7036
 Red. masses --      4.3080                 5.2846                 1.5371
 Frc consts  --      0.0940                 0.1340                 0.0516
 IR Inten    --      3.0962                 3.0837               174.6440

                     13                     14                     15
                      A                      A                      A
 Frequencies --    249.3655               270.2960               307.8550
 Red. masses --      2.7360                 2.8940                 4.1891
 Frc consts  --      0.1002                 0.1246                 0.2339
 IR Inten    --     96.6392                 8.3599                 9.4706

                     16                     17                     18
                      A                      A                      A
 Frequencies --    324.8108               337.6623               401.9606
 Red. masses --      3.7618                 3.0201                 6.8865
 Frc consts  --      0.2338                 0.2029                 0.6556
 IR Inten    --     17.2198                 6.9743                 0.2520

                     19                     20                     21
                      A                      A                      A
 Frequencies --    421.7457               427.2611               490.6324
 Red. masses --      2.0983                 2.0945                 3.4498
 Frc consts  --      0.2199                 0.2253                 0.4893
 IR Inten    --     91.4717                77.9000                 3.8418

                     22                     23                     24
                      A                      A                      A
 Frequencies --    523.1648               566.6568               568.8991
 Red. masses --      2.0655                 1.7523                 1.1856
 Frc consts  --      0.3331                 0.3315                 0.2261
 IR Inten    --     23.9778                 5.7535                 3.0731

                     25                     26                     27
                      A                      A                      A
 Frequencies --    610.9916               613.8159               631.8469
 Red. masses --      6.3670                 3.6368                 1.8335
 Frc consts  --      1.4004                 0.8073                 0.4313
 IR Inten    --      8.2507                 5.8552                30.9602

                     28                     29                     30
                      A                      A                      A
 Frequencies --    635.3412               661.1109               715.9208
 Red. masses --      3.3587                 5.5697                 4.2023
 Frc consts  --      0.7988                 1.4343                 1.2690
 IR Inten    --      2.8084                 1.7831                 8.9266

                     31                     32                     33
                      A                      A                      A
 Frequencies --    728.7367               736.3629               769.4913
 Red. masses --      9.1010                10.5800                 5.2530
 Frc consts  --      2.8476                 3.3800                 1.8326
 IR Inten    --      1.0318                 2.2696                17.7931

                     34                     35                     36
                      A                      A                      A
 Frequencies --    773.6146               821.2251               832.8363
 Red. masses --      1.2290                11.6164                 2.5331
 Frc consts  --      0.4334                 4.6158                 1.0352
 IR Inten    --     47.6283                40.7812                 9.9789

                     37                     38                     39
                      A                      A                      A
 Frequencies --    865.2100               886.4236               893.0018
 Red. masses --      1.2587                 4.4981                 2.0386
 Frc consts  --      0.5551                 2.0824                 0.9578
 IR Inten    --      1.1956                13.9286                 0.6252

                     40                     41                     42
                      A                      A                      A
 Frequencies --    897.8328               923.8481               932.8804
 Red. masses --      1.3293                 2.0307                 2.5474
 Frc consts  --      0.6313                 1.0212                 1.3061
 IR Inten    --      2.8872                11.5063                 2.5249

                     43                     44                     45
                      A                      A                      A
 Frequencies --    936.3436               950.7129               988.0996
 Red. masses --      5.7936                 3.3062                 3.6680
 Frc consts  --      2.9927                 1.7607                 2.1100
 IR Inten    --      9.4880                65.9943                 5.3519

                     46                     47                     48
                      A                      A                      A
 Frequencies --    991.4415              1008.1193              1052.1210
 Red. masses --      2.5227                 3.5413                 1.9688
 Frc consts  --      1.4610                 2.1205                 1.2841
 IR Inten    --      8.7936                15.4306                 0.9789

                     49                     50                     51
                      A                      A                      A
 Frequencies --   1064.9702              1072.7612              1105.8483
 Red. masses --      1.4675                 1.6589                 2.2218
 Frc consts  --      0.9806                 1.1248                 1.6009
 IR Inten    --     52.3801                24.6353                11.9551

                     52                     53                     54
                      A                      A                      A
 Frequencies --   1112.1645              1125.3408              1166.1562
 Red. masses --      1.7910                 1.7298                 2.4998
 Frc consts  --      1.3052                 1.2906                 2.0029
 IR Inten    --      6.3459                 3.1348                15.3777

                     55                     56                     57
                      A                      A                      A
 Frequencies --   1192.6167              1213.0968              1231.0584
 Red. masses --      1.3744                 2.1290                 2.2431
 Frc consts  --      1.1518                 1.8459                 2.0029
 IR Inten    --     10.6525                17.7858                 9.9367

                     58                     59                     60
                      A                      A                      A
 Frequencies --   1236.7958              1268.6520              1290.3227
 Red. masses --      1.6635                 1.3513                 3.9998
 Frc consts  --      1.4992                 1.2814                 3.9236
 IR Inten    --     56.3007                 8.0899                 7.1897

                     61                     62                     63
                      A                      A                      A
 Frequencies --   1299.9400              1322.4087              1336.9686
 Red. masses --      1.9047                 4.7951                 3.4249
 Frc consts  --      1.8964                 4.9406                 3.6070
 IR Inten    --      7.6243                 6.7089                15.8266

                     64                     65                     66
                      A                      A                      A
 Frequencies --   1339.3521              1365.6001              1368.9212
 Red. masses --      1.5812                 1.3973                 1.4311
 Frc consts  --      1.6712                 1.5353                 1.5800
 IR Inten    --      3.2377                24.0244                13.0027

                     67                     68                     69
                      A                      A                      A
 Frequencies --   1385.9847              1396.1623              1427.3559
 Red. masses --      2.4166                 1.7192                 3.2631
 Frc consts  --      2.7351                 1.9744                 3.9169
 IR Inten    --     61.7161               116.8728                 9.2674

                     70                     71                     72
                      A                      A                      A
 Frequencies --   1445.9032              1479.0936              1508.7316
 Red. masses --      4.5342                 5.9868                 4.2801
 Frc consts  --      5.5851                 7.7168                 5.7402
 IR Inten    --    482.1254               279.7633               795.7493

                     73                     74                     75
                      A                      A                      A
 Frequencies --   1521.3431              1530.3856              1552.9075
 Red. masses --      1.0860                 1.1169                 1.1053
 Frc consts  --      1.4810                 1.5412                 1.5704
 IR Inten    --      6.9173                 2.8277                10.3865

                     76                     77                     78
                      A                      A                      A
 Frequencies --   1579.1596              1584.8532              1595.2967
 Red. masses --      3.1791                 6.7906                 3.9574
 Frc consts  --      4.6709                10.0494                 5.9340
 IR Inten    --    286.5493               631.1384               199.5369

                     79                     80                     81
                      A                      A                      A
 Frequencies --   1625.0121              1644.4508              1681.7777
 Red. masses --      2.1892                 2.5160                 2.3016
 Frc consts  --      3.4060                 4.0088                 3.8354
 IR Inten    --    210.0690               655.5409               329.2705

                     82                     83                     84
                      A                      A                      A
 Frequencies --   1809.4540              3050.2264              3070.3359
 Red. masses --      9.0663                 1.0690                 1.0701
 Frc consts  --     17.4894                 5.8599                 5.9437
 IR Inten    --    303.0743                26.7511                16.0516

                     85                     86                     87
                      A                      A                      A
 Frequencies --   3077.3892              3113.2817              3123.3318
 Red. masses --      1.0631                 1.0961                 1.0855
 Frc consts  --      5.9321                 6.2594                 6.2390
 IR Inten    --     25.9676                21.9884                 5.3645

                     88                     89                     90
                      A                      A                      A
 Frequencies --   3131.8643              3152.7618              3255.3111
 Red. masses --      1.1025                 1.0989                 1.0939
 Frc consts  --      6.3715                 6.4357                 6.8296
 IR Inten    --     33.1544                11.0463                 9.0658

                     91                     92                     93
                      A                      A                      A
 Frequencies --   3281.8446              3323.7460              3589.4568
 Red. masses --      1.0974                 1.1009                 1.0452
 Frc consts  --      6.9639                 7.1654                 7.9345
 IR Inten    --      3.1902                 2.8501                24.2977

                     94                     95                     96
                      A                      A                      A
 Frequencies --   3615.5492              3712.5420              3744.6206
 Red. masses --      1.0446                 1.1031                 1.1059
 Frc consts  --      8.0454                 8.9582                 9.1366
 IR Inten    --    106.0930                49.0373                53.2843

 - Thermochemistry -
 -------------------
 Temperature   298.150 Kelvin.  Pressure   1.00000 Atm.
 Atom     1 has atomic number  6 and mass  12.00000

 Molecular mass:   274.12906 amu.
 Principal axes and moments of inertia in atomic units:
                           1         2         3
     Eigenvalues --  2661.938398976.13689**********
           X            0.99997  -0.00679  -0.00266
           Y            0.00679   0.99998   0.00192
           Z            0.00264  -0.00194   0.99999
 This molecule is an asymmetric top.
 Rotational symmetry number  1.
 Warning -- assumption of classical behavior for rotation
           may cause significant error
 Rotational temperatures (Kelvin)      0.03254     0.00965     0.00795
 Rotational constants (GHZ):           0.67798     0.20106     0.16557
 Zero-point vibrational energy     713633.0 (Joules/Mol)
                                  170.56237 (Kcal/Mol)
 Warning -- explicit consideration of  26 degrees of freedom as
           vibrations may cause significant error
 Vibrational temperatures:     41.49    46.11    64.76    85.74   128.92
          (Kelvin)            144.99   167.63   213.43   259.05   276.87
                              298.49   343.44   358.78   388.90   442.93
                              467.33   485.82   578.33   606.80   614.73
                              705.91   752.72   815.29   818.52   879.08
                              883.14   909.09   914.11   951.19  1030.05
                             1048.49  1059.46  1107.13  1113.06  1181.56
                             1198.27  1244.84  1275.37  1284.83  1291.78
                             1329.21  1342.21  1347.19  1367.86  1421.65
                             1426.46  1450.46  1513.77  1532.25  1543.46
                             1591.07  1600.16  1619.11  1677.84  1715.91
                             1745.38  1771.22  1779.47  1825.31  1856.49
                             1870.32  1902.65  1923.60  1927.03  1964.79
                             1969.57  1994.12  2008.77  2053.65  2080.33
                             2128.09  2170.73  2188.87  2201.88  2234.29
                             2272.06  2280.25  2295.28  2338.03  2366.00
                             2419.70  2603.40  4388.60  4417.53  4427.68
                             4479.32  4493.78  4506.05  4536.12  4683.67
                             4721.84  4782.13  5164.43  5201.97  5341.52
                             5387.67

 Zero-point correction=                           0.271808 (Hartree/Particle)
 Thermal correction to Energy=                    0.289170
 Thermal correction to Enthalpy=                  0.290115
 Thermal correction to Gibbs Free Energy=         0.224863
 Sum of electronic and zero-point Energies=           -940.671108
 Sum of electronic and thermal Energies=              -940.653746
 Sum of electronic and thermal Enthalpies=            -940.652802
 Sum of electronic and thermal Free Energies=         -940.718053

                     E (Thermal)             CV                S
                      KCal/Mol        Cal/Mol-Kelvin    Cal/Mol-Kelvin
 Total                  181.457             66.052            137.332
 Electronic               0.000              0.000              0.000
 Translational            0.889              2.981             42.724
 Rotational               0.889              2.981             33.920
 Vibrational            179.680             60.091             60.688
 Vibration     1          0.593              1.984              5.908
 Vibration     2          0.594              1.983              5.699
 Vibration     3          0.595              1.979              5.025
 Vibration     4          0.597              1.974              4.471
 Vibration     5          0.602              1.957              3.669
 Vibration     6          0.604              1.948              3.439
 Vibration     7          0.608              1.936              3.157
 Vibration     8          0.618              1.904              2.693
 Vibration     9          0.629              1.867              2.328
 Vibration    10          0.634              1.850              2.204
 Vibration    11          0.641              1.829              2.066
 Vibration    12          0.657              1.781              1.813
 Vibration    13          0.662              1.764              1.735
 Vibration    14          0.674              1.728              1.594
 Vibration    15          0.698              1.659              1.374
 Vibration    16          0.709              1.626              1.286
 Vibration    17          0.718              1.600              1.223
 Vibration    18          0.768              1.466              0.955
 Vibration    19          0.784              1.423              0.886
 Vibration    20          0.789              1.411              0.868
 Vibration    21          0.846              1.271              0.682
 Vibration    22          0.878              1.199              0.603
 Vibration    23          0.923              1.103              0.511
 Vibration    24          0.925              1.099              0.506
 Vibration    25          0.970              1.009              0.431
 Vibration    26          0.973              1.003              0.426

 Optimization completed.
    -- Stationary point found.
 Normal termination of Gaussian 16 at Mon Jan  4 11:39:38 2021.

 ----------------------------------------------------------------------
 # B3LYP/6-311++G(d,p) empiricaldispersion=gd3bj scf=xqc pop=npa geom=c
 heck
 ----------------------------------------------------------------------

 ---------------------------------------
 CID_80765217_JID_10578_Energie_neutraal
 ---------------------------------------
 Structure from the checkpoint file:  "JID_10578.chk"
 Charge =  0 Multiplicity = 1

 SCF Done:  E(RB3LYP) =  -941.209295719     A.U. after   15 cycles
 Normal termination of Gaussian 16 at Mon Jan  4 11:45:26 2021.

 ----------------------------------------------------------------------
 # B3LYP/6-311++G(d,p) empiricaldispersion=gd3bj scf=xqc pop=npa geom=c
 heck
 ----------------------------------------------------------------------

 -------------------------------------
 CID_80765217_JID_10578_Energie_kation
 -------------------------------------
 Structure from the checkpoint file:  "JID_10578.chk"
 Charge =  1 Multiplicity = 2

 SCF Done:  E(UB3LYP) =  -940.910553322     A.U. after   27 cycles
 Normal termination of Gaussian 16 at Mon Jan  4 11:59:37 2021.
 Gaussian 16:  ES64L-G16RevA.03 25-Dec-2016

 ----------------------------------------------------------------------
 # B3LYP/6-311++G(d,p) empiricaldispersion=gd3bj scf=xqc pop=npa geom=c
 heck
 ----------------------------------------------------------------------

 ------------------------------------
 CID_80765217_JID_10578_Energie_anion
 ------------------------------------
 Structure from the checkpoint file:  "JID_10578.chk"
 Charge = -1 Multiplicity = 2

                         Standard orientation:
 ---------------------------------------------------------------------
 Center     Atomic      Atomic             Coordinates (Angstroms)
 Number     Number       Type             X           Y           Z
 ---------------------------------------------------------------------
      1          6           0        2.887984   -2.520482   -0.222509
      2          6           0        3.528499   -1.401298   -1.057033
      3          6           0        2.797038   -0.137647   -0.563345
      4          7           0        1.469347   -0.647107   -0.207884
      5          6           0        1.409449   -2.115055   -0.167819
      6          6           0        0.359341    0.131608   -0.219640
      7          7           0        0.535364    1.458653   -0.354871
      8          6           0       -0.606716    2.163896   -0.338764
      9          7           0       -1.853471    1.661276   -0.201610
     10          6           0       -1.872689    0.342477   -0.074858
     11          7           0       -0.829430   -0.492146   -0.071787
     12          7           0       -3.124343   -0.277736    0.071600
     13          6           0       -3.342406   -1.629005    0.205536
     14          6           0       -4.698647   -1.793890    0.319500
     15          6           0       -5.228598   -0.475037    0.243147
     16          7           0       -4.284575    0.439835    0.093788
     17          7           0       -0.509178    3.508016   -0.448060
     18          6           0        3.567164    0.518408    0.594526
     19          8           0        4.665319    1.015833    0.394018
     20          7           0        2.986681    0.438609    1.826395
     21          1           0        3.026902   -3.515429   -0.653483
     22          1           0        3.313424   -2.524226    0.787119
     23          1           0        3.316186   -1.551400   -2.121495
     24          1           0        4.608628   -1.309435   -0.930636
     25          1           0        2.713887    0.626975   -1.338255
     26          1           0        0.846845   -2.491388   -1.031549
     27          1           0        0.893915   -2.455471    0.734027
     28          1           0       -2.513875   -2.317464    0.203546
     29          1           0       -5.236371   -2.722953    0.439608
     30          1           0       -6.264350   -0.164430    0.292121
     31          1           0       -1.356762    4.040026   -0.571196
     32          1           0        0.382068    3.912356   -0.689366
     33          1           0        2.001733    0.231335    1.898061
     34          1           0        3.409948    0.985176    2.563911
 ---------------------------------------------------------------------

 SCF Done:  E(UB3LYP) =  -941.208852512     A.U. after   33 cycles
 SCF Done:  E(UB3LYP) =  -941.208852513     a.u. after    1 cycles

 The electronic state is 2-A.
 Alpha  occ. eigenvalues --  -18.99635 -14.26158 -14.23845 -14.23327 -14.22049
 Alpha  occ. eigenvalues --  -14.19199 -14.17193 -14.17170 -14.16705 -10.17861
 Alpha  occ. eigenvalues --  -10.15538 -10.15416 -10.12863 -10.12011 -10.10547
 Alpha  occ. eigenvalues --  -10.08644 -10.08313 -10.06881 -10.06296 -10.04216
 Alpha  occ. eigenvalues --   -0.94674  -0.92856  -0.90260  -0.86326  -0.81909
 Alpha  occ. eigenvalues --   -0.80938  -0.77089  -0.74275  -0.69912  -0.69121
 Alpha  occ. eigenvalues --   -0.65597  -0.65335  -0.57184  -0.54932  -0.53047
 Alpha  occ. eigenvalues --   -0.50258  -0.49096  -0.47602  -0.46917  -0.45390
 Alpha  occ. eigenvalues --   -0.44252  -0.42376  -0.41023  -0.39707  -0.37831
 Alpha  occ. eigenvalues --   -0.37049  -0.35832  -0.35261  -0.33689  -0.32796
 Alpha  occ. eigenvalues --   -0.31810  -0.31658  -0.30565  -0.30288  -0.30188
 Alpha  occ. eigenvalues --   -0.30010  -0.27787  -0.26463  -0.25980  -0.25621
 Alpha  occ. eigenvalues --   -0.24850  -0.24378  -0.22160  -0.18506  -0.17382
 Alpha  occ. eigenvalues --   -0.16799  -0.14707  -0.14300  -0.13688  -0.13247
 Alpha  occ. eigenvalues --   -0.12768  -0.11939   0.04464
 Alpha virt. eigenvalues --    0.06216   0.07106   0.07461   0.08311   0.08526
 Alpha virt. eigenvalues --    0.09236   0.10042   0.10433   0.10790   0.11208
 Alpha virt. eigenvalues --    0.11445   0.11854   0.12026   0.12933   0.13200

  Beta  occ. eigenvalues --  -18.99631 -14.26246 -14.23821 -14.23315 -14.22026
  Beta  occ. eigenvalues --  -14.18980 -14.17156 -14.17017 -14.16674 -10.17853
  Beta  occ. eigenvalues --  -10.15499 -10.15342 -10.12406 -10.12009 -10.10536
  Beta  occ. eigenvalues --  -10.08636 -10.08297 -10.06669 -10.06241 -10.04210
  Beta  occ. eigenvalues --   -0.94662  -0.92622  -0.90103  -0.86222  -0.81756
  Beta  occ. eigenvalues --   -0.80862  -0.76788  -0.74125  -0.69736  -0.69017
  Beta  occ. eigenvalues --   -0.65514  -0.65077  -0.57103  -0.54546  -0.52965
  Beta  occ. eigenvalues --   -0.50175  -0.48991  -0.47528  -0.46836  -0.45305
  Beta  occ. eigenvalues --   -0.44206  -0.42167  -0.40926  -0.39587  -0.37776
  Beta  occ. eigenvalues --   -0.36905  -0.35767  -0.34698  -0.33551  -0.32588
  Beta  occ. eigenvalues --   -0.31636  -0.31602  -0.30302  -0.30232  -0.30097
  Beta  occ. eigenvalues --   -0.29855  -0.27681  -0.26402  -0.25904  -0.25491
  Beta  occ. eigenvalues --   -0.24709  -0.24112  -0.21079  -0.18461  -0.17248
  Beta  occ. eigenvalues --   -0.16546  -0.14558  -0.13878  -0.13555  -0.12438
  Beta  occ. eigenvalues --   -0.12179  -0.11478
  Beta virt. eigenvalues --    0.06412   0.07284   0.07604   0.08299   0.08567
  Beta virt. eigenvalues --    0.09228   0.09356   0.10183   0.10526   0.10869
  Beta virt. eigenvalues --    0.11238   0.11639   0.11984   0.12067   0.12996

 Mulliken charges and spin densities:
               1          2
     1  C    0.058873  -0.632704
     2  C   -0.316070   0.000453
     3  C   -0.147038   0.263992
     4  N    0.182866   0.008343
     5  C    0.060218  -0.143183
     6  C   -0.557811  -0.008604
     7  N   -0.261527   0.106389
     8  C    0.263841   0.137077
     9  N   -0.225118   0.015438
    10  C   -0.077785   0.062112
    11  N   -0.253319   0.016941
    12  N   -0.030744  -0.067315
    13  C   -0.050170   0.052591
    14  C   -0.188310   0.084925
    15  C   -0.249253   0.021443
    16  N    0.043743   0.112187
    17  N   -0.350919   0.028234
    18  C    0.269187  -0.320260
    19  O   -0.350588   0.007236
    20  N   -0.430622   0.027617
    21  H   -0.057561   0.224079
    22  H   -0.077414   0.228631
    23  H    0.070320   0.061620
    24  H    0.160538   0.040378
    25  H    0.191886   0.066800
    26  H    0.204674  -0.024073
    27  H   -0.027151   0.245156
    28  H    0.107676   0.040656
    29  H    0.128734   0.008470
    30  H    0.107857  -0.005081
    31  H    0.262199   0.014398
    32  H    0.205164   0.062258
    33  H    0.170061   0.127599
    34  H    0.163562   0.136195
 Sum of Mulliken charges =  -1.00000   1.00000

 Dipole moment (field-independent basis, Debye):
    X=              2.1727    Y=             -0.3488    Z=             -1.2796  Tot=              2.5456
 Quadrupole moment (field-independent basis, Debye-Ang):
   XX=           -200.9269   YY=           -135.0574   ZZ=           -129.1277
   XY=             -0.6634   XZ=             -1.8961   YZ=              1.6467

 Summary of Natural Population Analysis:

                                       Natural Population
                Natural  -----------------------------------------------
    Atom  No    Charge         Core      Valence    Rydberg      Total
 -----------------------------------------------------------------------
      C    1   -0.19988      0.99963     2.19208    0.00817     3.19988
      C    2   -0.18790      0.99962     2.18112    0.00717     3.18790
      C    3   -0.04079      0.99955     2.02819    0.01305     3.04079
      N    4   -0.25908      0.99962     2.74849    0.01097     3.75908
      C    5   -0.07858      0.99963     2.06772    0.01123     3.07858
      C    6    0.32408      0.99958     1.65833    0.01800     2.67592
      N    7   -0.30543      0.99964     2.79622    0.00957     3.80543
      C    8    0.31747      0.99965     1.66451    0.01836     2.68253
      N    9   -0.29038      0.99964     2.78181    0.00893     3.79038
      C   10    0.38571      0.99959     1.59657    0.01813     2.61429
      N   11   -0.31139      0.99965     2.80345    0.00829     3.81139
      N   12   -0.12890      0.99962     2.61653    0.01275     3.62890
      C   13    0.03365      0.99958     1.95615    0.01063     2.96635
      C   14   -0.17504      0.99957     2.16701    0.00846     3.17504
      C   15   -0.00919      0.99966     1.99441    0.01512     3.00919
      N   16   -0.10985      0.99973     2.59996    0.01016     3.60985
      N   17   -0.39008      0.99969     2.88160    0.00879     3.89008
      C   18    0.34299      0.99967     1.63387    0.02347     2.65701
      O   19   -0.32894      0.99988     3.32301    0.00605     4.32894
      N   20   -0.39987      0.99970     2.89244    0.00772     3.89987
      H   21    0.10143      0.00000     0.39771    0.00086     0.39857
      H   22    0.10037      0.00000     0.39817    0.00145     0.39963
      H   23    0.09734      0.00000     0.40157    0.00109     0.40266
      H   24    0.10977      0.00000     0.38909    0.00114     0.39023
      H   25    0.12121      0.00000     0.37736    0.00143     0.37879
      H   26    0.09391      0.00000     0.40494    0.00115     0.40609
      H   27    0.10549      0.00000     0.39318    0.00133     0.39451
      H   28    0.10985      0.00000     0.38906    0.00110     0.39015
      H   29    0.09965      0.00000     0.39952    0.00083     0.40035
      H   30    0.08807      0.00000     0.41106    0.00087     0.41193
      H   31    0.19566      0.00000     0.30290    0.00144     0.30434
      H   32    0.19338      0.00000     0.30514    0.00148     0.30662
      H   33    0.20282      0.00000     0.29512    0.00206     0.29718
      H   34    0.19243      0.00000     0.30550    0.00207     0.30757
 =======================================================================
   * Total *   -0.00000     19.99289    51.75378    0.25333    72.00000

 Normal termination of Gaussian 16 at Mon Jan  4 12:16:53 2021.
