 Gaussian 16, Revision A.03,

 -----------------------------------------------------------
 # opt freq B3LYP/6-31G(d) empiricaldispersion=gd3bj scf=xqc
 -----------------------------------------------------------

 -------------------------------
 CID_148270283_JID_3863_neutraal
 -------------------------------
 Symbolic Z-matrix:
 Charge =  0 Multiplicity = 1

 SCF Done:  E(RB3LYP) =  -560.577527423     A.U. after   13 cycles
 SCF Done:  E(RB3LYP) =  -560.581448041     A.U. after   11 cycles
 SCF Done:  E(RB3LYP) =  -560.581878806     A.U. after   11 cycles
 SCF Done:  E(RB3LYP) =  -560.581952809     A.U. after   10 cycles
 SCF Done:  E(RB3LYP) =  -560.581962224     A.U. after    9 cycles
 SCF Done:  E(RB3LYP) =  -560.581967335     A.U. after    9 cycles
 SCF Done:  E(RB3LYP) =  -560.581968298     A.U. after    7 cycles
 SCF Done:  E(RB3LYP) =  -560.581968368     A.U. after    6 cycles
 Optimization completed.
    -- Stationary point found.
 Normal termination of Gaussian 16 at Mon Dec 14 13:07:50 2020.

 --------------------------------------------------------------------
 #N Geom=AllCheck Guess=TCheck SCRF=Check GenChk RB3LYP/6-31G(d) Freq
 --------------------------------------------------------------------

 Structure from the checkpoint file:  "JID_3863.chk"
 -------------------------------
 CID_148270283_JID_3863_neutraal
 -------------------------------
 Charge =  0 Multiplicity = 1

 SCF Done:  E(RB3LYP) =  -560.581968368     A.U. after    1 cycles

  Exact polarizability: 131.824   1.836 120.745   1.839  -0.372 100.733
 Approx polarizability: 168.377   4.426 165.852   0.943  -0.678 158.917

                      1                      2                      3
                      A                      A                      A
 Frequencies --     50.2115                74.8829                90.2215
 Red. masses --      2.4893                 3.5485                 2.7629
 Frc consts  --      0.0037                 0.0117                 0.0133
 IR Inten    --      1.5366                 0.4666                 0.1511

                      4                      5                      6
                      A                      A                      A
 Frequencies --    156.6174               196.8429               212.0701
 Red. masses --      3.2145                 2.1923                 2.4446
 Frc consts  --      0.0465                 0.0500                 0.0648
 IR Inten    --      2.0165                 0.8557                 3.4355

                      7                      8                      9
                      A                      A                      A
 Frequencies --    269.7712               296.1748               322.8454
 Red. masses --      1.6198                 2.1838                 1.9396
 Frc consts  --      0.0695                 0.1129                 0.1191
 IR Inten    --      0.4512                 2.1719                 0.1561

                     10                     11                     12
                      A                      A                      A
 Frequencies --    374.2875               403.4996               462.3151
 Red. masses --      2.6211                 3.2954                 3.1102
 Frc consts  --      0.2163                 0.3161                 0.3917
 IR Inten    --      0.6884                 2.2722                 5.0486

                     13                     14                     15
                      A                      A                      A
 Frequencies --    487.5894               528.9969               547.2368
 Red. masses --      2.1602                 3.7693                 2.6979
 Frc consts  --      0.3026                 0.6215                 0.4760
 IR Inten    --      0.6154                 1.9131                 0.2661

                     16                     17                     18
                      A                      A                      A
 Frequencies --    569.6811               675.4398               735.4855
 Red. masses --      2.8503                 2.2827                 2.8591
 Frc consts  --      0.5450                 0.6136                 0.9112
 IR Inten    --      4.0578                 0.8604                 1.2265

                     19                     20                     21
                      A                      A                      A
 Frequencies --    770.6142               808.2088               842.9610
 Red. masses --      4.1420                 3.0467                 2.1523
 Frc consts  --      1.4492                 1.1726                 0.9011
 IR Inten    --      0.6988                 1.0865                 1.7904

                     22                     23                     24
                      A                      A                      A
 Frequencies --    862.7746               872.4327               876.1475
 Red. masses --      3.5141                 2.5729                 2.0884
 Frc consts  --      1.5412                 1.1538                 0.9445
 IR Inten    --     27.5910                 3.4371                 0.4152

                     25                     26                     27
                      A                      A                      A
 Frequencies --    908.0541               923.4711               931.7589
 Red. masses --      1.6904                 2.4006                 2.7954
 Frc consts  --      0.8212                 1.2062                 1.4299
 IR Inten    --      0.0648                 0.6818                 1.7157

                     28                     29                     30
                      A                      A                      A
 Frequencies --    944.4897               967.7614               972.9913
 Red. masses --      1.9753                 1.7024                 1.7281
 Frc consts  --      1.0382                 0.9394                 0.9639
 IR Inten    --      0.9606                12.8246                13.8646

                     31                     32                     33
                      A                      A                      A
 Frequencies --    976.0147              1001.9882              1020.0398
 Red. masses --      1.5697                 1.7766                 1.7509
 Frc consts  --      0.8810                 1.0509                 1.0734
 IR Inten    --     10.6521                 4.2470                 4.6447

                     34                     35                     36
                      A                      A                      A
 Frequencies --   1035.2886              1052.6251              1063.1970
 Red. masses --      2.0536                 1.6994                 1.5375
 Frc consts  --      1.2968                 1.1094                 1.0240
 IR Inten    --     11.3575                 2.1313                 0.4944

                     37                     38                     39
                      A                      A                      A
 Frequencies --   1065.1518              1074.1572              1094.8606
 Red. masses --      1.9150                 3.5176                 1.8710
 Frc consts  --      1.2801                 2.3913                 1.3214
 IR Inten    --     10.6608                17.0290                 8.4855

                     40                     41                     42
                      A                      A                      A
 Frequencies --   1129.2047              1150.3061              1166.3225
 Red. masses --      2.0513                 1.2169                 1.6171
 Frc consts  --      1.5411                 0.9487                 1.2960
 IR Inten    --     16.7034                 3.6585                 7.7116

                     43                     44                     45
                      A                      A                      A
 Frequencies --   1181.4001              1206.1889              1214.4319
 Red. masses --      1.4666                 1.4328                 1.6461
 Frc consts  --      1.2060                 1.2282                 1.4304
 IR Inten    --      0.8463                 0.3392                 1.9322

                     46                     47                     48
                      A                      A                      A
 Frequencies --   1220.4558              1235.2447              1251.0403
 Red. masses --      1.7754                 1.7323                 1.5732
 Frc consts  --      1.5581                 1.5573                 1.4507
 IR Inten    --      7.1628                 1.1751                 0.2027

                     49                     50                     51
                      A                      A                      A
 Frequencies --   1259.8810              1276.3257              1299.2116
 Red. masses --      1.5651                 1.4531                 1.3723
 Frc consts  --      1.4637                 1.3946                 1.3647
 IR Inten    --     34.1298                 1.6081                 1.2179

                     52                     53                     54
                      A                      A                      A
 Frequencies --   1314.3769              1323.4356              1331.3855
 Red. masses --      1.3550                 1.3313                 1.4404
 Frc consts  --      1.3792                 1.3739                 1.5043
 IR Inten    --      7.2511                 0.6162                 1.4414

                     55                     56                     57
                      A                      A                      A
 Frequencies --   1332.5778              1338.1313              1350.9145
 Red. masses --      1.4938                 1.3502                 1.3411
 Frc consts  --      1.5629                 1.4244                 1.4420
 IR Inten    --      1.0561                 1.0824                 0.5312

                     58                     59                     60
                      A                      A                      A
 Frequencies --   1363.4134              1370.9311              1384.1552
 Red. masses --      1.3534                 1.5128                 1.5050
 Frc consts  --      1.4823                 1.6752                 1.6988
 IR Inten    --      0.6467                 0.8098                 0.1709

                     61                     62                     63
                      A                      A                      A
 Frequencies --   1391.5447              1407.4365              1465.9716
 Red. masses --      1.5629                 1.3150                 1.1909
 Frc consts  --      1.7831                 1.5347                 1.5079
 IR Inten    --      1.0576                31.5580                 0.0167

                     64                     65                     66
                      A                      A                      A
 Frequencies --   1493.6035              1505.9111              1516.1136
 Red. masses --      1.1379                 1.0384                 1.0898
 Frc consts  --      1.4956                 1.3875                 1.4759
 IR Inten    --      2.9174                 5.2338                 1.4893

                     67                     68                     69
                      A                      A                      A
 Frequencies --   1521.1050              1522.0788              1533.7906
 Red. masses --      1.0864                 1.0927                 1.1084
 Frc consts  --      1.4810                 1.4915                 1.5364
 IR Inten    --      4.7087                 0.4088                 3.0867

                     70                     71                     72
                      A                      A                      A
 Frequencies --   1546.1345              1548.0923              3018.3805
 Red. masses --      1.0488                 1.0946                 1.0450
 Frc consts  --      1.4772                 1.5456                 5.6096
 IR Inten    --     11.3073                 5.5529                51.1994

                     73                     74                     75
                      A                      A                      A
 Frequencies --   3038.3474              3040.1959              3044.5448
 Red. masses --      1.0710                 1.0659                 1.0612
 Frc consts  --      5.8251                 5.8044                 5.7955
 IR Inten    --     17.1033                27.9427                27.4945

                     76                     77                     78
                      A                      A                      A
 Frequencies --   3049.6726              3058.4346              3066.6694
 Red. masses --      1.0845                 1.0848                 1.0616
 Frc consts  --      5.9430                 5.9788                 5.8823
 IR Inten    --     18.7728                17.8901                36.0167

                     79                     80                     81
                      A                      A                      A
 Frequencies --   3070.4446              3086.2338              3093.6896
 Red. masses --      1.0632                 1.0947                 1.0968
 Frc consts  --      5.9058                 6.1435                 6.1849
 IR Inten    --     37.1399                37.3087                40.3186

                     82                     83                     84
                      A                      A                      A
 Frequencies --   3097.2777              3099.0261              3099.6253
 Red. masses --      1.0918                 1.0889                 1.1006
 Frc consts  --      6.1708                 6.1617                 6.2301
 IR Inten    --     18.5065                68.2319                66.2595

                     85                     86                     87
                      A                      A                      A
 Frequencies --   3108.6386              3114.5187              3114.8954
 Red. masses --      1.0905                 1.1041                 1.0986
 Frc consts  --      6.2091                 6.3104                 6.2804
 IR Inten    --     26.6088                40.0400                30.6979

                     88                     89                     90
                      A                      A                      A
 Frequencies --   3116.9085              3139.8485              3448.9189
 Red. masses --      1.0917                 1.1011                 1.0759
 Frc consts  --      6.2487                 6.3957                 7.5400
 IR Inten    --     60.0095                24.6751                 3.2941

 - Thermochemistry -
 -------------------
 Temperature   298.150 Kelvin.  Pressure   1.00000 Atm.
 Atom     1 has atomic number  6 and mass  12.00000

 Molecular mass:   181.14666 amu.
 Principal axes and moments of inertia in atomic units:
                           1         2         3
     Eigenvalues --  1377.061872860.097193599.87000
           X            0.99995   0.01035   0.00005
           Y           -0.01035   0.99993  -0.00486
           Z           -0.00010   0.00486   0.99999
 This molecule is an asymmetric top.
 Rotational symmetry number  1.
 Warning -- assumption of classical behavior for rotation
           may cause significant error
 Rotational temperatures (Kelvin)      0.06290     0.03028     0.02406
 Rotational constants (GHZ):           1.31057     0.63101     0.50134
 Zero-point vibrational energy     769058.5 (Joules/Mol)
                                  183.80940 (Kcal/Mol)
 Warning -- explicit consideration of  16 degrees of freedom as
           vibrations may cause significant error
 Vibrational temperatures:     72.24   107.74   129.81   225.34   283.21
          (Kelvin)            305.12   388.14   426.13   464.50   538.52
                              580.55   665.17   701.53   761.11   787.35
                              819.64   971.81  1058.20  1108.74  1162.83
                             1212.83  1241.34  1255.24  1260.58  1306.49
                             1328.67  1340.59  1358.91  1392.39  1399.92
                             1404.27  1441.64  1467.61  1489.55  1514.49
                             1529.70  1532.52  1545.47  1575.26  1624.67
                             1655.03  1678.08  1699.77  1735.44  1747.30
                             1755.96  1777.24  1799.97  1812.69  1836.35
                             1869.28  1891.10  1904.13  1915.57  1917.28
                             1925.27  1943.66  1961.65  1972.46  1991.49
                             2002.12  2024.99  2109.21  2148.96  2166.67
                             2181.35  2188.53  2189.93  2206.78  2224.54
                             2227.36  4342.78  4371.50  4374.16  4380.42
                             4387.80  4400.41  4412.25  4417.68  4440.40
                             4451.13  4456.29  4458.81  4459.67  4472.64
                             4481.10  4481.64  4484.54  4517.54  4962.23

 Zero-point correction=                           0.292919 (Hartree/Particle)
 Thermal correction to Energy=                    0.304368
 Thermal correction to Enthalpy=                  0.305312
 Thermal correction to Gibbs Free Energy=         0.255355
 Sum of electronic and zero-point Energies=           -560.289049
 Sum of electronic and thermal Energies=              -560.277601
 Sum of electronic and thermal Enthalpies=            -560.276656
 Sum of electronic and thermal Free Energies=         -560.326614

                     E (Thermal)             CV                S
                      KCal/Mol        Cal/Mol-Kelvin    Cal/Mol-Kelvin
 Total                  190.994             46.727            105.144
 Electronic               0.000              0.000              0.000
 Translational            0.889              2.981             41.489
 Rotational               0.889              2.981             31.028
 Vibrational            189.216             40.766             32.627
 Vibration     1          0.595              1.978              4.809
 Vibration     2          0.599              1.966              4.021
 Vibration     3          0.602              1.956              3.655
 Vibration     4          0.620              1.895              2.590
 Vibration     5          0.636              1.844              2.162
 Vibration     6          0.643              1.822              2.026
 Vibration     7          0.674              1.729              1.598
 Vibration     8          0.690              1.681              1.438
 Vibration     9          0.708              1.630              1.296
 Vibration    10          0.745              1.525              1.062
 Vibration    11          0.769              1.463              0.950
 Vibration    12          0.820              1.334              0.759
 Vibration    13          0.844              1.278              0.690
 Vibration    14          0.884              1.186              0.589
 Vibration    15          0.902              1.146              0.550
 Vibration    16          0.926              1.097              0.505

                           ! Non-Optimized Parameters !
 Normal termination of Gaussian 16 at Mon Dec 14 13:17:29 2020.

 ----------------------------------------------------------------------
 # B3LYP/6-311++G(d,p) empiricaldispersion=gd3bj scf=xqc pop=npa geom=c
 heck
 ----------------------------------------------------------------------

 ---------------------------------------
 CID_148270283_JID_3863_Energie_neutraal
 ---------------------------------------
 Structure from the checkpoint file:  "JID_3863.chk"
 Charge =  0 Multiplicity = 1

 SCF Done:  E(RB3LYP) =  -560.735810011     A.U. after   13 cycles
 Normal termination of Gaussian 16 at Mon Dec 14 13:21:02 2020.

 ----------------------------------------------------------------------
 # B3LYP/6-311++G(d,p) empiricaldispersion=gd3bj scf=xqc pop=npa geom=c
 heck
 ----------------------------------------------------------------------

 -------------------------------------
 CID_148270283_JID_3863_Energie_kation
 -------------------------------------
 Structure from the checkpoint file:  "JID_3863.chk"
 Charge =  1 Multiplicity = 2

 SCF Done:  E(UB3LYP) =  -560.412072192     A.U. after   25 cycles
 Normal termination of Gaussian 16 at Mon Dec 14 13:30:24 2020.
 Gaussian 16:  ES64L-G16RevA.03 25-Dec-2016

 ----------------------------------------------------------------------
 # B3LYP/6-311++G(d,p) empiricaldispersion=gd3bj scf=xqc pop=npa geom=c
 heck
 ----------------------------------------------------------------------

 ------------------------------------
 CID_148270283_JID_3863_Energie_anion
 ------------------------------------
 Structure from the checkpoint file:  "JID_3863.chk"
 Charge = -1 Multiplicity = 2

                         Standard orientation:
 ---------------------------------------------------------------------
 Center     Atomic      Atomic             Coordinates (Angstroms)
 Number     Number       Type             X           Y           Z
 ---------------------------------------------------------------------
      1          6           0        3.006210    1.816378   -0.188035
      2          7           0        3.133537    0.396858    0.133257
      3          8           0        2.151907   -0.318852   -0.650238
      4          6           0        1.294650   -1.045309    0.227039
      5          6           0        0.420696   -2.018990   -0.614411
      6          6           0       -1.019736   -1.692938   -0.155891
      7          6           0       -0.783357   -1.300582    1.320909
      8          6           0        0.249989   -0.201627    0.993098
      9          6           0       -0.515895    0.686008   -0.010739
     10          6           0       -1.419447   -0.343827   -0.787804
     11          6           0       -2.873582    0.119897   -0.557110
     12          6           0       -2.752257    1.623544   -0.258444
     13          6           0       -1.488391    1.710441    0.613424
     14          1           0        2.979356    2.020335   -1.268657
     15          1           0        2.092596    2.208532    0.266224
     16          1           0        3.864144    2.335105    0.255212
     17          1           0        4.010865    0.062032   -0.267968
     18          1           0        1.920918   -1.588298    0.944590
     19          1           0        0.571611   -1.840115   -1.683837
     20          1           0        0.686930   -3.060784   -0.408776
     21          1           0       -1.737890   -2.499060   -0.333500
     22          1           0       -1.677081   -0.924413    1.828052
     23          1           0       -0.367290   -2.118055    1.921368
     24          1           0        0.672331    0.342071    1.842443
     25          1           0        0.178447    1.185178   -0.689720
     26          1           0       -1.193936   -0.338592   -1.860125
     27          1           0       -3.523885   -0.098537   -1.410962
     28          1           0       -3.303883   -0.393212    0.313118
     29          1           0       -2.595747    2.175570   -1.194938
     30          1           0       -3.641844    2.043449    0.224217
     31          1           0       -1.064665    2.719945    0.655590
     32          1           0       -1.734276    1.423685    1.644562
 ---------------------------------------------------------------------

 SCF Done:  E(UB3LYP) =  -560.717726340     A.U. after   31 cycles

 The electronic state is 2-A.
 Alpha  occ. eigenvalues --  -19.04246 -14.24752 -10.11242 -10.08442 -10.07014
 Alpha  occ. eigenvalues --  -10.06496 -10.06385 -10.06337 -10.06291 -10.06266
 Alpha  occ. eigenvalues --  -10.06050 -10.06039 -10.05960  -0.96091  -0.78328
 Alpha  occ. eigenvalues --   -0.74413  -0.70452  -0.63680  -0.61022  -0.58737
 Alpha  occ. eigenvalues --   -0.57688  -0.54786  -0.48032  -0.46984  -0.45525
 Alpha  occ. eigenvalues --   -0.42045  -0.41443  -0.39959  -0.38480  -0.38143
 Alpha  occ. eigenvalues --   -0.35405  -0.33696  -0.32712  -0.31437  -0.30430
 Alpha  occ. eigenvalues --   -0.29194  -0.28894  -0.27284  -0.25808  -0.24977
 Alpha  occ. eigenvalues --   -0.24110  -0.23650  -0.23087  -0.22161  -0.21692
 Alpha  occ. eigenvalues --   -0.20532  -0.20421  -0.20028  -0.15982  -0.14513
 Alpha  occ. eigenvalues --    0.04651
 Alpha virt. eigenvalues --    0.06390   0.06919   0.07677   0.08465   0.08755
 Alpha virt. eigenvalues --    0.09509   0.09704   0.09964   0.10901   0.11358
 Alpha virt. eigenvalues --    0.11749   0.12442   0.12719   0.12988   0.13980

  Beta  occ. eigenvalues --  -19.04237 -14.24729 -10.11238 -10.08400 -10.07006
  Beta  occ. eigenvalues --  -10.06492 -10.06372 -10.06331 -10.06281 -10.06249
  Beta  occ. eigenvalues --  -10.06035 -10.06033 -10.05944  -0.96073  -0.78308
  Beta  occ. eigenvalues --   -0.74383  -0.70427  -0.63660  -0.60994  -0.58704
  Beta  occ. eigenvalues --   -0.57648  -0.54702  -0.47984  -0.46957  -0.45489
  Beta  occ. eigenvalues --   -0.42015  -0.41416  -0.39923  -0.38441  -0.38087
  Beta  occ. eigenvalues --   -0.35366  -0.33670  -0.32671  -0.31406  -0.30401
  Beta  occ. eigenvalues --   -0.29164  -0.28858  -0.27255  -0.25786  -0.24951
  Beta  occ. eigenvalues --   -0.24081  -0.23624  -0.23059  -0.22136  -0.21669
  Beta  occ. eigenvalues --   -0.20509  -0.20399  -0.20010  -0.15954  -0.14479
  Beta virt. eigenvalues --    0.06715   0.07518   0.07582   0.08171   0.09066
  Beta virt. eigenvalues --    0.09260   0.09870   0.10182   0.10293   0.11437
  Beta virt. eigenvalues --    0.11842   0.12138   0.12702   0.12976   0.13207

 Mulliken charges and spin densities:
               1          2
     1  C    1.137958  -1.524227
     2  N   -0.439355   0.182247
     3  O   -0.019424   0.014914
     4  C    0.047838  -0.491782
     5  C   -0.123260  -0.518195
     6  C   -0.335416   0.807074
     7  C    0.307552  -1.222579
     8  C   -0.004203   0.339658
     9  C    0.010145  -0.028963
    10  C   -0.222892   0.150133
    11  C    0.640692  -1.129592
    12  C   -0.074190  -0.353801
    13  C   -0.360815  -0.095601
    14  H   -0.300906   0.436294
    15  H   -0.179526   0.340867
    16  H   -0.676499   0.814138
    17  H   -0.073564   0.343099
    18  H    0.192886  -0.009737
    19  H    0.172156  -0.002177
    20  H   -0.236840   0.397276
    21  H   -0.406994   0.638151
    22  H   -0.119581   0.254522
    23  H    0.007936   0.151430
    24  H    0.091550   0.159249
    25  H    0.597024  -0.333785
    26  H   -0.200101   0.408640
    27  H   -0.180928   0.337644
    28  H    0.080614   0.035984
    29  H    0.051102   0.077904
    30  H   -0.280649   0.443600
    31  H   -0.234551   0.378129
    32  H    0.132241  -0.000516
 Sum of Mulliken charges =  -1.00000   1.00000

 Dipole moment (field-independent basis, Debye):
    X=             -2.2393    Y=             -2.1786    Z=              0.5813  Tot=              3.1778
 Quadrupole moment (field-independent basis, Debye-Ang):
   XX=           -154.4571   YY=           -131.6944   ZZ=           -114.0507
   XY=            -11.3785   XZ=             -1.1205   YZ=             -1.0708

 Summary of Natural Population Analysis:

                                       Natural Population
                Natural  -----------------------------------------------
    Atom  No    Charge         Core      Valence    Rydberg      Total
 -----------------------------------------------------------------------
      C    1   -0.18431      0.99966     2.17547    0.00918     3.18431
      N    2   -0.17643      0.99974     2.66333    0.01336     3.67643
      O    3   -0.23901      0.99988     3.22863    0.01049     4.23901
      C    4    0.07280      0.99951     1.91127    0.01642     2.92720
      C    5   -0.19781      0.99961     2.18797    0.01023     3.19781
      C    6   -0.10937      0.99958     2.09740    0.01239     3.10937
      C    7   -0.19329      0.99962     2.18436    0.00931     3.19329
      C    8   -0.12079      0.99956     2.10913    0.01211     3.12079
      C    9   -0.11355      0.99958     2.10243    0.01154     3.11355
      C   10   -0.10514      0.99959     2.09463    0.01092     3.10514
      C   11   -0.19071      0.99962     2.18259    0.00851     3.19071
      C   12   -0.18849      0.99964     2.18162    0.00724     3.18849
      C   13   -0.18976      0.99962     2.18105    0.00910     3.18976
      H   14    0.08682      0.00000     0.41144    0.00175     0.41318
      H   15    0.09365      0.00000     0.40445    0.00190     0.40635
      H   16    0.09747      0.00000     0.40011    0.00242     0.40253
      H   17    0.16688      0.00000     0.33037    0.00275     0.33312
      H   18    0.08801      0.00000     0.41033    0.00166     0.41199
      H   19    0.10544      0.00000     0.39294    0.00163     0.39456
      H   20    0.10075      0.00000     0.39826    0.00099     0.39925
      H   21    0.10168      0.00000     0.39708    0.00123     0.39832
      H   22    0.10143      0.00000     0.39738    0.00120     0.39857
      H   23    0.09987      0.00000     0.39912    0.00101     0.40013
      H   24    0.10620      0.00000     0.39237    0.00143     0.39380
      H   25    0.10866      0.00000     0.38909    0.00225     0.39134
      H   26    0.10034      0.00000     0.39840    0.00125     0.39966
      H   27    0.10015      0.00000     0.39884    0.00101     0.39985
      H   28    0.09370      0.00000     0.40466    0.00163     0.40630
      H   29    0.09307      0.00000     0.40566    0.00127     0.40693
      H   30    0.09749      0.00000     0.40150    0.00101     0.40251
      H   31    0.10116      0.00000     0.39788    0.00095     0.39884
      H   32    0.09309      0.00000     0.40547    0.00144     0.40691
 =======================================================================
   * Total *   -0.00000     12.99521    36.83523    0.16956    50.00000

 Normal termination of Gaussian 16 at Mon Dec 14 13:41:14 2020.
