 Gaussian 16, Revision A.03,

 -----------------------------------------------------------
 # opt freq B3LYP/6-31G(d) empiricaldispersion=gd3bj scf=xqc
 -----------------------------------------------------------

 -------------------------------
 CID_151197396_JID_3100_neutraal
 -------------------------------
 Symbolic Z-matrix:
 Charge =  0 Multiplicity = 1

 SCF Done:  E(RB3LYP) =  -979.970290046     A.U. after   16 cycles
 SCF Done:  E(RB3LYP) =  -979.978422276     A.U. after   15 cycles
 SCF Done:  E(RB3LYP) =  -979.978803644     A.U. after   15 cycles
 SCF Done:  E(RB3LYP) =  -979.980019681     A.U. after   12 cycles
 SCF Done:  E(RB3LYP) =  -979.980977817     A.U. after   15 cycles
 SCF Done:  E(RB3LYP) =  -979.980545475     A.U. after   17 cycles
 SCF Done:  E(RB3LYP) =  -979.983123227     A.U. after   14 cycles
 SCF Done:  E(RB3LYP) =  -979.984568910     A.U. after   14 cycles
 SCF Done:  E(RB3LYP) =  -979.986229630     A.U. after   16 cycles
 SCF Done:  E(RB3LYP) =  -979.986372244     A.U. after   13 cycles
 SCF Done:  E(RB3LYP) =  -979.986459894     A.U. after   14 cycles
 SCF Done:  E(RB3LYP) =  -979.986490402     A.U. after   12 cycles
 SCF Done:  E(RB3LYP) =  -979.986495168     A.U. after   11 cycles
 SCF Done:  E(RB3LYP) =  -979.986496706     A.U. after   10 cycles
 SCF Done:  E(RB3LYP) =  -979.986496999     A.U. after    8 cycles
 Optimization completed.
    -- Stationary point found.
 Normal termination of Gaussian 16 at Wed Dec  9 22:24:31 2020.

 --------------------------------------------------------------------
 #N Geom=AllCheck Guess=TCheck SCRF=Check GenChk RB3LYP/6-31G(d) Freq
 --------------------------------------------------------------------

 Structure from the checkpoint file:  "JID_3100.chk"
 -------------------------------
 CID_151197396_JID_3100_neutraal
 -------------------------------
 Charge =  0 Multiplicity = 1

 SCF Done:  E(RB3LYP) =  -979.986496999     A.U. after    1 cycles

  Exact polarizability: 205.330  13.575 121.004   0.004   0.006  55.350
 Approx polarizability: 342.068  51.985 218.731   0.012   0.021  85.767

                      1                      2                      3
                      A                      A                      A
 Frequencies --     30.8232                48.4189               104.8940
 Red. masses --      8.1628                 3.7489                 4.5240
 Frc consts  --      0.0046                 0.0052                 0.0293
 IR Inten    --      0.0135                 0.7045                 3.9371

                      4                      5                      6
                      A                      A                      A
 Frequencies --    113.4099               127.3173               151.1218
 Red. masses --      4.5886                 5.0930                 4.6894
 Frc consts  --      0.0348                 0.0486                 0.0631
 IR Inten    --      0.6566                 1.2336                 1.0669

                      7                      8                      9
                      A                      A                      A
 Frequencies --    156.5001               169.8142               237.4516
 Red. masses --      1.1250                 1.2297                 3.3529
 Frc consts  --      0.0162                 0.0209                 0.1114
 IR Inten    --      0.0128                 0.0039                 0.5560

                     10                     11                     12
                      A                      A                      A
 Frequencies --    238.9279               287.2638               364.2821
 Red. masses --      3.9112                 8.3334                 7.1313
 Frc consts  --      0.1315                 0.4052                 0.5576
 IR Inten    --      1.7629                 0.6444                 0.1515

                     13                     14                     15
                      A                      A                      A
 Frequencies --    376.2193               398.8242               497.0369
 Red. masses --      6.9534                 6.3014                12.6101
 Frc consts  --      0.5799                 0.5905                 1.8355
 IR Inten    --      7.1824                 3.2660                21.7152

                     16                     17                     18
                      A                      A                      A
 Frequencies --    526.0248               531.7811               570.8295
 Red. masses --     10.6952                13.8118                 7.0498
 Frc consts  --      1.7436                 2.3013                 1.3534
 IR Inten    --      3.1749                 4.1949                 6.5407

                     19                     20                     21
                      A                      A                      A
 Frequencies --    627.9878               636.8967               689.0039
 Red. masses --      8.8533                 5.7992                10.9478
 Frc consts  --      2.0571                 1.3860                 3.0621
 IR Inten    --     23.4673                 2.6575                 6.3074

                     22                     23                     24
                      A                      A                      A
 Frequencies --    721.4931               757.9157               808.0992
 Red. masses --      6.5413                10.6883                 8.4345
 Frc consts  --      2.0062                 3.6174                 3.2452
 IR Inten    --      1.6137                 0.1464                 1.9439

                     25                     26                     27
                      A                      A                      A
 Frequencies --    895.9605               954.5610               998.1396
 Red. masses --      1.3557                 5.9279                 1.1806
 Frc consts  --      0.6412                 3.1824                 0.6930
 IR Inten    --      9.9458                28.3561                 5.5129

                     28                     29                     30
                      A                      A                      A
 Frequencies --   1007.3414              1051.6058              1145.5785
 Red. masses --      1.3731                 8.1529                 6.2312
 Frc consts  --      0.8209                 5.3121                 4.8180
 IR Inten    --      6.0814                20.9997                90.3343

                     31                     32                     33
                      A                      A                      A
 Frequencies --   1184.7716              1201.1294              1246.4576
 Red. masses --      1.2622                 1.8453                 2.2270
 Frc consts  --      1.0439                 1.5685                 2.0385
 IR Inten    --      0.5546                94.9932                74.2350

                     34                     35                     36
                      A                      A                      A
 Frequencies --   1277.9799              1290.4298              1385.9567
 Red. masses --      9.5058                 4.9828                 1.1902
 Frc consts  --      9.1471                 4.8887                 1.3470
 IR Inten    --    125.4989                26.4574                 2.0993

                     37                     38                     39
                      A                      A                      A
 Frequencies --   1398.5572              1434.4063              1479.8765
 Red. masses --      3.9472                 2.9355                 3.2594
 Frc consts  --      4.5488                 3.5586                 4.2057
 IR Inten    --     74.6721               196.1449               375.8187

                     40                     41                     42
                      A                      A                      A
 Frequencies --   1489.4514              1502.5558              1510.6495
 Red. masses --      1.0525                 1.0951                 1.0490
 Frc consts  --      1.3757                 1.4566                 1.4104
 IR Inten    --      7.8589                40.7969                 8.5734

                     43                     44                     45
                      A                      A                      A
 Frequencies --   1514.0823              1525.3295              1587.1003
 Red. masses --      1.6435                 1.0623                 6.5956
 Frc consts  --      2.2198                 1.4562                 9.7884
 IR Inten    --     32.6706                23.6957                38.6628

                     46                     47                     48
                      A                      A                      A
 Frequencies --   1598.2820              2277.1144              3070.6828
 Red. masses --      8.6625                13.9926                 1.0300
 Frc consts  --     13.0377                42.7481                 5.7220
 IR Inten    --     19.6645               930.4036                30.1982

                     49                     50                     51
                      A                      A                      A
 Frequencies --   3082.0343              3143.2282              3174.2163
 Red. masses --      1.0289                 1.1075                 1.1058
 Frc consts  --      5.7582                 6.4466                 6.5645
 IR Inten    --     17.3596                21.8213                 6.3528

                     52                     53                     54
                      A                      A                      A
 Frequencies --   3176.7784              3184.6970              3197.4420
 Red. masses --      1.1080                 1.1063                 1.0917
 Frc consts  --      6.5881                 6.6108                 6.5762
 IR Inten    --      5.4177                14.6441                13.1670

 - Thermochemistry -
 -------------------
 Temperature   298.150 Kelvin.  Pressure   1.00000 Atm.
 Atom     1 has atomic number  6 and mass  12.00000

 Molecular mass:   197.03713 amu.
 Principal axes and moments of inertia in atomic units:
                           1         2         3
     Eigenvalues --  1213.513604092.410655283.06659
           X            0.99996  -0.00888  -0.00000
           Y            0.00888   0.99996   0.00000
           Z            0.00000  -0.00000   1.00000
 This molecule is an asymmetric top.
 Rotational symmetry number  1.
 Warning -- assumption of classical behavior for rotation
           may cause significant error
 Rotational temperatures (Kelvin)      0.07137     0.02116     0.01639
 Rotational constants (GHZ):           1.48720     0.44100     0.34161
 Zero-point vibrational energy     371791.8 (Joules/Mol)
                                   88.86037 (Kcal/Mol)
 Warning -- explicit consideration of  18 degrees of freedom as
           vibrations may cause significant error
 Vibrational temperatures:     44.35    69.66   150.92   163.17   183.18
          (Kelvin)            217.43   225.17   244.32   341.64   343.76
                              413.31   524.12   541.30   573.82   715.13
                              756.83   765.11   821.30   903.53   916.35
                              991.32  1038.07  1090.47  1162.67  1289.09
                             1373.40  1436.10  1449.34  1513.03  1648.23
                             1704.62  1728.16  1793.37  1838.73  1856.64
                             1994.08  2012.21  2063.79  2129.21  2142.99
                             2161.84  2173.49  2178.43  2194.61  2283.48
                             2299.57  3276.26  4418.03  4434.36  4522.40
                             4566.99  4570.68  4582.07  4600.41

 Zero-point correction=                           0.141608 (Hartree/Particle)
 Thermal correction to Energy=                    0.154426
 Thermal correction to Enthalpy=                  0.155370
 Thermal correction to Gibbs Free Energy=         0.100920
 Sum of electronic and zero-point Energies=           -979.844889
 Sum of electronic and thermal Energies=              -979.832071
 Sum of electronic and thermal Enthalpies=            -979.831127
 Sum of electronic and thermal Free Energies=         -979.885577

                     E (Thermal)             CV                S
                      KCal/Mol        Cal/Mol-Kelvin    Cal/Mol-Kelvin
 Total                   96.904             44.887            114.600
 Electronic               0.000              0.000              0.000
 Translational            0.889              2.981             41.740
 Rotational               0.889              2.981             31.640
 Vibrational             95.126             38.926             41.220
 Vibration     1          0.594              1.984              5.776
 Vibration     2          0.595              1.978              4.881
 Vibration     3          0.605              1.945              3.361
 Vibration     4          0.607              1.938              3.210
 Vibration     5          0.611              1.926              2.986
 Vibration     6          0.619              1.901              2.658
 Vibration     7          0.620              1.895              2.592
 Vibration     8          0.625              1.880              2.438
 Vibration     9          0.656              1.783              1.822
 Vibration    10          0.657              1.781              1.811
 Vibration    11          0.684              1.697              1.490
 Vibration    12          0.738              1.546              1.104
 Vibration    13          0.747              1.521              1.054
 Vibration    14          0.765              1.473              0.967
 Vibration    15          0.853              1.257              0.666
 Vibration    16          0.881              1.192              0.596
 Vibration    17          0.887              1.180              0.583
 Vibration    18          0.927              1.094              0.503

 Optimization completed.
    -- Stationary point found.
 Normal termination of Gaussian 16 at Wed Dec  9 22:28:47 2020.

 ----------------------------------------------------------------------
 # B3LYP/6-311++G(d,p) empiricaldispersion=gd3bj scf=xqc pop=npa geom=c
 heck
 ----------------------------------------------------------------------

 ---------------------------------------
 CID_151197396_JID_3100_Energie_neutraal
 ---------------------------------------
 Structure from the checkpoint file:  "JID_3100.chk"
 Charge =  0 Multiplicity = 1

 SCF Done:  E(RB3LYP) =  -980.169324354     A.U. after   16 cycles
 Normal termination of Gaussian 16 at Wed Dec  9 22:30:16 2020.

 ----------------------------------------------------------------------
 # B3LYP/6-311++G(d,p) empiricaldispersion=gd3bj scf=xqc pop=npa geom=c
 heck
 ----------------------------------------------------------------------

 -------------------------------------
 CID_151197396_JID_3100_Energie_kation
 -------------------------------------
 Structure from the checkpoint file:  "JID_3100.chk"
 Charge =  1 Multiplicity = 2

 SCF Done:  E(UB3LYP) =  -979.885651342     A.U. after   22 cycles
 Normal termination of Gaussian 16 at Wed Dec  9 22:33:13 2020.
 Gaussian 16:  ES64L-G16RevA.03 25-Dec-2016

 ----------------------------------------------------------------------
 # B3LYP/6-311++G(d,p) empiricaldispersion=gd3bj scf=xqc pop=npa geom=c
 heck
 ----------------------------------------------------------------------

 ------------------------------------
 CID_151197396_JID_3100_Energie_anion
 ------------------------------------
 Structure from the checkpoint file:  "JID_3100.chk"
 Charge = -1 Multiplicity = 2

                         Standard orientation:
 ---------------------------------------------------------------------
 Center     Atomic      Atomic             Coordinates (Angstroms)
 Number     Number       Type             X           Y           Z
 ---------------------------------------------------------------------
      1          6           0        0.808222    2.668113   -0.000425
      2          8           0        1.417179    1.371771   -0.000516
      3          6           0        0.596525    0.305548   -0.000336
      4          7           0       -0.714811    0.469793   -0.000079
      5          6           0       -1.484135   -0.628202   -0.000011
      6          6           0       -0.906671   -1.903122   -0.000447
      7          7           0        0.416531   -2.065369   -0.000461
      8          6           0        1.188467   -0.984962   -0.000229
      9          7           0        2.568562   -1.249411    0.000126
     10          7           0        3.402593   -0.331449    0.000547
     11          7           0        4.311969    0.354552    0.000743
     12         16           0       -3.250632   -0.461530    0.000339
     13          6           0       -3.419850    1.353652    0.000360
     14          1           0        1.639637    3.372958   -0.000661
     15          1           0        0.188128    2.802643    0.890229
     16          1           0        0.187729    2.802573   -0.890813
     17          1           0       -1.517634   -2.801718   -0.000811
     18          1           0       -2.959895    1.783449    0.891612
     19          1           0       -2.960765    1.783453   -0.891341
     20          1           0       -4.493763    1.553987    0.000868
 ---------------------------------------------------------------------

 SCF Done:  E(UB3LYP) =  -980.173176967     A.U. after   33 cycles
 SCF Done:  E(UB3LYP) =  -980.173176967     a.u. after    1 cycles

 The electronic state is 2-A.
 Alpha  occ. eigenvalues --  -88.71779 -19.03040 -14.32020 -14.22182 -14.21694
 Alpha  occ. eigenvalues --  -14.14846 -14.12918 -10.11864 -10.10952 -10.08032
 Alpha  occ. eigenvalues --  -10.07283 -10.06561 -10.04620  -7.80415  -5.76825
 Alpha  occ. eigenvalues --   -5.76407  -5.75823  -0.98941  -0.95375  -0.83970
 Alpha  occ. eigenvalues --   -0.81026  -0.74505  -0.67196  -0.63031  -0.59133
 Alpha  occ. eigenvalues --   -0.55584  -0.48907  -0.48468  -0.43874  -0.39980
 Alpha  occ. eigenvalues --   -0.38531  -0.36817  -0.35240  -0.34478  -0.32842
 Alpha  occ. eigenvalues --   -0.31731  -0.31480  -0.30706  -0.28751  -0.28160
 Alpha  occ. eigenvalues --   -0.26226  -0.23555  -0.21619  -0.20160  -0.20044
 Alpha  occ. eigenvalues --   -0.17122  -0.14356  -0.14133  -0.12504  -0.09933
 Alpha  occ. eigenvalues --   -0.06046   0.05789
 Alpha virt. eigenvalues --    0.07706   0.09086   0.10778   0.11184   0.11644
 Alpha virt. eigenvalues --    0.11944   0.12275   0.13419   0.13910   0.14143
 Alpha virt. eigenvalues --    0.14974   0.15580   0.15729   0.16824   0.17078

  Beta  occ. eigenvalues --  -88.71770 -19.03059 -14.31746 -14.21893 -14.21868
  Beta  occ. eigenvalues --  -14.14380 -14.12206 -10.11957 -10.10952 -10.08034
  Beta  occ. eigenvalues --  -10.06990 -10.06215 -10.04738  -7.80407  -5.76825
  Beta  occ. eigenvalues --   -5.76412  -5.75779  -0.98517  -0.95376  -0.83689
  Beta  occ. eigenvalues --   -0.80407  -0.73472  -0.67003  -0.62823  -0.58922
  Beta  occ. eigenvalues --   -0.55160  -0.48785  -0.48022  -0.43691  -0.39821
  Beta  occ. eigenvalues --   -0.38213  -0.36011  -0.34807  -0.34199  -0.32773
  Beta  occ. eigenvalues --   -0.31577  -0.31384  -0.30185  -0.28588  -0.26934
  Beta  occ. eigenvalues --   -0.26060  -0.23540  -0.20949  -0.20027  -0.18087
  Beta  occ. eigenvalues --   -0.17019  -0.13732  -0.12515  -0.11835  -0.09234
  Beta  occ. eigenvalues --   -0.04847
  Beta virt. eigenvalues --    0.07682   0.09055   0.10878   0.11289   0.11680
  Beta virt. eigenvalues --    0.11933   0.12534   0.13403   0.13417   0.13905
  Beta virt. eigenvalues --    0.14213   0.14951   0.15622   0.16361   0.16823

 Mulliken charges and spin densities:
               1          2
     1  C   -0.242221   0.001549
     2  O   -0.146505  -0.000576
     3  C    0.529656  -0.041670
     4  N   -0.036962   0.198741
     5  C   -0.143629   0.226327
     6  C    0.017897  -0.073322
     7  N   -0.097725   0.328125
     8  C   -0.745309   0.177257
     9  N    0.005982  -0.063244
    10  N    0.505331   0.074174
    11  N   -0.674140   0.150116
    12  S   -0.511567   0.022001
    13  C   -0.539962   0.001978
    14  H    0.135377   0.000116
    15  H    0.160583  -0.000764
    16  H    0.160549  -0.000773
    17  H    0.171790   0.001989
    18  H    0.167125  -0.000636
    19  H    0.167099  -0.000602
    20  H    0.116630  -0.000785
 Sum of Mulliken charges =  -1.00000   1.00000

 Dipole moment (field-independent basis, Debye):
    X=             -3.9186    Y=              5.1259    Z=             -0.0002  Tot=              6.4521
 Quadrupole moment (field-independent basis, Debye-Ang):
   XX=           -129.6825   YY=            -96.3425   ZZ=            -88.7264
   XY=             -2.2167   XZ=             -0.0064   YZ=             -0.0025

 Summary of Natural Population Analysis:

                                       Natural Population
                Natural  -----------------------------------------------
    Atom  No    Charge         Core      Valence    Rydberg      Total
 -----------------------------------------------------------------------
      C    1   -0.10136      0.99961     2.09342    0.00833     3.10136
      O    2   -0.28113      0.99985     3.27232    0.00896     4.28113
      C    3    0.23026      0.99945     1.75481    0.01548     2.76974
      N    4   -0.22507      0.99960     2.71173    0.01374     3.72507
      C    5    0.06099      0.99949     1.92395    0.01557     2.93901
      C    6   -0.04039      0.99953     2.02734    0.01353     3.04039
      N    7   -0.12332      0.99966     2.60935    0.01430     3.62332
      C    8    0.16794      0.99945     1.81579    0.01682     2.83206
      N    9   -0.20066      0.99965     2.68536    0.01565     3.70066
      N   10    0.14723      0.99970     2.33758    0.01548     3.35277
      N   11   -0.02984      0.99982     2.51660    0.01343     3.52984
      S   12    0.09844      4.99955     2.87928    0.02273     7.90156
      C   13   -0.34768      0.99963     2.34227    0.00579     3.34768
      H   14    0.08447      0.00000     0.41477    0.00076     0.41553
      H   15    0.08670      0.00000     0.41207    0.00123     0.41330
      H   16    0.08670      0.00000     0.41207    0.00123     0.41330
      H   17    0.08299      0.00000     0.41550    0.00150     0.41701
      H   18    0.10400      0.00000     0.39456    0.00144     0.39600
      H   19    0.10398      0.00000     0.39458    0.00144     0.39602
      H   20    0.09577      0.00000     0.40319    0.00103     0.40423
 =======================================================================
   * Total *    0.00000     16.99498    33.81656    0.18846    51.00000

 Normal termination of Gaussian 16 at Wed Dec  9 22:37:30 2020.
