 Gaussian 16, Revision A.03,

 -----------------------------------------------------------
 # opt freq B3LYP/6-31G(d) empiricaldispersion=gd3bj scf=xqc
 -----------------------------------------------------------

 -------------------------------
 CID_114510349_JID_3805_neutraal
 -------------------------------
 Symbolic Z-matrix:
 Charge =  0 Multiplicity = 1

 SCF Done:  E(RB3LYP) =  -561.800228742     A.U. after   13 cycles
 SCF Done:  E(RB3LYP) =  -561.804240590     A.U. after   11 cycles
 SCF Done:  E(RB3LYP) =  -561.805241402     A.U. after   10 cycles
 SCF Done:  E(RB3LYP) =  -561.805903976     A.U. after   10 cycles
 SCF Done:  E(RB3LYP) =  -561.806214169     A.U. after   12 cycles
 SCF Done:  E(RB3LYP) =  -561.806704844     A.U. after   10 cycles
 SCF Done:  E(RB3LYP) =  -561.806809539     A.U. after   10 cycles
 SCF Done:  E(RB3LYP) =  -561.806821147     A.U. after    9 cycles
 SCF Done:  E(RB3LYP) =  -561.806827186     A.U. after    8 cycles
 SCF Done:  E(RB3LYP) =  -561.806827743     A.U. after    7 cycles
 SCF Done:  E(RB3LYP) =  -561.806828589     A.U. after    7 cycles
 SCF Done:  E(RB3LYP) =  -561.806828657     A.U. after    6 cycles
 Optimization completed.
    -- Stationary point found.
 Normal termination of Gaussian 16 at Mon Dec 14 13:10:04 2020.

 --------------------------------------------------------------------
 #N Geom=AllCheck Guess=TCheck SCRF=Check GenChk RB3LYP/6-31G(d) Freq
 --------------------------------------------------------------------

 Structure from the checkpoint file:  "JID_3805.chk"
 -------------------------------
 CID_114510349_JID_3805_neutraal
 -------------------------------
 Charge =  0 Multiplicity = 1

 SCF Done:  E(RB3LYP) =  -561.806828657     A.U. after    1 cycles

  Exact polarizability: 134.588  -1.207 122.588  -0.140   1.443 103.144
 Approx polarizability: 168.369  -3.601 165.813  -0.017  -0.119 164.291

                      1                      2                      3
                      A                      A                      A
 Frequencies --     55.0149                72.9396                91.0204
 Red. masses --      2.7874                 2.1416                 3.2348
 Frc consts  --      0.0050                 0.0067                 0.0158
 IR Inten    --      0.0461                 0.0481                 0.1391

                      4                      5                      6
                      A                      A                      A
 Frequencies --    124.5448               131.8186               179.0257
 Red. masses --      2.7704                 3.2305                 2.9101
 Frc consts  --      0.0253                 0.0331                 0.0550
 IR Inten    --      0.1484                 0.7098                 3.4024

                      7                      8                      9
                      A                      A                      A
 Frequencies --    222.9272               240.2552               283.1402
 Red. masses --      1.4371                 2.5233                 2.3941
 Frc consts  --      0.0421                 0.0858                 0.1131
 IR Inten    --      1.8307                 6.1124                 5.7865

                     10                     11                     12
                      A                      A                      A
 Frequencies --    292.0754               313.5742               331.4820
 Red. masses --      2.8302                 2.0602                 1.3598
 Frc consts  --      0.1422                 0.1194                 0.0880
 IR Inten    --      8.9592                21.6823                76.8651

                     13                     14                     15
                      A                      A                      A
 Frequencies --    336.7576               346.5430               408.3984
 Red. masses --      2.4447                 3.6232                 1.9688
 Frc consts  --      0.1634                 0.2564                 0.1935
 IR Inten    --     15.7748                 0.9244                 3.6321

                     16                     17                     18
                      A                      A                      A
 Frequencies --    418.7708               474.8159               482.2016
 Red. masses --      1.8365                 2.2914                 2.6357
 Frc consts  --      0.1898                 0.3044                 0.3611
 IR Inten    --      1.8557                 6.8567                 2.5308

                     19                     20                     21
                      A                      A                      A
 Frequencies --    523.9078               572.2562               681.5240
 Red. masses --      2.4991                 3.6347                 2.3693
 Frc consts  --      0.4042                 0.7013                 0.6484
 IR Inten    --     25.6628                11.4043                10.1584

                     22                     23                     24
                      A                      A                      A
 Frequencies --    737.4960               778.4864               789.8279
 Red. masses --      2.4928                 1.3377                 1.1331
 Frc consts  --      0.7988                 0.4777                 0.4165
 IR Inten    --      7.6680                 7.2710                 4.2645

                     25                     26                     27
                      A                      A                      A
 Frequencies --    818.9097               822.4769               841.3177
 Red. masses --      1.9520                 1.7953                 1.3475
 Frc consts  --      0.7713                 0.7155                 0.5619
 IR Inten    --      7.6545                56.2310                 9.9407

                     28                     29                     30
                      A                      A                      A
 Frequencies --    869.6230               891.5419               911.9321
 Red. masses --      2.2737                 1.9022                 2.2585
 Frc consts  --      1.0131                 0.8908                 1.1066
 IR Inten    --      4.2460                 1.0904                 8.6308

                     31                     32                     33
                      A                      A                      A
 Frequencies --    932.9122               943.9686               967.6784
 Red. masses --      2.4045                 2.5060                 2.0716
 Frc consts  --      1.2330                 1.3157                 1.1429
 IR Inten    --      2.4079                 3.1346                 8.1006

                     34                     35                     36
                      A                      A                      A
 Frequencies --    998.2560              1011.8713              1030.5462
 Red. masses --      2.0534                 1.8527                 2.2240
 Frc consts  --      1.2056                 1.1176                 1.3916
 IR Inten    --     20.3559                 8.8671                 7.7406

                     37                     38                     39
                      A                      A                      A
 Frequencies --   1056.9487              1059.3872              1068.3501
 Red. masses --      1.6223                 1.5995                 1.5989
 Frc consts  --      1.0678                 1.0577                 1.0752
 IR Inten    --      1.8674                 4.2179                 5.4619

                     40                     41                     42
                      A                      A                      A
 Frequencies --   1083.7571              1084.7157              1095.7733
 Red. masses --      1.7874                 1.4562                 1.9762
 Frc consts  --      1.2369                 1.0095                 1.3981
 IR Inten    --     36.9179                10.2623                 0.7249

                     43                     44                     45
                      A                      A                      A
 Frequencies --   1131.1967              1147.1646              1162.5608
 Red. masses --      1.8950                 1.4196                 1.2760
 Frc consts  --      1.4287                 1.1007                 1.0161
 IR Inten    --      1.8764                 4.5842                 6.7654

                     46                     47                     48
                      A                      A                      A
 Frequencies --   1174.0448              1193.1985              1201.1972
 Red. masses --      3.0662                 2.0163                 2.0852
 Frc consts  --      2.4901                 1.6913                 1.7726
 IR Inten    --     17.7992                15.0683                 9.7409

                     49                     50                     51
                      A                      A                      A
 Frequencies --   1214.3425              1225.4481              1235.3823
 Red. masses --      1.4193                 1.2635                 1.5368
 Frc consts  --      1.2331                 1.1179                 1.3819
 IR Inten    --      0.9201                11.6665                 2.6689

                     52                     53                     54
                      A                      A                      A
 Frequencies --   1251.5075              1292.9541              1306.8840
 Red. masses --      1.5105                 1.2561                 1.2648
 Frc consts  --      1.3939                 1.2372                 1.2728
 IR Inten    --      3.8856                 2.4091                 5.8658

                     55                     56                     57
                      A                      A                      A
 Frequencies --   1315.2768              1328.2528              1337.2958
 Red. masses --      1.2528                 1.3851                 1.2735
 Frc consts  --      1.2769                 1.4398                 1.3419
 IR Inten    --      3.4293                27.4133                 5.5615

                     58                     59                     60
                      A                      A                      A
 Frequencies --   1367.7686              1371.2792              1404.2815
 Red. masses --      1.3228                 1.3508                 1.6134
 Frc consts  --      1.4581                 1.4965                 1.8746
 IR Inten    --      7.9547                21.6168                 6.6476

                     61                     62                     63
                      A                      A                      A
 Frequencies --   1407.3239              1413.6656              1438.2345
 Red. masses --      1.6386                 1.5279                 1.6640
 Frc consts  --      1.9121                 1.7991                 2.0280
 IR Inten    --      4.9778                14.4069                 6.3463

                     64                     65                     66
                      A                      A                      A
 Frequencies --   1441.7371              1450.4009              1495.2043
 Red. masses --      1.2419                 1.4465                 1.0899
 Frc consts  --      1.5209                 1.7929                 1.4356
 IR Inten    --      3.0024                 3.5930                 1.4809

                     67                     68                     69
                      A                      A                      A
 Frequencies --   1498.1367              1505.3109              1513.1078
 Red. masses --      1.3001                 1.1008                 1.0891
 Frc consts  --      1.7192                 1.4696                 1.4691
 IR Inten    --      2.5244                 3.6771                 3.7067

                     70                     71                     72
                      A                      A                      A
 Frequencies --   1520.8687              1527.3771              1531.9174
 Red. masses --      1.0754                 1.0828                 1.0513
 Frc consts  --      1.4656                 1.4883                 1.4536
 IR Inten    --      1.0904                 0.5201                 3.0049

                     73                     74                     75
                      A                      A                      A
 Frequencies --   1537.5875              1539.0352              1545.6796
 Red. masses --      1.3411                 1.0801                 1.0976
 Frc consts  --      1.8681                 1.5073                 1.5450
 IR Inten    --      1.6964                 5.1348                 6.4941

                     76                     77                     78
                      A                      A                      A
 Frequencies --   2949.0791              2990.1745              3037.7165
 Red. masses --      1.0725                 1.0691                 1.0786
 Frc consts  --      5.4959                 5.6317                 5.8644
 IR Inten    --     75.3825                56.8155                12.0918

                     79                     80                     81
                      A                      A                      A
 Frequencies --   3040.8916              3046.2705              3054.3844
 Red. masses --      1.0583                 1.0431                 1.0626
 Frc consts  --      5.7658                 5.7031                 5.8408
 IR Inten    --     14.7030                60.3048                22.2629

                     82                     83                     84
                      A                      A                      A
 Frequencies --   3062.4207              3073.4077              3077.3971
 Red. masses --      1.0644                 1.0930                 1.0882
 Frc consts  --      5.8814                 6.0826                 6.0720
 IR Inten    --     14.9549                37.6033                41.5156

                     85                     86                     87
                      A                      A                      A
 Frequencies --   3082.6923              3087.2845              3098.9644
 Red. masses --      1.1011                 1.1011                 1.1010
 Frc consts  --      6.1651                 6.1835                 6.2299
 IR Inten    --     17.7468                30.5615                23.1215

                     88                     89                     90
                      A                      A                      A
 Frequencies --   3108.8859              3122.1950              3142.0404
 Red. masses --      1.1012                 1.1010                 1.0678
 Frc consts  --      6.2710                 6.3236                 6.2111
 IR Inten    --     58.6454                53.5095                25.2975

                     91                     92                     93
                      A                      A                      A
 Frequencies --   3142.3069              3147.7456              3215.7867
 Red. masses --      1.0629                 1.0663                 1.1194
 Frc consts  --      6.1837                 6.2246                 6.8202
 IR Inten    --     24.6606                 6.5560                 0.2550

                     94                     95                     96
                      A                      A                      A
 Frequencies --   3230.1656              3498.3746              3742.3032
 Red. masses --      1.1159                 1.0745                 1.0658
 Frc consts  --      6.8602                 7.7483                 8.7943
 IR Inten    --     28.8144                 2.6846                 4.6749

 - Thermochemistry -
 -------------------
 Temperature   298.150 Kelvin.  Pressure   1.00000 Atm.
 Atom     1 has atomic number  6 and mass  12.00000

 Molecular mass:   183.16231 amu.
 Principal axes and moments of inertia in atomic units:
                           1         2         3
     Eigenvalues --  1645.295743146.993003977.79390
           X            0.99994  -0.01026  -0.00349
           Y            0.01027   0.99994   0.00331
           Z            0.00345  -0.00335   0.99999
 This molecule is an asymmetric top.
 Rotational symmetry number  1.
 Warning -- assumption of classical behavior for rotation
           may cause significant error
 Rotational temperatures (Kelvin)      0.05264     0.02752     0.02177
 Rotational constants (GHZ):           1.09691     0.57348     0.45370
 Zero-point vibrational energy     821564.6 (Joules/Mol)
                                  196.35866 (Kcal/Mol)
 Warning -- explicit consideration of  20 degrees of freedom as
           vibrations may cause significant error
 Vibrational temperatures:     79.15   104.94   130.96   179.19   189.66
          (Kelvin)            257.58   320.74   345.67   407.38   420.23
                              451.16   476.93   484.52   498.60   587.59
                              602.52   683.15   693.78   753.79   823.35
                              980.56  1061.09  1120.07  1136.39  1178.23
                             1183.36  1210.47  1251.19  1282.73  1312.07
                             1342.25  1358.16  1392.27  1436.27  1455.86
                             1482.73  1520.71  1524.22  1537.12  1559.28
                             1560.66  1576.57  1627.54  1650.51  1672.67
                             1689.19  1716.75  1728.25  1747.17  1763.15
                             1777.44  1800.64  1860.27  1880.31  1892.39
                             1911.06  1924.07  1967.91  1972.96  2020.45
                             2024.83  2033.95  2069.30  2074.34  2086.80
                             2151.27  2155.48  2165.81  2177.02  2188.19
                             2197.56  2204.09  2212.25  2214.33  2223.89
                             4243.07  4302.19  4370.60  4375.16  4382.90
                             4394.58  4406.14  4421.95  4427.69  4435.31
                             4441.91  4458.72  4472.99  4492.14  4520.70
                             4521.08  4528.90  4626.80  4647.49  5033.38
                             5384.34

 Zero-point correction=                           0.312917 (Hartree/Particle)
 Thermal correction to Energy=                    0.326454
 Thermal correction to Enthalpy=                  0.327398
 Thermal correction to Gibbs Free Energy=         0.273479
 Sum of electronic and zero-point Energies=           -561.493911
 Sum of electronic and thermal Energies=              -561.480375
 Sum of electronic and thermal Enthalpies=            -561.479431
 Sum of electronic and thermal Free Energies=         -561.533349

                     E (Thermal)             CV                S
                      KCal/Mol        Cal/Mol-Kelvin    Cal/Mol-Kelvin
 Total                  204.853             53.641            113.481
 Electronic               0.000              0.000              0.000
 Translational            0.889              2.981             41.522
 Rotational               0.889              2.981             31.399
 Vibrational            203.075             47.680             40.560
 Vibration     1          0.596              1.976              4.628
 Vibration     2          0.599              1.967              4.072
 Vibration     3          0.602              1.956              3.638
 Vibration     4          0.610              1.928              3.029
 Vibration     5          0.612              1.922              2.919
 Vibration     6          0.629              1.868              2.339
 Vibration     7          0.649              1.806              1.935
 Vibration     8          0.657              1.779              1.801
 Vibration     9          0.682              1.705              1.515
 Vibration    10          0.687              1.688              1.462
 Vibration    11          0.701              1.648              1.343
 Vibration    12          0.714              1.613              1.253
 Vibration    13          0.717              1.602              1.227
 Vibration    14          0.725              1.582              1.182
 Vibration    15          0.773              1.452              0.932
 Vibration    16          0.782              1.429              0.896
 Vibration    17          0.832              1.306              0.724
 Vibration    18          0.838              1.290              0.704
 Vibration    19          0.879              1.197              0.601
 Vibration    20          0.928              1.091              0.500

                           ! Non-Optimized Parameters !
 Normal termination of Gaussian 16 at Mon Dec 14 13:20:02 2020.

 ----------------------------------------------------------------------
 # B3LYP/6-311++G(d,p) empiricaldispersion=gd3bj scf=xqc pop=npa geom=c
 heck
 ----------------------------------------------------------------------

 ---------------------------------------
 CID_114510349_JID_3805_Energie_neutraal
 ---------------------------------------
 Structure from the checkpoint file:  "JID_3805.chk"
 Charge =  0 Multiplicity = 1

 SCF Done:  E(RB3LYP) =  -561.974607330     A.U. after   14 cycles
 Normal termination of Gaussian 16 at Mon Dec 14 13:23:59 2020.

 ----------------------------------------------------------------------
 # B3LYP/6-311++G(d,p) empiricaldispersion=gd3bj scf=xqc pop=npa geom=c
 heck
 ----------------------------------------------------------------------

 -------------------------------------
 CID_114510349_JID_3805_Energie_kation
 -------------------------------------
 Structure from the checkpoint file:  "JID_3805.chk"
 Charge =  1 Multiplicity = 2

 SCF Done:  E(UB3LYP) =  -561.674712297     A.U. after   19 cycles
 Normal termination of Gaussian 16 at Mon Dec 14 13:31:21 2020.
 Gaussian 16:  ES64L-G16RevA.03 25-Dec-2016

 ----------------------------------------------------------------------
 # B3LYP/6-311++G(d,p) empiricaldispersion=gd3bj scf=xqc pop=npa geom=c
 heck
 ----------------------------------------------------------------------

 ------------------------------------
 CID_114510349_JID_3805_Energie_anion
 ------------------------------------
 Structure from the checkpoint file:  "JID_3805.chk"
 Charge = -1 Multiplicity = 2

                         Standard orientation:
 ---------------------------------------------------------------------
 Center     Atomic      Atomic             Coordinates (Angstroms)
 Number     Number       Type             X           Y           Z
 ---------------------------------------------------------------------
      1          6           0       -1.082345    3.095388   -0.247349
      2          6           0       -1.456027    1.664874   -0.648505
      3          6           0       -1.313552    0.635976    0.501367
      4          6           0       -2.538574   -0.288909    0.577369
      5          7           0       -2.586746   -1.133181   -0.619368
      6          6           0       -1.447562   -2.049570   -0.654496
      7          6           0       -0.150383   -1.242564   -0.737623
      8          6           0       -0.029846   -0.228975    0.417220
      9          6           0        1.238061    0.641942    0.302755
     10          6           0        2.542889   -0.120063    0.414334
     11          6           0        3.205577   -0.718382   -0.805386
     12          6           0        3.812982    0.485287   -0.129640
     13          8           0        0.009118   -0.935307    1.674457
     14          1           0       -1.705270    3.441889    0.586361
     15          1           0       -1.226203    3.791317   -1.082060
     16          1           0       -0.037464    3.169908    0.072107
     17          1           0       -2.492917    1.651266   -1.002238
     18          1           0       -0.860567    1.360402   -1.516228
     19          1           0       -1.252393    1.177135    1.455265
     20          1           0       -3.449643    0.319882    0.610127
     21          1           0       -2.488946   -0.876683    1.508822
     22          1           0       -3.453000   -1.666946   -0.625882
     23          1           0       -1.539966   -2.694386   -1.535932
     24          1           0       -1.404060   -2.704836    0.235402
     25          1           0       -0.120229   -0.710399   -1.694995
     26          1           0        0.713288   -1.918604   -0.722557
     27          1           0        1.227238    1.188808   -0.647850
     28          1           0        1.197636    1.391035    1.103943
     29          1           0        2.660512   -0.675805    1.343361
     30          1           0        3.711058   -1.675606   -0.709700
     31          1           0        2.720344   -0.568937   -1.766227
     32          1           0        3.736860    1.444747   -0.635205
     33          1           0        4.732519    0.352709    0.433308
     34          1           0        0.678159   -1.632200    1.589838
 ---------------------------------------------------------------------

 SCF Done:  E(UB3LYP) =  -561.958705883     A.U. after   29 cycles

 The electronic state is 2-A.
 Alpha  occ. eigenvalues --  -19.01511 -14.19083 -10.12412 -10.08268 -10.08213
 Alpha  occ. eigenvalues --  -10.07880 -10.07297 -10.07043 -10.06896 -10.06752
 Alpha  occ. eigenvalues --  -10.06502 -10.06454 -10.06003  -0.92027  -0.80521
 Alpha  occ. eigenvalues --   -0.76290  -0.70448  -0.66613  -0.63242  -0.61182
 Alpha  occ. eigenvalues --   -0.53164  -0.52091  -0.51017  -0.50044  -0.46715
 Alpha  occ. eigenvalues --   -0.43276  -0.41230  -0.39836  -0.37855  -0.37493
 Alpha  occ. eigenvalues --   -0.35411  -0.34963  -0.33544  -0.32752  -0.31416
 Alpha  occ. eigenvalues --   -0.30826  -0.30151  -0.28252  -0.26992  -0.26682
 Alpha  occ. eigenvalues --   -0.25591  -0.25106  -0.24383  -0.24154  -0.22872
 Alpha  occ. eigenvalues --   -0.22104  -0.20627  -0.19345  -0.18674  -0.16823
 Alpha  occ. eigenvalues --   -0.12256   0.04516
 Alpha virt. eigenvalues --    0.06382   0.06641   0.07678   0.08225   0.08842
 Alpha virt. eigenvalues --    0.09258   0.09523   0.10032   0.10884   0.11161
 Alpha virt. eigenvalues --    0.12101   0.12342   0.12737   0.12799   0.13509

  Beta  occ. eigenvalues --  -19.01491 -14.19064 -10.12410 -10.08244 -10.08200
  Beta  occ. eigenvalues --  -10.07865 -10.07281 -10.07015 -10.06892 -10.06746
  Beta  occ. eigenvalues --  -10.06494 -10.06440 -10.05989  -0.91982  -0.80490
  Beta  occ. eigenvalues --   -0.76263  -0.70427  -0.66586  -0.63212  -0.61157
  Beta  occ. eigenvalues --   -0.53125  -0.52051  -0.50964  -0.49981  -0.46664
  Beta  occ. eigenvalues --   -0.43235  -0.41175  -0.39783  -0.37816  -0.37466
  Beta  occ. eigenvalues --   -0.35384  -0.34934  -0.33521  -0.32714  -0.31392
  Beta  occ. eigenvalues --   -0.30803  -0.30125  -0.28224  -0.26964  -0.26653
  Beta  occ. eigenvalues --   -0.25560  -0.25075  -0.24357  -0.24130  -0.22853
  Beta  occ. eigenvalues --   -0.22074  -0.20601  -0.19321  -0.18646  -0.16799
  Beta  occ. eigenvalues --   -0.12218
  Beta virt. eigenvalues --    0.06530   0.07360   0.07381   0.08144   0.08828
  Beta virt. eigenvalues --    0.09270   0.09560   0.09989   0.10380   0.11358
  Beta virt. eigenvalues --    0.11537   0.12327   0.12564   0.13005   0.13079

 Mulliken charges and spin densities:
               1          2
     1  C    0.120038  -0.709366
     2  C   -0.961362   0.665509
     3  C    0.180935   0.558948
     4  C    0.801274  -1.393972
     5  N   -0.406946   0.213946
     6  C    0.906700  -1.369969
     7  C   -0.881428   0.491189
     8  C    0.213552  -0.283631
     9  C    1.285538  -2.170778
    10  C   -1.847297   2.141951
    11  C    1.083689  -1.531813
    12  C    0.514678  -1.021634
    13  O   -0.230645   0.076042
    14  H   -0.005091   0.133617
    15  H   -0.178690   0.306865
    16  H    0.028114   0.113605
    17  H   -0.031462   0.200897
    18  H    0.031003   0.115015
    19  H    0.171982   0.054827
    20  H   -0.175690   0.350223
    21  H    0.003943   0.144408
    22  H   -0.053329   0.315448
    23  H   -0.596969   0.770959
    24  H   -0.163591   0.311681
    25  H    0.156292   0.015793
    26  H   -0.007021   0.180612
    27  H    0.115981   0.042425
    28  H    0.242477  -0.088823
    29  H   -0.592963   0.807572
    30  H   -0.467018   0.627870
    31  H   -0.147258   0.296023
    32  H   -0.073587   0.189887
    33  H   -0.139259   0.293182
    34  H    0.103407   0.151493
 Sum of Mulliken charges =  -1.00000   1.00000

 Dipole moment (field-independent basis, Debye):
    X=             -1.1788    Y=              4.2642    Z=              0.6965  Tot=              4.4786
 Quadrupole moment (field-independent basis, Debye-Ang):
   XX=           -152.8993   YY=           -133.7768   ZZ=           -118.7156
   XY=              5.3940   XZ=             -3.0994   YZ=              0.0826

 Summary of Natural Population Analysis:

                                       Natural Population
                Natural  -----------------------------------------------
    Atom  No    Charge         Core      Valence    Rydberg      Total
 -----------------------------------------------------------------------
      C    1   -0.28193      0.99966     2.27828    0.00399     3.28193
      C    2   -0.19252      0.99961     2.18372    0.00918     3.19252
      C    3   -0.11935      0.99953     2.10619    0.01362     3.11935
      C    4   -0.08367      0.99960     2.07202    0.01206     3.08367
      N    5   -0.34351      0.99974     2.83194    0.01183     3.84351
      C    6   -0.08574      0.99962     2.07406    0.01206     3.08574
      C    7   -0.21025      0.99956     2.19964    0.01104     3.21025
      C    8    0.14533      0.99948     1.83886    0.01633     2.85467
      C    9   -0.20041      0.99956     2.19085    0.01000     3.20041
      C   10   -0.11972      0.99959     2.10752    0.01261     3.11972
      C   11   -0.19843      0.99961     2.18906    0.00976     3.19843
      C   12   -0.19589      0.99962     2.18860    0.00767     3.19589
      O   13   -0.38247      0.99989     3.37589    0.00669     4.38247
      H   14    0.09365      0.00000     0.40530    0.00105     0.40635
      H   15    0.09630      0.00000     0.40281    0.00088     0.40370
      H   16    0.09606      0.00000     0.40292    0.00102     0.40394
      H   17    0.10017      0.00000     0.39848    0.00135     0.39983
      H   18    0.09710      0.00000     0.40145    0.00145     0.40290
      H   19    0.10143      0.00000     0.39691    0.00166     0.39857
      H   20    0.09203      0.00000     0.40684    0.00113     0.40797
      H   21    0.08924      0.00000     0.40918    0.00157     0.41076
      H   22    0.17516      0.00000     0.32180    0.00305     0.32484
      H   23    0.09559      0.00000     0.40300    0.00141     0.40441
      H   24    0.08129      0.00000     0.41668    0.00202     0.41871
      H   25    0.10185      0.00000     0.39642    0.00172     0.39815
      H   26    0.10511      0.00000     0.39314    0.00175     0.39489
      H   27    0.10061      0.00000     0.39788    0.00151     0.39939
      H   28    0.10172      0.00000     0.39700    0.00128     0.39828
      H   29    0.10376      0.00000     0.39460    0.00164     0.39624
      H   30    0.10607      0.00000     0.39182    0.00210     0.39393
      H   31    0.10102      0.00000     0.39783    0.00115     0.39898
      H   32    0.09831      0.00000     0.40079    0.00090     0.40169
      H   33    0.10204      0.00000     0.39694    0.00102     0.39796
      H   34    0.23002      0.00000     0.26618    0.00380     0.26998
 =======================================================================
   * Total *    0.00000     12.99507    37.83462    0.17031    51.00000

 Normal termination of Gaussian 16 at Mon Dec 14 13:42:17 2020.
