 Gaussian 16, Revision A.03,

 -----------------------------------------------------------
 # opt freq B3LYP/6-31G(d) empiricaldispersion=gd3bj scf=xqc
 -----------------------------------------------------------

 ------------------------------
 CID_65245044_JID_1789_neutraal
 ------------------------------
 Symbolic Z-matrix:
 Charge =  0 Multiplicity = 1

 SCF Done:  E(RB3LYP) =  -858.097682096     A.U. after   14 cycles
 SCF Done:  E(RB3LYP) =  -858.107185621     A.U. after   12 cycles
 SCF Done:  E(RB3LYP) =  -858.107823829     A.U. after   12 cycles
 SCF Done:  E(RB3LYP) =  -858.107440655     A.U. after   12 cycles
 SCF Done:  E(RB3LYP) =  -858.108266773     A.U. after   12 cycles
 SCF Done:  E(RB3LYP) =  -858.108458488     A.U. after   11 cycles
 SCF Done:  E(RB3LYP) =  -858.108558950     A.U. after   11 cycles
 SCF Done:  E(RB3LYP) =  -858.108622889     A.U. after   11 cycles
 SCF Done:  E(RB3LYP) =  -858.108643768     A.U. after   11 cycles
 SCF Done:  E(RB3LYP) =  -858.108650533     A.U. after   10 cycles
 SCF Done:  E(RB3LYP) =  -858.108651633     A.U. after    8 cycles
 SCF Done:  E(RB3LYP) =  -858.108652880     A.U. after    9 cycles
 SCF Done:  E(RB3LYP) =  -858.108653126     A.U. after    8 cycles
 SCF Done:  E(RB3LYP) =  -858.108653930     A.U. after    8 cycles
 SCF Done:  E(RB3LYP) =  -858.108654391     A.U. after    8 cycles
 SCF Done:  E(RB3LYP) =  -858.108654525     A.U. after    7 cycles
 Optimization completed.
    -- Stationary point found.
 Normal termination of Gaussian 16 at Tue Dec  8 21:11:07 2020.

 --------------------------------------------------------------------
 #N Geom=AllCheck Guess=TCheck SCRF=Check GenChk RB3LYP/6-31G(d) Freq
 --------------------------------------------------------------------

 Structure from the checkpoint file:  "JID_1789.chk"
 ------------------------------
 CID_65245044_JID_1789_neutraal
 ------------------------------
 Charge =  0 Multiplicity = 1

 SCF Done:  E(RB3LYP) =  -858.108654525     A.U. after    1 cycles

  Exact polarizability: 117.478   6.231  95.476  -3.034   0.068  95.797
 Approx polarizability: 148.024  10.926 143.570  -0.800   7.399 150.510

                      1                      2                      3
                      A                      A                      A
 Frequencies --     32.4875                50.8859                67.6238
 Red. masses --      4.4539                 3.3857                 4.0015
 Frc consts  --      0.0028                 0.0052                 0.0108
 IR Inten    --      3.0374                 2.5475                 1.1099

                      4                      5                      6
                      A                      A                      A
 Frequencies --     81.4918               115.8581               138.9080
 Red. masses --      2.2773                 2.5250                 2.9100
 Frc consts  --      0.0089                 0.0200                 0.0331
 IR Inten    --      2.9815                 1.4495                 3.4285

                      7                      8                      9
                      A                      A                      A
 Frequencies --    163.9424               171.2145               215.7805
 Red. masses --      1.7492                 2.9604                 3.0287
 Frc consts  --      0.0277                 0.0511                 0.0831
 IR Inten    --      6.5240                 4.2776                 2.6656

                     10                     11                     12
                      A                      A                      A
 Frequencies --    244.9907               285.0520               364.5098
 Red. masses --      1.4171                 2.3225                 2.7806
 Frc consts  --      0.0501                 0.1112                 0.2177
 IR Inten    --     30.9747                 6.9890                 6.6183

                     13                     14                     15
                      A                      A                      A
 Frequencies --    391.0903               400.0127               461.1825
 Red. masses --      2.9661                 2.3896                 2.4117
 Frc consts  --      0.2673                 0.2253                 0.3022
 IR Inten    --     13.6312                 6.7266                10.7687

                     16                     17                     18
                      A                      A                      A
 Frequencies --    558.6966               600.5721               655.4109
 Red. masses --      4.3281                 3.0597                 4.4674
 Frc consts  --      0.7960                 0.6502                 1.1307
 IR Inten    --     11.1353                 4.4129                 2.6931

                     19                     20                     21
                      A                      A                      A
 Frequencies --    712.4464               723.7645               799.5287
 Red. masses --      3.0033                 4.9205                 2.6132
 Frc consts  --      0.8982                 1.5186                 0.9842
 IR Inten    --      2.9114                 0.7851                 2.8735

                     22                     23                     24
                      A                      A                      A
 Frequencies --    878.8140               881.1530               902.9993
 Red. masses --      1.3269                 2.5961                 1.5136
 Frc consts  --      0.6038                 1.1876                 0.7272
 IR Inten    --    152.6340                 3.2427                 2.9759

                     25                     26                     27
                      A                      A                      A
 Frequencies --    929.6604               958.4592               966.1243
 Red. masses --      2.8869                 1.9000                 1.5896
 Frc consts  --      1.4701                 1.0284                 0.8742
 IR Inten    --      1.5464                 1.0395                 9.2242

                     28                     29                     30
                      A                      A                      A
 Frequencies --    989.8974               995.8870              1032.8524
 Red. masses --      1.4807                 1.8184                 1.6903
 Frc consts  --      0.8549                 1.0626                 1.0624
 IR Inten    --      4.4371                 6.2921                15.9408

                     31                     32                     33
                      A                      A                      A
 Frequencies --   1067.5015              1113.4560              1153.8163
 Red. masses --      2.2568                 2.2705                 1.1397
 Frc consts  --      1.5153                 1.6585                 0.8940
 IR Inten    --      7.2560                 9.8302                 2.0840

                     34                     35                     36
                      A                      A                      A
 Frequencies --   1162.6300              1195.5453              1200.3798
 Red. masses --      1.9018                 1.2570                 2.1474
 Frc consts  --      1.5146                 1.0586                 1.8231
 IR Inten    --      3.4834                 3.5059                20.2005

                     37                     38                     39
                      A                      A                      A
 Frequencies --   1212.8831              1231.5585              1239.6747
 Red. masses --      1.3165                 1.4408                 1.2409
 Frc consts  --      1.1410                 1.2876                 1.1236
 IR Inten    --      7.2984                 7.9342                 5.1331

                     40                     41                     42
                      A                      A                      A
 Frequencies --   1306.2937              1332.9012              1338.6878
 Red. masses --      1.4070                 1.2430                 1.3738
 Frc consts  --      1.4146                 1.3011                 1.4506
 IR Inten    --      0.1722                18.1258                 2.2778

                     43                     44                     45
                      A                      A                      A
 Frequencies --   1354.8891              1368.8313              1394.6162
 Red. masses --      1.6735                 1.6070                 1.1560
 Frc consts  --      1.8100                 1.7740                 1.3247
 IR Inten    --      0.3696                27.9345                 4.1177

                     46                     47                     48
                      A                      A                      A
 Frequencies --   1413.9887              1473.1806              1485.2367
 Red. masses --      1.5808                 2.6734                 1.1338
 Frc consts  --      1.8622                 3.4184                 1.4735
 IR Inten    --      4.2413               198.1888                46.6323

                     49                     50                     51
                      A                      A                      A
 Frequencies --   1492.2816              1507.6223              1515.5047
 Red. masses --      1.0625                 1.3235                 1.0574
 Frc consts  --      1.3941                 1.7724                 1.4309
 IR Inten    --     16.0049                72.3269                 4.7070

                     52                     53                     54
                      A                      A                      A
 Frequencies --   1523.4300              1540.5783              1694.0585
 Red. masses --      1.0740                 1.1161                 1.0936
 Frc consts  --      1.4686                 1.5608                 1.8491
 IR Inten    --      2.1592                 6.4233                23.9757

                     55                     56                     57
                      A                      A                      A
 Frequencies --   1759.0758              2999.2760              3055.7302
 Red. masses --     10.2756                 1.0856                 1.0638
 Frc consts  --     18.7338                 5.7539                 5.8523
 IR Inten    --    281.2813                58.9847                12.9803

                     58                     59                     60
                      A                      A                      A
 Frequencies --   3058.8110              3067.2542              3074.8058
 Red. masses --      1.0553                 1.0572                 1.0310
 Frc consts  --      5.8173                 5.8603                 5.7430
 IR Inten    --     46.1745                18.1426                14.0588

                     61                     62                     63
                      A                      A                      A
 Frequencies --   3081.8659              3114.0293              3115.6202
 Red. masses --      1.0574                 1.1086                 1.1086
 Frc consts  --      5.9173                 6.3339                 6.3406
 IR Inten    --     24.4729                 2.4619                41.3890

                     64                     65                     66
                      A                      A                      A
 Frequencies --   3117.6587              3136.8588              3158.5123
 Red. masses --      1.1055                 1.1062                 1.1055
 Frc consts  --      6.3307                 6.4134                 6.4978
 IR Inten    --     18.8532                 9.9517                15.7733

                     67                     68                     69
                      A                      A                      A
 Frequencies --   3166.3339              3459.7587              3543.6669
 Red. masses --      1.1063                 1.0497                 1.0924
 Frc consts  --      6.5347                 7.4028                 8.0825
 IR Inten    --      6.0052                 0.7374                 0.0338

 - Thermochemistry -
 -------------------
 Temperature   298.150 Kelvin.  Pressure   1.00000 Atm.
 Atom     1 has atomic number  6 and mass  12.00000

 Molecular mass:   174.08268 amu.
 Principal axes and moments of inertia in atomic units:
                           1         2         3
     Eigenvalues --  1171.919463158.225953505.56198
           X            0.99973   0.02324  -0.00049
           Y           -0.02321   0.99630  -0.08273
           Z           -0.00144   0.08272   0.99657
 This molecule is an asymmetric top.
 Rotational symmetry number  1.
 Warning -- assumption of classical behavior for rotation
           may cause significant error
 Rotational temperatures (Kelvin)      0.07391     0.02742     0.02471
 Rotational constants (GHZ):           1.53999     0.57144     0.51482
 Zero-point vibrational energy     562245.5 (Joules/Mol)
                                  134.37989 (Kcal/Mol)
 Warning -- explicit consideration of  17 degrees of freedom as
           vibrations may cause significant error
 Vibrational temperatures:     46.74    73.21    97.30   117.25   166.69
          (Kelvin)            199.86   235.88   246.34   310.46   352.49
                              410.13   524.45   562.69   575.53   663.54
                              803.84   864.09   942.99  1025.05  1041.34
                             1150.34  1264.42  1267.78  1299.21  1337.57
                             1379.01  1390.04  1424.24  1432.86  1486.04
                             1535.90  1602.01  1660.08  1672.77  1720.12
                             1727.08  1745.07  1771.94  1783.62  1879.47
                             1917.75  1926.07  1949.38  1969.44  2006.54
                             2034.41  2119.58  2136.92  2147.06  2169.13
                             2180.47  2191.88  2216.55  2437.37  2530.92
                             4315.29  4396.51  4400.95  4413.09  4423.96
                             4434.12  4480.39  4482.68  4485.62  4513.24
                             4544.39  4555.65  4977.82  5098.55

 Zero-point correction=                           0.214148 (Hartree/Particle)
 Thermal correction to Energy=                    0.226993
 Thermal correction to Enthalpy=                  0.227937
 Thermal correction to Gibbs Free Energy=         0.173449
 Sum of electronic and zero-point Energies=           -857.894507
 Sum of electronic and thermal Energies=              -857.881662
 Sum of electronic and thermal Enthalpies=            -857.880718
 Sum of electronic and thermal Free Energies=         -857.935205

                     E (Thermal)             CV                S
                      KCal/Mol        Cal/Mol-Kelvin    Cal/Mol-Kelvin
 Total                  142.440             45.337            114.679
 Electronic               0.000              0.000              0.000
 Translational            0.889              2.981             41.370
 Rotational               0.889              2.981             30.940
 Vibrational            140.663             39.375             42.368
 Vibration     1          0.594              1.983              5.671
 Vibration     2          0.595              1.977              4.783
 Vibration     3          0.598              1.970              4.221
 Vibration     4          0.600              1.962              3.855
 Vibration     5          0.608              1.936              3.168
 Vibration     6          0.615              1.914              2.819
 Vibration     7          0.623              1.887              2.504
 Vibration     8          0.626              1.878              2.422
 Vibration     9          0.645              1.817              1.994
 Vibration    10          0.660              1.771              1.766
 Vibration    11          0.683              1.701              1.503
 Vibration    12          0.738              1.545              1.103
 Vibration    13          0.759              1.489              0.996
 Vibration    14          0.766              1.470              0.963
 Vibration    15          0.819              1.336              0.763
 Vibration    16          0.914              1.121              0.526
 Vibration    17          0.959              1.031              0.449

 Optimization completed.
    -- Stationary point found.
 Normal termination of Gaussian 16 at Tue Dec  8 21:17:14 2020.

 ----------------------------------------------------------------------
 # B3LYP/6-311++G(d,p) empiricaldispersion=gd3bj scf=xqc pop=npa geom=c
 heck
 ----------------------------------------------------------------------

 --------------------------------------
 CID_65245044_JID_1789_Energie_neutraal
 --------------------------------------
 Structure from the checkpoint file:  "JID_1789.chk"
 Charge =  0 Multiplicity = 1

 SCF Done:  E(RB3LYP) =  -858.276399031     A.U. after   14 cycles
 Normal termination of Gaussian 16 at Tue Dec  8 21:21:26 2020.

 ----------------------------------------------------------------------
 # B3LYP/6-311++G(d,p) empiricaldispersion=gd3bj scf=xqc pop=npa geom=c
 heck
 ----------------------------------------------------------------------

 ------------------------------------
 CID_65245044_JID_1789_Energie_kation
 ------------------------------------
 Structure from the checkpoint file:  "JID_1789.chk"
 Charge =  1 Multiplicity = 2

 SCF Done:  E(UB3LYP) =  -857.975707194     A.U. after   28 cycles
 Normal termination of Gaussian 16 at Tue Dec  8 21:31:12 2020.
 Gaussian 16:  ES64L-G16RevA.03 25-Dec-2016

 ----------------------------------------------------------------------
 # B3LYP/6-311++G(d,p) empiricaldispersion=gd3bj scf=xqc pop=npa geom=c
 heck
 ----------------------------------------------------------------------

 -----------------------------------
 CID_65245044_JID_1789_Energie_anion
 -----------------------------------
 Structure from the checkpoint file:  "JID_1789.chk"
 Charge = -1 Multiplicity = 2

                         Standard orientation:
 ---------------------------------------------------------------------
 Center     Atomic      Atomic             Coordinates (Angstroms)
 Number     Number       Type             X           Y           Z
 ---------------------------------------------------------------------
      1          6           0        1.582247   -1.250858    1.382256
      2         16           0        2.399525   -1.236644   -0.256643
      3          6           0        2.500491    0.561979   -0.616144
      4          6           0        1.190917    1.208893   -1.076930
      5          6           0        0.196687    1.307920    0.072898
      6          8           0        0.458713    1.921075    1.105466
      7          7           0       -0.990729    0.676656   -0.103250
      8          6           0       -1.999015    0.418986    0.925458
      9          6           0       -2.523528   -0.765365    0.066491
     10          6           0       -1.420873   -0.426590   -0.977819
     11          7           0       -3.874135   -0.559362   -0.434909
     12          1           0        1.822067   -2.211075    1.845901
     13          1           0        0.497651   -1.154674    1.301928
     14          1           0        1.965676   -0.441395    2.007367
     15          1           0        2.876019    1.080436    0.270874
     16          1           0        3.256943    0.642627   -1.402448
     17          1           0        1.403727    2.236616   -1.398201
     18          1           0        0.779788    0.668530   -1.934289
     19          1           0       -1.563504    0.163176    1.897263
     20          1           0       -2.718222    1.235586    1.047045
     21          1           0       -2.351382   -1.740111    0.547842
     22          1           0       -1.822187   -0.093617   -1.941180
     23          1           0       -0.654982   -1.194100   -1.128998
     24          1           0       -4.538225   -0.614305    0.336691
     25          1           0       -4.122982   -1.310846   -1.077384
 ---------------------------------------------------------------------

 SCF Done:  E(UB3LYP) =  -858.266176506     A.U. after   30 cycles

 The electronic state is 2-A.
 Alpha  occ. eigenvalues --  -88.74552 -18.98546 -14.23780 -14.18747 -10.16810
 Alpha  occ. eigenvalues --  -10.11178 -10.10473 -10.10223 -10.09962 -10.09522
 Alpha  occ. eigenvalues --  -10.08931  -7.83147  -5.79553  -5.79179  -5.78507
 Alpha  occ. eigenvalues --   -0.93760  -0.85802  -0.77392  -0.72186  -0.66868
 Alpha  occ. eigenvalues --   -0.63955  -0.59813  -0.57107  -0.50306  -0.47948
 Alpha  occ. eigenvalues --   -0.43982  -0.41056  -0.40807  -0.38572  -0.36645
 Alpha  occ. eigenvalues --   -0.34808  -0.34089  -0.33228  -0.32300  -0.31007
 Alpha  occ. eigenvalues --   -0.30553  -0.29151  -0.28512  -0.27569  -0.26231
 Alpha  occ. eigenvalues --   -0.25399  -0.22953  -0.21468  -0.16081  -0.14752
 Alpha  occ. eigenvalues --   -0.14037  -0.13184   0.04480
 Alpha virt. eigenvalues --    0.06239   0.07370   0.08627   0.08981   0.09745
 Alpha virt. eigenvalues --    0.09878   0.10565   0.11174   0.11279   0.12004
 Alpha virt. eigenvalues --    0.12531   0.13001   0.13527   0.13649   0.14928

  Beta  occ. eigenvalues --  -88.74549 -18.98528 -14.23778 -14.18674 -10.16798
  Beta  occ. eigenvalues --  -10.11168 -10.10453 -10.10186 -10.09946 -10.09496
  Beta  occ. eigenvalues --  -10.08926  -7.83143  -5.79550  -5.79171  -5.78504
  Beta  occ. eigenvalues --   -0.93731  -0.85770  -0.77281  -0.72162  -0.66826
  Beta  occ. eigenvalues --   -0.63903  -0.59762  -0.57065  -0.50244  -0.47863
  Beta  occ. eigenvalues --   -0.43910  -0.41012  -0.40735  -0.38511  -0.36592
  Beta  occ. eigenvalues --   -0.34769  -0.34055  -0.33197  -0.32272  -0.30943
  Beta  occ. eigenvalues --   -0.30501  -0.29122  -0.28488  -0.27517  -0.26176
  Beta  occ. eigenvalues --   -0.25352  -0.22899  -0.21437  -0.16046  -0.14708
  Beta  occ. eigenvalues --   -0.13968  -0.13165
  Beta virt. eigenvalues --    0.06505   0.07477   0.08199   0.09085   0.09155
  Beta virt. eigenvalues --    0.10028   0.10419   0.10909   0.11488   0.11754
  Beta virt. eigenvalues --    0.12499   0.12806   0.13359   0.13756   0.13985

 Mulliken charges and spin densities:
               1          2
     1  C   -0.583546  -0.068072
     2  S    0.099038   0.194920
     3  C   -0.269271  -0.385622
     4  C   -0.334003   0.447812
     5  C    0.330623  -0.684460
     6  O   -0.342830   0.026363
     7  N   -0.012634   0.116797
     8  C   -0.078092  -0.104165
     9  C    2.228687  -2.571852
    10  C   -0.455209   0.126306
    11  N   -0.566254   0.273059
    12  H   -0.366281   0.571088
    13  H    0.993011  -0.900811
    14  H    0.112841   0.074847
    15  H    0.204666  -0.010364
    16  H   -0.159955   0.378110
    17  H    0.034412   0.146328
    18  H   -0.008505   0.160084
    19  H   -0.199655   0.376568
    20  H    0.088664   0.078905
    21  H   -1.015727   1.242090
    22  H    0.020491   0.147980
    23  H   -0.053734   0.230328
    24  H   -0.282936   0.514725
    25  H   -0.383800   0.619032
 Sum of Mulliken charges =  -1.00000   1.00000

 Dipole moment (field-independent basis, Debye):
    X=              7.3328    Y=              3.9342    Z=             -1.2128  Tot=              8.4094
 Quadrupole moment (field-independent basis, Debye-Ang):
   XX=           -153.4748   YY=           -118.1077   ZZ=           -104.4800
   XY=            -13.0362   XZ=             -1.3695   YZ=             -1.9185

 Summary of Natural Population Analysis:

                                       Natural Population
                Natural  -----------------------------------------------
    Atom  No    Charge         Core      Valence    Rydberg      Total
 -----------------------------------------------------------------------
      C    1   -0.34970      0.99961     2.34315    0.00693     3.34970
      S    2    0.08025      4.99964     2.90193    0.01817     7.91975
      C    3   -0.24897      0.99959     2.23769    0.01169     3.24897
      C    4   -0.23555      0.99957     2.22647    0.00951     3.23555
      C    5    0.34376      0.99962     1.63352    0.02310     2.65624
      O    6   -0.33144      0.99988     3.32627    0.00530     4.33144
      N    7   -0.25280      0.99963     2.74299    0.01018     3.75280
      C    8   -0.07648      0.99963     2.06537    0.01147     3.07648
      C    9   -0.01937      0.99960     2.00553    0.01425     3.01937
      C   10   -0.08016      0.99963     2.06990    0.01064     3.08016
      N   11   -0.42435      0.99976     2.91336    0.01123     3.92435
      H   12    0.10672      0.00000     0.39189    0.00139     0.39328
      H   13    0.10225      0.00000     0.39582    0.00193     0.39775
      H   14    0.10713      0.00000     0.39175    0.00112     0.39287
      H   15    0.10785      0.00000     0.39082    0.00133     0.39215
      H   16    0.10564      0.00000     0.39316    0.00119     0.39436
      H   17    0.11017      0.00000     0.38854    0.00129     0.38983
      H   18    0.10454      0.00000     0.39393    0.00153     0.39546
      H   19    0.09987      0.00000     0.39883    0.00130     0.40013
      H   20    0.09938      0.00000     0.39928    0.00134     0.40062
      H   21    0.08924      0.00000     0.40346    0.00730     0.41076
      H   22    0.09752      0.00000     0.40091    0.00157     0.40248
      H   23    0.10138      0.00000     0.39640    0.00222     0.39862
      H   24    0.18110      0.00000     0.31309    0.00581     0.31890
      H   25    0.18201      0.00000     0.31070    0.00729     0.31799
 =======================================================================
   * Total *   -0.00000     14.99617    31.83475    0.16908    47.00000

 Normal termination of Gaussian 16 at Tue Dec  8 21:41:41 2020.
