 Gaussian 16, Revision A.03,

 -----------------------------------------------------------
 # opt freq B3LYP/6-31G(d) empiricaldispersion=gd3bj scf=xqc
 -----------------------------------------------------------

 ------------------------------
 CID_83890204_JID_6873_neutraal
 ------------------------------
 Symbolic Z-matrix:
 Charge =  0 Multiplicity = 1

 SCF Done:  E(RB3LYP) =  -708.282364336     A.U. after   15 cycles
 SCF Done:  E(RB3LYP) =  -708.289174375     A.U. after   12 cycles
 SCF Done:  E(RB3LYP) =  -708.290111806     A.U. after   12 cycles
 SCF Done:  E(RB3LYP) =  -708.290191415     A.U. after   11 cycles
 SCF Done:  E(RB3LYP) =  -708.290295466     A.U. after   11 cycles
 SCF Done:  E(RB3LYP) =  -708.290408175     A.U. after   10 cycles
 SCF Done:  E(RB3LYP) =  -708.290427898     A.U. after   10 cycles
 SCF Done:  E(RB3LYP) =  -708.290425394     A.U. after    9 cycles
 SCF Done:  E(RB3LYP) =  -708.290429938     A.U. after    8 cycles
 SCF Done:  E(RB3LYP) =  -708.290430488     A.U. after    8 cycles
 SCF Done:  E(RB3LYP) =  -708.290430533     A.U. after    7 cycles
 Optimization completed.
    -- Stationary point found.
 Normal termination of Gaussian 16 at Fri Dec 11 00:55:28 2020.

 --------------------------------------------------------------------
 #N Geom=AllCheck Guess=TCheck SCRF=Check GenChk RB3LYP/6-31G(d) Freq
 --------------------------------------------------------------------

 Structure from the checkpoint file:  "JID_6873.chk"
 ------------------------------
 CID_83890204_JID_6873_neutraal
 ------------------------------
 Charge =  0 Multiplicity = 1

 SCF Done:  E(RB3LYP) =  -708.290430532     A.U. after    1 cycles

  Exact polarizability: 179.427  -0.374 162.483   0.830  -3.485  98.995
 Approx polarizability: 230.729   3.682 264.661   5.925 -14.235 153.304

                      1                      2                      3
                      A                      A                      A
 Frequencies --     49.9077                59.3347                72.0768
 Red. masses --      3.0248                 2.9691                 3.5962
 Frc consts  --      0.0044                 0.0062                 0.0110
 IR Inten    --      0.8723                 0.2789                 1.9480

                      4                      5                      6
                      A                      A                      A
 Frequencies --    120.6622               143.5849               156.6036
 Red. masses --      3.1039                 2.6889                 3.0271
 Frc consts  --      0.0266                 0.0327                 0.0437
 IR Inten    --      1.5019                 0.7431                 0.4666

                      7                      8                      9
                      A                      A                      A
 Frequencies --    176.0630               204.9499               208.7604
 Red. masses --      2.7455                 1.7014                 1.8341
 Frc consts  --      0.0501                 0.0421                 0.0471
 IR Inten    --      0.4590                 1.9400                 1.6693

                     10                     11                     12
                      A                      A                      A
 Frequencies --    224.6136               254.9896               270.0796
 Red. masses --      1.1528                 1.1443                 2.4061
 Frc consts  --      0.0343                 0.0438                 0.1034
 IR Inten    --      0.2308                 0.5818                 0.8972

                     13                     14                     15
                      A                      A                      A
 Frequencies --    292.4020               305.7051               328.4244
 Red. masses --      3.6356                 2.9846                 2.2865
 Frc consts  --      0.1831                 0.1643                 0.1453
 IR Inten    --      1.9994                 0.6180                 0.9053

                     16                     17                     18
                      A                      A                      A
 Frequencies --    352.2705               385.7477               400.8010
 Red. masses --      3.0128                 2.8169                 4.0704
 Frc consts  --      0.2203                 0.2470                 0.3853
 IR Inten    --      1.7028                 4.4388                 5.4793

                     19                     20                     21
                      A                      A                      A
 Frequencies --    437.6455               459.6608               481.7916
 Red. masses --      2.9136                 3.8658                 3.1943
 Frc consts  --      0.3288                 0.4812                 0.4369
 IR Inten    --      3.2910                 5.4212                 0.1871

                     22                     23                     24
                      A                      A                      A
 Frequencies --    532.9300               560.7759               569.6545
 Red. masses --      4.7557                 2.6110                 3.8189
 Frc consts  --      0.7958                 0.4838                 0.7302
 IR Inten    --      0.6176                27.4101                 4.5750

                     25                     26                     27
                      A                      A                      A
 Frequencies --    625.2804               680.7944               714.7917
 Red. masses --      4.6427                 4.0303                 2.7030
 Frc consts  --      1.0695                 1.1006                 0.8137
 IR Inten    --      5.7698                 1.7686                38.5580

                     28                     29                     30
                      A                      A                      A
 Frequencies --    724.7267               781.2241               785.4435
 Red. masses --      6.0485                 1.5593                 4.9375
 Frc consts  --      1.8717                 0.5607                 1.7947
 IR Inten    --      9.3766                 5.9005                12.5777

                     31                     32                     33
                      A                      A                      A
 Frequencies --    827.4219               834.1250               895.9569
 Red. masses --      1.8614                 2.3387                 2.7065
 Frc consts  --      0.7508                 0.9587                 1.2801
 IR Inten    --     42.6127                 4.0956                 3.3386

                     34                     35                     36
                      A                      A                      A
 Frequencies --    926.4242               942.1100               951.5303
 Red. masses --      2.1312                 2.1803                 1.2535
 Frc consts  --      1.0777                 1.1402                 0.6687
 IR Inten    --      0.1522                22.4777                 3.3893

                     37                     38                     39
                      A                      A                      A
 Frequencies --    975.4011               984.5188              1004.8739
 Red. masses --      2.6250                 1.5087                 2.3695
 Frc consts  --      1.4715                 0.8616                 1.4097
 IR Inten    --      0.5573                 0.2175                10.6914

                     40                     41                     42
                      A                      A                      A
 Frequencies --   1013.5391              1038.5718              1091.4750
 Red. masses --      1.9142                 2.2148                 2.1567
 Frc consts  --      1.1586                 1.4075                 1.5138
 IR Inten    --      7.0941                 0.4677                 7.7899

                     43                     44                     45
                      A                      A                      A
 Frequencies --   1110.5927              1118.2095              1132.4149
 Red. masses --      2.0922                 1.6490                 2.0191
 Frc consts  --      1.5204                 1.2148                 1.5255
 IR Inten    --     16.2477                 7.1407                 6.3874

                     46                     47                     48
                      A                      A                      A
 Frequencies --   1142.8449              1164.7496              1168.8210
 Red. masses --      2.2436                 3.8534                 2.4418
 Frc consts  --      1.7265                 3.0801                 1.9654
 IR Inten    --      2.6882                30.7131                22.4352

                     49                     50                     51
                      A                      A                      A
 Frequencies --   1214.2104              1218.8459              1220.9700
 Red. masses --      1.3891                 1.5302                 1.7151
 Frc consts  --      1.2067                 1.3393                 1.5064
 IR Inten    --     11.1222                 4.5587                25.2149

                     52                     53                     54
                      A                      A                      A
 Frequencies --   1241.8975              1256.2316              1292.2464
 Red. masses --      2.3471                 2.5411                 1.2815
 Frc consts  --      2.1328                 2.3627                 1.2608
 IR Inten    --     25.5967                 5.5753                 6.0434

                     55                     56                     57
                      A                      A                      A
 Frequencies --   1319.2165              1330.9573              1347.4474
 Red. masses --      1.7634                 1.7852                 1.3734
 Frc consts  --      1.8081                 1.8632                 1.4691
 IR Inten    --      4.8656                12.1048                 1.1029

                     58                     59                     60
                      A                      A                      A
 Frequencies --   1362.5306              1367.9027              1410.5200
 Red. masses --      1.3782                 1.4983                 1.2404
 Frc consts  --      1.5075                 1.6518                 1.4540
 IR Inten    --     10.3202                21.7113                15.1768

                     61                     62                     63
                      A                      A                      A
 Frequencies --   1424.6218              1433.5823              1436.3312
 Red. masses --      1.2393                 1.5426                 1.3745
 Frc consts  --      1.4820                 1.8678                 1.6708
 IR Inten    --      2.6368                 3.3192                20.2845

                     64                     65                     66
                      A                      A                      A
 Frequencies --   1445.9318              1454.3868              1467.1418
 Red. masses --      1.3548                 2.1516                 2.8216
 Frc consts  --      1.6689                 2.6815                 3.5784
 IR Inten    --      2.0984                20.5943                43.0666

                     67                     68                     69
                      A                      A                      A
 Frequencies --   1490.0891              1500.1462              1506.8272
 Red. masses --      1.1105                 1.3095                 1.0829
 Frc consts  --      1.4527                 1.7363                 1.4487
 IR Inten    --      6.5726                 3.0543                20.9702

                     70                     71                     72
                      A                      A                      A
 Frequencies --   1514.0838              1517.1152              1519.5240
 Red. masses --      1.0477                 1.0636                 1.0518
 Frc consts  --      1.4151                 1.4423                 1.4308
 IR Inten    --      4.2421                 1.5777                 1.4548

                     73                     74                     75
                      A                      A                      A
 Frequencies --   1520.4148              1530.8586              1536.7679
 Red. masses --      1.1223                 1.0502                 1.1187
 Frc consts  --      1.5285                 1.4500                 1.5566
 IR Inten    --      0.4655                 9.8032                 0.7336

                     76                     77                     78
                      A                      A                      A
 Frequencies --   1542.1281              1546.3216              1597.7448
 Red. masses --      1.0748                 1.0521                 7.1843
 Frc consts  --      1.5059                 1.4822                10.8056
 IR Inten    --      4.1336                 4.9224               273.8622

                     79                     80                     81
                      A                      A                      A
 Frequencies --   1660.3631              1752.7428              2922.8199
 Red. masses --      8.0680                11.3161                 1.0749
 Frc consts  --     13.1045                20.4824                 5.4104
 IR Inten    --     68.9003               409.4902                44.5858

                     82                     83                     84
                      A                      A                      A
 Frequencies --   2931.6339              3050.2004              3057.8972
 Red. masses --      1.0736                 1.0634                 1.0510
 Frc consts  --      5.4362                 5.8293                 5.7903
 IR Inten    --    109.1024                13.6243                15.3518

                     85                     86                     87
                      A                      A                      A
 Frequencies --   3061.6022              3064.7275              3066.8176
 Red. masses --      1.0561                 1.0477                 1.0385
 Frc consts  --      5.8327                 5.7981                 5.7546
 IR Inten    --     20.8476                26.0431                32.4696

                     88                     89                     90
                      A                      A                      A
 Frequencies --   3082.3548              3093.7168              3096.6560
 Red. masses --      1.0853                 1.0883                 1.1000
 Frc consts  --      6.0753                 6.1372                 6.2147
 IR Inten    --     17.4189                48.2705                20.6126

                     91                     92                     93
                      A                      A                      A
 Frequencies --   3115.5080              3126.6680              3130.6735
 Red. masses --      1.0736                 1.1024                 1.1018
 Frc consts  --      6.1397                 6.3497                 6.3626
 IR Inten    --      5.8272                 7.7463                43.5631

                     94                     95                     96
                      A                      A                      A
 Frequencies --   3133.4958              3145.7258              3158.2356
 Red. masses --      1.0935                 1.0998                 1.1011
 Frc consts  --      6.3260                 6.4119                 6.4707
 IR Inten    --     52.0280                17.3567                18.2263

                     97                     98                     99
                      A                      A                      A
 Frequencies --   3164.6657              3189.3104              3514.0484
 Red. masses --      1.0997                 1.1002                 1.0748
 Frc consts  --      6.4888                 6.5936                 7.8195
 IR Inten    --      0.6856                19.0723                 1.1723

 - Thermochemistry -
 -------------------
 Temperature   298.150 Kelvin.  Pressure   1.00000 Atm.
 Atom     1 has atomic number  6 and mass  12.00000

 Molecular mass:   221.15281 amu.
 Principal axes and moments of inertia in atomic units:
                           1         2         3
     Eigenvalues --  2294.035544332.015036145.35022
           X            0.99997  -0.00401  -0.00699
           Y            0.00408   0.99993   0.01080
           Z            0.00694  -0.01082   0.99992
 This molecule is an asymmetric top.
 Rotational symmetry number  1.
 Warning -- assumption of classical behavior for rotation
           may cause significant error
 Rotational temperatures (Kelvin)      0.03776     0.01999     0.01409
 Rotational constants (GHZ):           0.78671     0.41661     0.29368
 Zero-point vibrational energy     806116.4 (Joules/Mol)
                                  192.66644 (Kcal/Mol)
 Warning -- explicit consideration of  24 degrees of freedom as
           vibrations may cause significant error
 Vibrational temperatures:     71.81    85.37   103.70   173.61   206.59
          (Kelvin)            225.32   253.32   294.88   300.36   323.17
                              366.87   388.58   420.70   439.84   472.53
                              506.84   555.00   576.66   629.67   661.35
                              693.19   766.77   806.83   819.61   899.64
                              979.51  1028.43  1042.72  1124.01  1130.08
                             1190.48  1200.12  1289.08  1332.92  1355.49
                             1369.04  1403.38  1416.50  1445.79  1458.26
                             1494.27  1570.39  1597.90  1608.85  1629.29
                             1644.30  1675.81  1681.67  1746.98  1753.65
                             1756.70  1786.81  1807.44  1859.25  1898.06
                             1914.95  1938.68  1960.38  1968.11  2029.42
                             2049.71  2062.61  2066.56  2080.37  2092.54
                             2110.89  2143.91  2158.38  2167.99  2178.43
                             2182.79  2186.26  2187.54  2202.56  2211.07
                             2218.78  2224.81  2298.80  2388.89  2521.81
                             4205.29  4217.97  4388.56  4399.63  4404.96
                             4409.46  4412.47  4434.82  4451.17  4455.40
                             4482.52  4498.58  4504.34  4508.40  4526.00
                             4544.00  4553.25  4588.71  5055.93

 Zero-point correction=                           0.307034 (Hartree/Particle)
 Thermal correction to Energy=                    0.322547
 Thermal correction to Enthalpy=                  0.323491
 Thermal correction to Gibbs Free Energy=         0.264903
 Sum of electronic and zero-point Energies=           -707.983397
 Sum of electronic and thermal Energies=              -707.967884
 Sum of electronic and thermal Enthalpies=            -707.966940
 Sum of electronic and thermal Free Energies=         -708.025528

                     E (Thermal)             CV                S
                      KCal/Mol        Cal/Mol-Kelvin    Cal/Mol-Kelvin
 Total                  202.401             60.103            123.310
 Electronic               0.000              0.000              0.000
 Translational            0.889              2.981             42.084
 Rotational               0.889              2.981             32.479
 Vibrational            200.624             54.142             48.746
 Vibration     1          0.595              1.978              4.821
 Vibration     2          0.597              1.974              4.479
 Vibration     3          0.598              1.967              4.096
 Vibration     4          0.609              1.932              3.090
 Vibration     5          0.616              1.910              2.756
 Vibration     6          0.620              1.895              2.590
 Vibration     7          0.628              1.872              2.370
 Vibration     8          0.640              1.833              2.088
 Vibration     9          0.642              1.827              2.054
 Vibration    10          0.649              1.804              1.922
 Vibration    11          0.665              1.754              1.696
 Vibration    12          0.674              1.728              1.596
 Vibration    13          0.688              1.688              1.460
 Vibration    14          0.696              1.663              1.385
 Vibration    15          0.712              1.619              1.268
 Vibration    16          0.729              1.571              1.156
 Vibration    17          0.754              1.501              1.017
 Vibration    18          0.767              1.468              0.960
 Vibration    19          0.798              1.388              0.834
 Vibration    20          0.818              1.340              0.767
 Vibration    21          0.838              1.290              0.705
 Vibration    22          0.888              1.177              0.581
 Vibration    23          0.916              1.116              0.522
 Vibration    24          0.926              1.097              0.505

 Optimization completed.
    -- Stationary point found.
 Normal termination of Gaussian 16 at Fri Dec 11 01:08:01 2020.

 ----------------------------------------------------------------------
 # B3LYP/6-311++G(d,p) empiricaldispersion=gd3bj scf=xqc pop=npa geom=c
 heck
 ----------------------------------------------------------------------

 --------------------------------------
 CID_83890204_JID_6873_Energie_neutraal
 --------------------------------------
 Structure from the checkpoint file:  "JID_6873.chk"
 Charge =  0 Multiplicity = 1

 SCF Done:  E(RB3LYP) =  -708.484830001     A.U. after   16 cycles
 Normal termination of Gaussian 16 at Fri Dec 11 01:13:32 2020.

 ----------------------------------------------------------------------
 # B3LYP/6-311++G(d,p) empiricaldispersion=gd3bj scf=xqc pop=npa geom=c
 heck
 ----------------------------------------------------------------------

 ------------------------------------
 CID_83890204_JID_6873_Energie_kation
 ------------------------------------
 Structure from the checkpoint file:  "JID_6873.chk"
 Charge =  1 Multiplicity = 2

 SCF Done:  E(UB3LYP) =  -708.193219633     A.U. after   24 cycles
 Normal termination of Gaussian 16 at Fri Dec 11 01:24:55 2020.
 Gaussian 16:  ES64L-G16RevA.03 25-Dec-2016

 ----------------------------------------------------------------------
 # B3LYP/6-311++G(d,p) empiricaldispersion=gd3bj scf=xqc pop=npa geom=c
 heck
 ----------------------------------------------------------------------

 -----------------------------------
 CID_83890204_JID_6873_Energie_anion
 -----------------------------------
 Structure from the checkpoint file:  "JID_6873.chk"
 Charge = -1 Multiplicity = 2

                         Standard orientation:
 ---------------------------------------------------------------------
 Center     Atomic      Atomic             Coordinates (Angstroms)
 Number     Number       Type             X           Y           Z
 ---------------------------------------------------------------------
      1          6           0       -2.363385    2.540773    0.765032
      2          6           0       -2.109372    1.719454   -0.499586
      3          7           0       -0.982406    0.779517   -0.340481
      4          6           0        0.299514    1.402076   -0.339013
      5          8           0        0.397752    2.614665   -0.531126
      6          6           0        1.402716    0.511501   -0.088306
      7          6           0        1.166059   -0.825393    0.063778
      8          6           0        2.299097   -1.787689    0.306731
      9          6           0        3.644514   -1.151952   -0.050408
     10          7           0        3.719168    0.164326    0.581373
     11          6           0        2.781911    1.109102   -0.022729
     12          7           0       -0.088897   -1.370820   -0.008746
     13          6           0       -1.112804   -0.584609   -0.205494
     14          6           0       -2.486852   -1.238479   -0.269649
     15          6           0       -2.379107   -2.708216   -0.693325
     16          6           0       -3.205242   -1.120660    1.088673
     17          1           0       -2.582591    1.898401    1.623527
     18          1           0       -3.219882    3.204612    0.604722
     19          1           0       -1.488830    3.151595    0.995007
     20          1           0       -2.996498    1.158524   -0.784633
     21          1           0       -1.843296    2.387465   -1.320992
     22          1           0        2.120300   -2.698942   -0.275155
     23          1           0        2.293825   -2.076997    1.365739
     24          1           0        3.741585   -1.105209   -1.152885
     25          1           0        4.466150   -1.770738    0.324271
     26          1           0        4.662831    0.535360    0.507502
     27          1           0        2.746882    2.025426    0.577055
     28          1           0        3.074079    1.423424   -1.044570
     29          1           0       -3.088755   -0.723507   -1.026694
     30          1           0       -1.810305   -3.283929    0.039712
     31          1           0       -3.383901   -3.135973   -0.781869
     32          1           0       -1.871519   -2.807350   -1.657251
     33          1           0       -3.371254   -0.081411    1.384671
     34          1           0       -4.179397   -1.619003    1.042796
     35          1           0       -2.608796   -1.605681    1.868810
 ---------------------------------------------------------------------

 SCF Done:  E(UB3LYP) =  -708.475897125     A.U. after   33 cycles
 SCF Done:  E(UB3LYP) =  -708.475897125     a.u. after    1 cycles

 The electronic state is 2-A.
 Alpha  occ. eigenvalues --  -18.96762 -14.24829 -14.19230 -14.17945 -10.15004
 Alpha  occ. eigenvalues --  -10.12761 -10.10790 -10.08715 -10.08550 -10.08286
 Alpha  occ. eigenvalues --  -10.08122 -10.06660 -10.05981 -10.05817 -10.05286
 Alpha  occ. eigenvalues --  -10.04625  -0.92561  -0.86367  -0.80939  -0.78570
 Alpha  occ. eigenvalues --   -0.70641  -0.66736  -0.66160  -0.64581  -0.58343
 Alpha  occ. eigenvalues --   -0.56658  -0.55856  -0.51930  -0.51023  -0.47661
 Alpha  occ. eigenvalues --   -0.44631  -0.43991  -0.39657  -0.37939  -0.36696
 Alpha  occ. eigenvalues --   -0.35766  -0.35386  -0.34219  -0.33367  -0.32882
 Alpha  occ. eigenvalues --   -0.31412  -0.30559  -0.29881  -0.29252  -0.28866
 Alpha  occ. eigenvalues --   -0.28359  -0.28044  -0.27246  -0.25969  -0.25474
 Alpha  occ. eigenvalues --   -0.24881  -0.24267  -0.23828  -0.22706  -0.22159
 Alpha  occ. eigenvalues --   -0.17124  -0.15029  -0.14505  -0.12561  -0.11158
 Alpha  occ. eigenvalues --    0.04492
 Alpha virt. eigenvalues --    0.06137   0.06973   0.08103   0.08320   0.08819
 Alpha virt. eigenvalues --    0.09245   0.09688   0.10458   0.11006   0.11362
 Alpha virt. eigenvalues --    0.11523   0.11751   0.12324   0.12775   0.13071

  Beta  occ. eigenvalues --  -18.96746 -14.24654 -14.19214 -14.18019 -10.14997
  Beta  occ. eigenvalues --  -10.12520 -10.10791 -10.08692 -10.08370 -10.08290
  Beta  occ. eigenvalues --  -10.08134 -10.06644 -10.05924 -10.05827 -10.05271
  Beta  occ. eigenvalues --  -10.04516  -0.92454  -0.86152  -0.80872  -0.78424
  Beta  occ. eigenvalues --   -0.70470  -0.66646  -0.66010  -0.64501  -0.58277
  Beta  occ. eigenvalues --   -0.56517  -0.55671  -0.51832  -0.50913  -0.47577
  Beta  occ. eigenvalues --   -0.44508  -0.43877  -0.39513  -0.37855  -0.36589
  Beta  occ. eigenvalues --   -0.35684  -0.35070  -0.34138  -0.33282  -0.32740
  Beta  occ. eigenvalues --   -0.31326  -0.30449  -0.29798  -0.29179  -0.28706
  Beta  occ. eigenvalues --   -0.28311  -0.27964  -0.27160  -0.25864  -0.25350
  Beta  occ. eigenvalues --   -0.24728  -0.24210  -0.23770  -0.22501  -0.22082
  Beta  occ. eigenvalues --   -0.16377  -0.15037  -0.14436  -0.12483  -0.10586
  Beta virt. eigenvalues --    0.06882   0.07097   0.08051   0.08513   0.08814
  Beta virt. eigenvalues --    0.09270   0.09616   0.09843   0.10583   0.11158
  Beta virt. eigenvalues --    0.11564   0.11605   0.11954   0.12526   0.12843

 Mulliken charges and spin densities:
               1          2
     1  C   -0.249202  -0.165612
     2  C   -0.190038  -0.007110
     3  N    0.134110   0.039394
     4  C   -0.644947   0.054620
     5  O   -0.367877   0.010448
     6  C   -0.521480   0.671348
     7  C    1.320695  -0.602454
     8  C   -1.258402   0.939538
     9  C    0.619597  -0.988524
    10  N   -0.203383   0.099591
    11  C    0.400931  -0.957193
    12  N    0.106003  -0.004564
    13  C    0.820578  -1.184098
    14  C   -1.704515   2.027214
    15  C    0.009871  -0.682791
    16  C    0.867142  -1.387630
    17  H    0.123367  -0.006076
    18  H    0.094289   0.026392
    19  H    0.178513   0.003725
    20  H   -0.032004   0.173952
    21  H    0.187937   0.012075
    22  H    0.145600  -0.010339
    23  H    0.070740   0.110763
    24  H   -0.017778   0.115111
    25  H   -0.380344   0.560550
    26  H    0.029928   0.217614
    27  H    0.201642  -0.008626
    28  H   -0.021625   0.193269
    29  H   -0.198186   0.354688
    30  H    0.146391   0.015691
    31  H   -0.228895   0.372628
    32  H    0.104780   0.038710
    33  H    0.048330   0.046547
    34  H   -0.613255   0.782202
    35  H    0.021484   0.138948
 Sum of Mulliken charges =  -1.00000   1.00000

 Dipole moment (field-independent basis, Debye):
    X=              0.1024    Y=              1.6022    Z=             -0.6824  Tot=              1.7445
 Quadrupole moment (field-independent basis, Debye-Ang):
   XX=           -178.5222   YY=           -135.6237   ZZ=           -119.4462
   XY=            -13.0512   XZ=              0.7458   YZ=              4.1058

 Summary of Natural Population Analysis:

                                       Natural Population
                Natural  -----------------------------------------------
    Atom  No    Charge         Core      Valence    Rydberg      Total
 -----------------------------------------------------------------------
      C    1   -0.28890      0.99965     2.28526    0.00398     3.28890
      C    2   -0.09129      0.99962     2.08106    0.01061     3.09129
      N    3   -0.21120      0.99960     2.70312    0.00848     3.71120
      C    4    0.32617      0.99956     1.65328    0.02099     2.67383
      O    5   -0.34398      0.99988     3.33877    0.00533     4.34398
      C    6   -0.07401      0.99940     2.06652    0.00809     3.07401
      C    7    0.15063      0.99945     1.83784    0.01208     2.84937
      C    8   -0.20611      0.99960     2.19742    0.00909     3.20611
      C    9   -0.08730      0.99963     2.07512    0.01254     3.08730
      N   10   -0.33831      0.99974     2.82696    0.01161     3.83831
      C   11   -0.09169      0.99960     2.07830    0.01379     3.09169
      N   12   -0.29069      0.99964     2.78135    0.00970     3.79069
      C   13    0.29149      0.99957     1.69326    0.01568     2.70851
      C   14   -0.13537      0.99959     2.12592    0.00986     3.13537
      C   15   -0.27841      0.99965     2.27194    0.00682     3.27841
      C   16   -0.27859      0.99964     2.27296    0.00599     3.27859
      H   17    0.09627      0.00000     0.40279    0.00094     0.40373
      H   18    0.09509      0.00000     0.40420    0.00071     0.40491
      H   19    0.11089      0.00000     0.38802    0.00109     0.38911
      H   20    0.09757      0.00000     0.40102    0.00141     0.40243
      H   21    0.10681      0.00000     0.39210    0.00109     0.39319
      H   22    0.10423      0.00000     0.39442    0.00135     0.39577
      H   23    0.10664      0.00000     0.39175    0.00161     0.39336
      H   24    0.07628      0.00000     0.42201    0.00172     0.42372
      H   25    0.09388      0.00000     0.40485    0.00127     0.40612
      H   26    0.17317      0.00000     0.32396    0.00287     0.32683
      H   27    0.10261      0.00000     0.39612    0.00127     0.39739
      H   28    0.08563      0.00000     0.41278    0.00159     0.41437
      H   29    0.09810      0.00000     0.39946    0.00243     0.40190
      H   30    0.10597      0.00000     0.39283    0.00120     0.39403
      H   31    0.09505      0.00000     0.40414    0.00081     0.40495
      H   32    0.10037      0.00000     0.39881    0.00083     0.39963
      H   33    0.09680      0.00000     0.40220    0.00099     0.40320
      H   34    0.10207      0.00000     0.39535    0.00258     0.39793
      H   35    0.10012      0.00000     0.39892    0.00096     0.39988
 =======================================================================
   * Total *    0.00000     15.99384    43.81480    0.19136    60.00000

 Normal termination of Gaussian 16 at Fri Dec 11 01:40:38 2020.
