 Gaussian 16, Revision A.03,

 -----------------------------------------------------------
 # opt freq B3LYP/6-31G(d) empiricaldispersion=gd3bj scf=xqc
 -----------------------------------------------------------

 -------------------------------
 CID_148205701_JID_2575_neutraal
 -------------------------------
 Symbolic Z-matrix:
 Charge =  0 Multiplicity = 1

 SCF Done:  E(RB3LYP) =  -481.784791567     A.U. after   14 cycles
 SCF Done:  E(RB3LYP) =  -481.787249683     A.U. after   12 cycles
 SCF Done:  E(RB3LYP) =  -481.787517587     A.U. after   11 cycles
 SCF Done:  E(RB3LYP) =  -481.787576070     A.U. after   10 cycles
 SCF Done:  E(RB3LYP) =  -481.787585174     A.U. after   10 cycles
 SCF Done:  E(RB3LYP) =  -481.787587573     A.U. after    9 cycles
 SCF Done:  E(RB3LYP) =  -481.787587733     A.U. after    7 cycles
 Optimization completed.
    -- Stationary point found.
 Normal termination of Gaussian 16 at Wed Dec  9 17:34:59 2020.

 --------------------------------------------------------------------
 #N Geom=AllCheck Guess=TCheck SCRF=Check GenChk RB3LYP/6-31G(d) Freq
 --------------------------------------------------------------------

 Structure from the checkpoint file:  "JID_2575.chk"
 -------------------------------
 CID_148205701_JID_2575_neutraal
 -------------------------------
 Charge =  0 Multiplicity = 1

 SCF Done:  E(RB3LYP) =  -481.787587733     A.U. after    1 cycles

  Exact polarizability: 152.978  -2.585 117.098  -7.568   4.020  75.323
 Approx polarizability: 224.409  -6.134 191.080 -16.108   8.423 118.462

                      1                      2                      3
                      A                      A                      A
 Frequencies --     94.0196               102.8132               171.6819
 Red. masses --      3.5696                 3.8018                 2.9887
 Frc consts  --      0.0186                 0.0237                 0.0519
 IR Inten    --      0.1461                 1.2007                 0.7839

                      4                      5                      6
                      A                      A                      A
 Frequencies --    210.8231               268.4926               305.5703
 Red. masses --      2.5167                 2.7555                 4.2803
 Frc consts  --      0.0659                 0.1170                 0.2355
 IR Inten    --      0.4855                 0.2706                 1.9059

                      7                      8                      9
                      A                      A                      A
 Frequencies --    327.9468               396.5820               435.3100
 Red. masses --      2.3179                 2.1451                 2.6668
 Frc consts  --      0.1469                 0.1988                 0.2977
 IR Inten    --      1.8445                 2.1836                 0.4649

                     10                     11                     12
                      A                      A                      A
 Frequencies --    442.0315               487.1489               535.8313
 Red. masses --      2.8183                 3.3638                 2.8820
 Frc consts  --      0.3244                 0.4703                 0.4875
 IR Inten    --      0.0426                 0.4822                 2.3869

                     13                     14                     15
                      A                      A                      A
 Frequencies --    579.4399               606.9263               669.9990
 Red. masses --      2.9718                 3.8496                 4.1902
 Frc consts  --      0.5879                 0.8355                 1.1082
 IR Inten    --      1.8969                 3.4726                 2.4640

                     16                     17                     18
                      A                      A                      A
 Frequencies --    722.8634               764.2864               786.2359
 Red. masses --      2.6885                 1.6305                 2.4669
 Frc consts  --      0.8277                 0.5612                 0.8985
 IR Inten    --      5.8478                16.2698                13.4939

                     19                     20                     21
                      A                      A                      A
 Frequencies --    809.3923               829.3632               848.6837
 Red. masses --      2.2200                 2.1171                 2.4531
 Frc consts  --      0.8569                 0.8580                 1.0410
 IR Inten    --      5.8626                14.8754                 1.0599

                     22                     23                     24
                      A                      A                      A
 Frequencies --    880.7639               915.3609               943.8994
 Red. masses --      2.1953                 1.9026                 2.3641
 Frc consts  --      1.0034                 0.9392                 1.2410
 IR Inten    --      7.9906                 1.8928                 1.5448

                     25                     26                     27
                      A                      A                      A
 Frequencies --    962.7087               985.4429               990.6709
 Red. masses --      1.3933                 1.4144                 1.7329
 Frc consts  --      0.7608                 0.8092                 1.0020
 IR Inten    --      0.6115                 0.0694                 2.2797

                     28                     29                     30
                      A                      A                      A
 Frequencies --    997.1891              1040.1438              1083.4399
 Red. masses --      1.5226                 2.3933                 2.1308
 Frc consts  --      0.8920                 1.5256                 1.4737
 IR Inten    --      1.7254                 2.5559                 0.2627

                     31                     32                     33
                      A                      A                      A
 Frequencies --   1101.3732              1110.4335              1127.6871
 Red. masses --      2.3190                 2.2285                 1.8307
 Frc consts  --      1.6574                 1.6190                 1.3716
 IR Inten    --      1.1767                 2.4534                10.7244

                     34                     35                     36
                      A                      A                      A
 Frequencies --   1181.7960              1209.9237              1222.9472
 Red. masses --      1.1557                 1.3805                 1.6313
 Frc consts  --      0.9510                 1.1907                 1.4375
 IR Inten    --      1.4360                 6.0403                 3.6395

                     37                     38                     39
                      A                      A                      A
 Frequencies --   1249.5907              1273.3967              1288.7146
 Red. masses --      2.3989                 1.2783                 1.4429
 Frc consts  --      2.2070                 1.2213                 1.4119
 IR Inten    --      0.2707                 0.3710                 1.5041

                     40                     41                     42
                      A                      A                      A
 Frequencies --   1301.1283              1304.6383              1340.5315
 Red. masses --      1.7739                 1.3852                 1.6729
 Frc consts  --      1.7694                 1.3892                 1.7712
 IR Inten    --      0.8002                 1.3781                 0.3114

                     43                     44                     45
                      A                      A                      A
 Frequencies --   1373.5241              1387.0846              1395.8670
 Red. masses --      1.3049                 1.4431                 1.3606
 Frc consts  --      1.4505                 1.6359                 1.5620
 IR Inten    --      0.9003                 0.6854                 2.4286

                     46                     47                     48
                      A                      A                      A
 Frequencies --   1407.1783              1444.1582              1475.9682
 Red. masses --      1.4342                 1.5073                 2.5549
 Frc consts  --      1.6732                 1.8521                 3.2792
 IR Inten    --      1.9482                 3.6603                44.9349

                     49                     50                     51
                      A                      A                      A
 Frequencies --   1502.2104              1508.1607              1515.7962
 Red. masses --      2.1123                 1.1808                 1.1271
 Frc consts  --      2.8085                 1.5824                 1.5258
 IR Inten    --      7.9761                 5.4790                 1.3086

                     52                     53                     54
                      A                      A                      A
 Frequencies --   1521.6499              1526.1807              1615.7196
 Red. masses --      1.1036                 1.1007                 5.5191
 Frc consts  --      1.5056                 1.5106                 8.4889
 IR Inten    --      6.1472                 3.1695                23.8158

                     55                     56                     57
                      A                      A                      A
 Frequencies --   1644.5019              1722.8158              3031.6436
 Red. masses --      5.7730                 6.9103                 1.0615
 Frc consts  --      9.1986                12.0844                 5.7481
 IR Inten    --     12.8140                 0.7743                24.7383

                     58                     59                     60
                      A                      A                      A
 Frequencies --   3041.0540              3042.6402              3064.4353
 Red. masses --      1.0647                 1.0606                 1.0718
 Frc consts  --      5.8014                 5.7853                 5.9299
 IR Inten    --     23.9504                28.1422                18.3696

                     61                     62                     63
                      A                      A                      A
 Frequencies --   3072.3423              3082.1356              3087.2417
 Red. masses --      1.0910                 1.1012                 1.0994
 Frc consts  --      6.0678                 6.1634                 6.1739
 IR Inten    --     39.9429                29.3001                64.5508

                     64                     65                     66
                      A                      A                      A
 Frequencies --   3116.4521              3142.2796              3164.5749
 Red. masses --      1.1044                 1.0837                 1.0949
 Frc consts  --      6.3200                 6.3042                 6.4604
 IR Inten    --     15.4750                 4.5514                49.6179

                     67                     68                     69
                      A                      A                      A
 Frequencies --   3167.2217              3185.5603              3211.9192
 Red. masses --      1.0889                 1.0894                 1.0963
 Frc consts  --      6.4360                 6.5132                 6.6639
 IR Inten    --     20.1757                16.0986                27.4630

 - Thermochemistry -
 -------------------
 Temperature   298.150 Kelvin.  Pressure   1.00000 Atm.
 Atom     1 has atomic number  6 and mass  12.00000

 Molecular mass:   159.10480 amu.
 Principal axes and moments of inertia in atomic units:
                           1         2         3
     Eigenvalues --  1080.734692242.986212927.61993
           X            0.99985   0.01755  -0.00014
           Y           -0.01755   0.99985   0.00087
           Z            0.00015  -0.00087   1.00000
 This molecule is an asymmetric top.
 Rotational symmetry number  1.
 Warning -- assumption of classical behavior for rotation
           may cause significant error
 Rotational temperatures (Kelvin)      0.08014     0.03862     0.02959
 Rotational constants (GHZ):           1.66992     0.80462     0.61645
 Zero-point vibrational energy     570364.7 (Joules/Mol)
                                  136.32044 (Kcal/Mol)
 Warning -- explicit consideration of  14 degrees of freedom as
           vibrations may cause significant error
 Vibrational temperatures:    135.27   147.93   247.01   303.33   386.30
          (Kelvin)            439.65   471.84   570.59   626.31   635.98
                              700.90   770.94   833.68   873.23   963.98
                             1040.04  1099.64  1131.22  1164.53  1193.27
                             1221.07  1267.22  1317.00  1358.06  1385.12
                             1417.83  1425.35  1434.73  1496.53  1558.83
                             1584.63  1597.67  1622.49  1700.34  1740.81
                             1759.55  1797.88  1832.13  1854.17  1872.03
                             1877.08  1928.73  1976.19  1995.71  2008.34
                             2024.62  2077.82  2123.59  2161.35  2169.91
                             2180.89  2189.31  2195.83  2324.66  2366.07
                             2478.75  4361.86  4375.40  4377.68  4409.04
                             4420.42  4434.51  4441.85  4483.88  4521.04
                             4553.12  4556.93  4583.31  4621.24

 Zero-point correction=                           0.217240 (Hartree/Particle)
 Thermal correction to Energy=                    0.226826
 Thermal correction to Enthalpy=                  0.227770
 Thermal correction to Gibbs Free Energy=         0.182543
 Sum of electronic and zero-point Energies=           -481.570347
 Sum of electronic and thermal Energies=              -481.560762
 Sum of electronic and thermal Enthalpies=            -481.559818
 Sum of electronic and thermal Free Energies=         -481.605045

                     E (Thermal)             CV                S
                      KCal/Mol        Cal/Mol-Kelvin    Cal/Mol-Kelvin
 Total                  142.335             39.321             95.187
 Electronic               0.000              0.000              0.000
 Translational            0.889              2.981             41.102
 Rotational               0.889              2.981             30.341
 Vibrational            140.558             33.359             23.744
 Vibration     1          0.603              1.953              3.575
 Vibration     2          0.605              1.947              3.400
 Vibration     3          0.626              1.877              2.417
 Vibration     4          0.643              1.824              2.037
 Vibration     5          0.673              1.731              1.606
 Vibration     6          0.696              1.663              1.386
 Vibration     7          0.711              1.620              1.270
 Vibration     8          0.763              1.477              0.975
 Vibration     9          0.796              1.393              0.841
 Vibration    10          0.802              1.378              0.820
 Vibration    11          0.843              1.279              0.691
 Vibration    12          0.891              1.171              0.574
 Vibration    13          0.936              1.076              0.486
 Vibration    14          0.966              1.017              0.438

 Optimization completed.
    -- Stationary point found.
 Normal termination of Gaussian 16 at Wed Dec  9 17:41:19 2020.

 ----------------------------------------------------------------------
 # B3LYP/6-311++G(d,p) empiricaldispersion=gd3bj scf=xqc pop=npa geom=c
 heck
 ----------------------------------------------------------------------

 ---------------------------------------
 CID_148205701_JID_2575_Energie_neutraal
 ---------------------------------------
 Structure from the checkpoint file:  "JID_2575.chk"
 Charge =  0 Multiplicity = 1

 SCF Done:  E(RB3LYP) =  -481.911227451     A.U. after   15 cycles
 Normal termination of Gaussian 16 at Wed Dec  9 17:44:33 2020.

 ----------------------------------------------------------------------
 # B3LYP/6-311++G(d,p) empiricaldispersion=gd3bj scf=xqc pop=npa geom=c
 heck
 ----------------------------------------------------------------------

 -------------------------------------
 CID_148205701_JID_2575_Energie_kation
 -------------------------------------
 Structure from the checkpoint file:  "JID_2575.chk"
 Charge =  1 Multiplicity = 2

 SCF Done:  E(UB3LYP) =  -481.604279956     A.U. after   24 cycles
 Normal termination of Gaussian 16 at Wed Dec  9 17:50:58 2020.
 Gaussian 16:  ES64L-G16RevA.03 25-Dec-2016

 ----------------------------------------------------------------------
 # B3LYP/6-311++G(d,p) empiricaldispersion=gd3bj scf=xqc pop=npa geom=c
 heck
 ----------------------------------------------------------------------

 ------------------------------------
 CID_148205701_JID_2575_Energie_anion
 ------------------------------------
 Structure from the checkpoint file:  "JID_2575.chk"
 Charge = -1 Multiplicity = 2

                         Standard orientation:
 ---------------------------------------------------------------------
 Center     Atomic      Atomic             Coordinates (Angstroms)
 Number     Number       Type             X           Y           Z
 ---------------------------------------------------------------------
      1          6           0       -2.729314   -0.516415   -0.445290
      2          6           0       -1.753934   -1.638273   -0.075745
      3          6           0       -0.678601   -1.274237    0.973408
      4          6           0        0.556535   -0.605180    0.411101
      5          6           0        0.715446    0.797307    0.348748
      6          6           0       -0.372863    1.728225    0.699936
      7          6           0       -1.595008    1.704365    0.151214
      8          6           0       -2.058043    0.783007   -0.946979
      9          6           0        1.959498    1.293471   -0.063959
     10          6           0        2.961410    0.415736   -0.458908
     11          6           0        2.681499   -0.950369   -0.421420
     12          7           0        1.523792   -1.451364    0.014050
     13          1           0       -3.365340   -0.281022    0.419017
     14          1           0       -3.400319   -0.891308   -1.228445
     15          1           0       -2.338919   -2.481930    0.311090
     16          1           0       -1.246704   -2.003881   -0.978051
     17          1           0       -0.330325   -2.200482    1.439546
     18          1           0       -1.125515   -0.650063    1.754715
     19          1           0       -0.139968    2.497847    1.435549
     20          1           0       -2.327691    2.427400    0.508857
     21          1           0       -1.213766    0.519227   -1.595803
     22          1           0       -2.775111    1.331587   -1.569862
     23          1           0        2.121307    2.368235   -0.092237
     24          1           0        3.929390    0.775296   -0.794080
     25          1           0        3.426669   -1.677184   -0.741272
 ---------------------------------------------------------------------

 SCF Done:  E(UB3LYP) =  -481.901163428     A.U. after   33 cycles
 SCF Done:  E(UB3LYP) =  -481.901163428     a.u. after    1 cycles

 The electronic state is 2-A.
 Alpha  occ. eigenvalues --  -14.16515 -10.07935 -10.06477 -10.04942 -10.04902
 Alpha  occ. eigenvalues --  -10.04706 -10.04602 -10.04493 -10.04409 -10.04387
 Alpha  occ. eigenvalues --  -10.03899 -10.03786  -0.80803  -0.70148  -0.67853
 Alpha  occ. eigenvalues --   -0.64548  -0.64034  -0.57184  -0.54553  -0.49708
 Alpha  occ. eigenvalues --   -0.47331  -0.45249  -0.41910  -0.37238  -0.36892
 Alpha  occ. eigenvalues --   -0.34504  -0.33935  -0.32174  -0.30133  -0.29039
 Alpha  occ. eigenvalues --   -0.28514  -0.27741  -0.26164  -0.24461  -0.24012
 Alpha  occ. eigenvalues --   -0.22429  -0.21220  -0.20432  -0.20179  -0.16350
 Alpha  occ. eigenvalues --   -0.13872  -0.12550  -0.10901   0.05157
 Alpha virt. eigenvalues --    0.07878   0.08282   0.08670   0.09228   0.09942
 Alpha virt. eigenvalues --    0.10525   0.10605   0.11538   0.11959   0.12354
 Alpha virt. eigenvalues --    0.12878   0.13578   0.14349   0.14829   0.15268

  Beta  occ. eigenvalues --  -14.16329 -10.07975 -10.06308 -10.05003 -10.04899
  Beta  occ. eigenvalues --  -10.04626 -10.04559 -10.04488 -10.04407 -10.04146
  Beta  occ. eigenvalues --  -10.03806 -10.03723  -0.80505  -0.69976  -0.67606
  Beta  occ. eigenvalues --   -0.64406  -0.63848  -0.57024  -0.54474  -0.49294
  Beta  occ. eigenvalues --   -0.47237  -0.45127  -0.41775  -0.37109  -0.36742
  Beta  occ. eigenvalues --   -0.34418  -0.33794  -0.32093  -0.30053  -0.28957
  Beta  occ. eigenvalues --   -0.28356  -0.27426  -0.26022  -0.24314  -0.23688
  Beta  occ. eigenvalues --   -0.22334  -0.21123  -0.20340  -0.20104  -0.15441
  Beta  occ. eigenvalues --   -0.13327  -0.12255  -0.10329
  Beta virt. eigenvalues --    0.07890   0.08326   0.08991   0.09559   0.09974
  Beta virt. eigenvalues --    0.10228   0.10813   0.10867   0.11769   0.12140
  Beta virt. eigenvalues --    0.12506   0.12991   0.13746   0.14824   0.15042

 Mulliken charges and spin densities:
               1          2
     1  C    0.793017  -1.399238
     2  C   -0.282324  -0.007521
     3  C    0.125473  -0.497664
     4  C   -0.957729  -0.230808
     5  C    1.864339  -0.129507
     6  C   -0.932145   0.324635
     7  C    0.618353  -0.606456
     8  C   -0.947005   0.744240
     9  C   -0.388454  -0.027555
    10  C    0.047878  -0.244711
    11  C   -0.177718   0.270209
    12  N    0.018476   0.118005
    13  H   -0.176080   0.309388
    14  H   -0.399180   0.537763
    15  H    0.014820   0.122874
    16  H    0.157955  -0.006412
    17  H    0.146179   0.027544
    18  H    0.145738  -0.009656
    19  H   -0.152556   0.331063
    20  H   -0.395699   0.553621
    21  H    0.085804   0.033081
    22  H   -0.331781   0.511318
    23  H   -0.053397   0.190363
    24  H    0.065759   0.060123
    25  H    0.110276   0.025301
 Sum of Mulliken charges =  -1.00000   1.00000

 Dipole moment (field-independent basis, Debye):
    X=              3.6479    Y=             -1.7069    Z=              0.2543  Tot=              4.0355
 Quadrupole moment (field-independent basis, Debye-Ang):
   XX=           -123.0354   YY=           -105.4849   ZZ=            -92.7598
   XY=              6.2761   XZ=             -5.6159   YZ=             -3.5935

 Summary of Natural Population Analysis:

                                       Natural Population
                Natural  -----------------------------------------------
    Atom  No    Charge         Core      Valence    Rydberg      Total
 -----------------------------------------------------------------------
      C    1   -0.18262      0.99962     2.17417    0.00884     3.18262
      C    2   -0.18461      0.99962     2.17549    0.00951     3.18461
      C    3   -0.20642      0.99959     2.19791    0.00893     3.20642
      C    4    0.10960      0.99949     1.87702    0.01389     2.89040
      C    5   -0.04519      0.99945     2.03564    0.01010     3.04519
      C    6   -0.10203      0.99951     2.09075    0.01178     3.10203
      C    7   -0.06317      0.99953     2.05342    0.01023     3.06317
      C    8   -0.21601      0.99962     2.20591    0.01048     3.21601
      C    9   -0.03589      0.99952     2.02634    0.01002     3.03589
      C   10   -0.14393      0.99956     2.13550    0.00888     3.14393
      C   11    0.04938      0.99960     1.93577    0.01525     2.95062
      N   12   -0.22751      0.99968     2.71628    0.01155     3.72751
      H   13    0.09309      0.00000     0.40542    0.00149     0.40691
      H   14    0.09662      0.00000     0.40170    0.00168     0.40338
      H   15    0.09310      0.00000     0.40592    0.00099     0.40690
      H   16    0.09587      0.00000     0.40273    0.00140     0.40413
      H   17    0.10408      0.00000     0.39440    0.00152     0.39592
      H   18    0.10225      0.00000     0.39652    0.00123     0.39775
      H   19    0.09820      0.00000     0.40026    0.00154     0.40180
      H   20    0.09174      0.00000     0.40665    0.00161     0.40826
      H   21    0.10074      0.00000     0.39781    0.00145     0.39926
      H   22    0.10260      0.00000     0.39569    0.00171     0.39740
      H   23    0.09463      0.00000     0.40441    0.00096     0.40537
      H   24    0.09567      0.00000     0.40337    0.00096     0.40433
      H   25    0.07984      0.00000     0.41908    0.00108     0.42016
 =======================================================================
   * Total *   -0.00000     11.99476    30.85817    0.14707    43.00000

 Normal termination of Gaussian 16 at Wed Dec  9 17:57:42 2020.
