 Gaussian 16, Revision A.03,

 -----------------------------------------------------------
 # opt freq B3LYP/6-31G(d) empiricaldispersion=gd3bj scf=xqc
 -----------------------------------------------------------

 -------------------------------
 CID_123554834_JID_2177_neutraal
 -------------------------------
 Symbolic Z-matrix:
 Charge =  0 Multiplicity = 1

 SCF Done:  E(RB3LYP) =  -897.638819058     A.U. after   15 cycles
 SCF Done:  E(RB3LYP) =  -897.641208519     A.U. after   12 cycles
 SCF Done:  E(RB3LYP) =  -897.640761635     A.U. after   12 cycles
 SCF Done:  E(RB3LYP) =  -897.641619466     A.U. after   12 cycles
 SCF Done:  E(RB3LYP) =  -897.641668158     A.U. after   11 cycles
 SCF Done:  E(RB3LYP) =  -897.641721008     A.U. after   11 cycles
 SCF Done:  E(RB3LYP) =  -897.641741333     A.U. after   11 cycles
 SCF Done:  E(RB3LYP) =  -897.641749651     A.U. after   10 cycles
 SCF Done:  E(RB3LYP) =  -897.641764083     A.U. after   10 cycles
 SCF Done:  E(RB3LYP) =  -897.641766055     A.U. after    9 cycles
 SCF Done:  E(RB3LYP) =  -897.641777410     A.U. after   11 cycles
 SCF Done:  E(RB3LYP) =  -897.641781267     A.U. after   11 cycles
 SCF Done:  E(RB3LYP) =  -897.641782287     A.U. after    8 cycles
 SCF Done:  E(RB3LYP) =  -897.641782564     A.U. after    8 cycles
 SCF Done:  E(RB3LYP) =  -897.641782597     A.U. after    7 cycles
 SCF Done:  E(RB3LYP) =  -897.641782604     A.U. after    6 cycles
 Optimization completed.
    -- Stationary point found.
 Normal termination of Gaussian 16 at Wed Dec  9 16:53:00 2020.

 --------------------------------------------------------------------
 #N Geom=AllCheck Guess=TCheck SCRF=Check GenChk RB3LYP/6-31G(d) Freq
 --------------------------------------------------------------------

 Structure from the checkpoint file:  "JID_2177.chk"
 -------------------------------
 CID_123554834_JID_2177_neutraal
 -------------------------------
 Charge =  0 Multiplicity = 1

 SCF Done:  E(RB3LYP) =  -897.641782604     A.U. after    1 cycles

  Exact polarizability: 167.889  10.051 111.993  -9.550  10.103  69.358
 Approx polarizability: 228.778  17.339 189.510 -17.753  27.222 114.895

                      1                      2                      3
                      A                      A                      A
 Frequencies --     17.6302                32.0859                52.2655
 Red. masses --      3.9598                 8.4733                10.4087
 Frc consts  --      0.0007                 0.0051                 0.0168
 IR Inten    --      0.0640                 0.7221                 0.9662

                      4                      5                      6
                      A                      A                      A
 Frequencies --     85.0401                94.0388               149.2269
 Red. masses --      3.8681                 2.6153                 4.8806
 Frc consts  --      0.0165                 0.0136                 0.0640
 IR Inten    --      0.2968                 0.8035                 1.1741

                      7                      8                      9
                      A                      A                      A
 Frequencies --    219.8505               286.7389               310.4602
 Red. masses --      2.8967                 3.4232                 4.6918
 Frc consts  --      0.0825                 0.1658                 0.2664
 IR Inten    --      1.0358                 1.0554                 0.8667

                     10                     11                     12
                      A                      A                      A
 Frequencies --    371.8403               433.2718               461.4622
 Red. masses --      3.1935                 3.7053                 4.3205
 Frc consts  --      0.2602                 0.4098                 0.5421
 IR Inten    --      2.2718                 3.0759                 1.2780

                     13                     14                     15
                      A                      A                      A
 Frequencies --    504.6191               530.2771               609.1442
 Red. masses --      2.4273                 2.2077                 6.7738
 Frc consts  --      0.3642                 0.3658                 1.4809
 IR Inten    --     31.5388                18.6917                 2.2863

                     16                     17                     18
                      A                      A                      A
 Frequencies --    617.7419               647.5024               676.5915
 Red. masses --      3.4158                 2.5237                 1.2447
 Frc consts  --      0.7680                 0.6234                 0.3357
 IR Inten    --     13.0514                10.5578                 7.0127

                     19                     20                     21
                      A                      A                      A
 Frequencies --    685.2563               704.9142               782.7876
 Red. masses --      1.4493                 5.0345                 1.3482
 Frc consts  --      0.4010                 1.4739                 0.4867
 IR Inten    --    100.3811                 1.8047                65.4072

                     22                     23                     24
                      A                      A                      A
 Frequencies --    813.2339               847.3506               858.6931
 Red. masses --      2.8083                 4.5674                 1.8392
 Frc consts  --      1.0943                 1.9322                 0.7990
 IR Inten    --     18.4803                20.5525                 0.7533

                     25                     26                     27
                      A                      A                      A
 Frequencies --    879.2350               887.3651               895.5695
 Red. masses --      2.3977                 4.2861                 1.4232
 Frc consts  --      1.0921                 1.9885                 0.6725
 IR Inten    --     18.2642                 9.1233                 0.6075

                     28                     29                     30
                      A                      A                      A
 Frequencies --    968.7818              1009.7384              1016.8909
 Red. masses --      2.6136                 2.0731                 1.1263
 Frc consts  --      1.4452                 1.2453                 0.6862
 IR Inten    --      1.1048                 3.0728                24.9608

                     31                     32                     33
                      A                      A                      A
 Frequencies --   1049.1667              1111.9149              1119.4341
 Red. masses --      2.3817                 2.9546                 1.1054
 Frc consts  --      1.5447                 2.1522                 0.8161
 IR Inten    --      5.2607                69.3244                 7.3939

                     34                     35                     36
                      A                      A                      A
 Frequencies --   1171.5824              1204.4469              1214.4988
 Red. masses --      2.0123                 1.8445                 1.2989
 Frc consts  --      1.6274                 1.5765                 1.1288
 IR Inten    --    234.0242                 1.1647                41.2931

                     37                     38                     39
                      A                      A                      A
 Frequencies --   1237.7273              1268.4740              1326.8047
 Red. masses --      1.3389                 1.3572                 1.4078
 Frc consts  --      1.2085                 1.2867                 1.4602
 IR Inten    --      6.6093                17.1540                 8.0826

                     40                     41                     42
                      A                      A                      A
 Frequencies --   1335.1244              1361.6282              1382.3598
 Red. masses --      1.2816                 1.3945                 1.5003
 Frc consts  --      1.3460                 1.5233                 1.6891
 IR Inten    --      5.9566                10.9968                 9.0398

                     43                     44                     45
                      A                      A                      A
 Frequencies --   1426.5808              1438.2519              1473.7075
 Red. masses --      2.4386                 2.1945                 6.0520
 Frc consts  --      2.9240                 2.6746                 7.7442
 IR Inten    --     49.8305                11.9392                14.1834

                     46                     47                     48
                      A                      A                      A
 Frequencies --   1486.8004              1505.0533              1592.9009
 Red. masses --      1.0999                 1.1052                 5.6944
 Frc consts  --      1.4326                 1.4750                 8.5129
 IR Inten    --     16.2192                11.8820                 1.2866

                     49                     50                     51
                      A                      A                      A
 Frequencies --   1734.9447              1842.5954              3045.9929
 Red. masses --      5.8506                 9.4381                 1.0610
 Frc consts  --     10.3758                18.8797                 5.8001
 IR Inten    --      1.3318               235.6472                21.0141

                     52                     53                     54
                      A                      A                      A
 Frequencies --   3054.5302              3089.4062              3100.9693
 Red. masses --      1.0642                 1.1008                 1.0991
 Frc consts  --      5.8499                 6.1901                 6.2271
 IR Inten    --     26.2090                14.0201                15.2299

                     55                     56                     57
                      A                      A                      A
 Frequencies --   3141.8593              3183.0686              3215.1431
 Red. masses --      1.0885                 1.0881                 1.0911
 Frc consts  --      6.3309                 6.4952                 6.6451
 IR Inten    --     21.2185                12.5974                 6.5035

                     58                     59                     60
                      A                      A                      A
 Frequencies --   3271.5181              3274.3633              3684.2767
 Red. masses --      1.0926                 1.0971                 1.0640
 Frc consts  --      6.8899                 6.9305                 8.5091
 IR Inten    --      0.6623                 1.1874                45.7084

 - Thermochemistry -
 -------------------
 Temperature   298.150 Kelvin.  Pressure   1.00000 Atm.
 Atom     1 has atomic number  6 and mass  12.00000

 Molecular mass:   182.04015 amu.
 Principal axes and moments of inertia in atomic units:
                           1         2         3
     Eigenvalues --   912.193506260.436586758.31588
           X            1.00000  -0.00059  -0.00140
           Y            0.00060   0.99999   0.00518
           Z            0.00140  -0.00518   0.99999
 This molecule is an asymmetric top.
 Rotational symmetry number  1.
 Warning -- assumption of classical behavior for rotation
           may cause significant error
 Rotational temperatures (Kelvin)      0.09495     0.01384     0.01282
 Rotational constants (GHZ):           1.97846     0.28828     0.26704
 Zero-point vibrational energy     453353.2 (Joules/Mol)
                                  108.35400 (Kcal/Mol)
 Warning -- explicit consideration of  16 degrees of freedom as
           vibrations may cause significant error
 Vibrational temperatures:     25.37    46.16    75.20   122.35   135.30
          (Kelvin)            214.70   316.32   412.55   446.68   535.00
                              623.38   663.94   726.03   762.95   876.42
                              888.79   931.61   973.46   985.93  1014.21
                             1126.26  1170.06  1219.15  1235.47  1265.02
                             1276.72  1288.52  1393.86  1452.79  1463.08
                             1509.52  1599.80  1610.62  1685.65  1732.93
                             1747.39  1780.81  1825.05  1908.98  1920.95
                             1959.08  1988.91  2052.53  2069.32  2120.34
                             2139.17  2165.44  2291.83  2496.20  2651.08
                             4382.50  4394.79  4444.97  4461.60  4520.43
                             4579.73  4625.87  4706.98  4711.08  5300.85

 Zero-point correction=                           0.172673 (Hartree/Particle)
 Thermal correction to Energy=                    0.184524
 Thermal correction to Enthalpy=                  0.185468
 Thermal correction to Gibbs Free Energy=         0.131389
 Sum of electronic and zero-point Energies=           -897.469110
 Sum of electronic and thermal Energies=              -897.457258
 Sum of electronic and thermal Enthalpies=            -897.456314
 Sum of electronic and thermal Free Energies=         -897.510393

                     E (Thermal)             CV                S
                      KCal/Mol        Cal/Mol-Kelvin    Cal/Mol-Kelvin
 Total                  115.791             43.060            113.819
 Electronic               0.000              0.000              0.000
 Translational            0.889              2.981             41.504
 Rotational               0.889              2.981             32.023
 Vibrational            114.013             37.098             40.292
 Vibration     1          0.593              1.986              6.885
 Vibration     2          0.594              1.983              5.696
 Vibration     3          0.596              1.977              4.730
 Vibration     4          0.601              1.960              3.771
 Vibration     5          0.603              1.953              3.574
 Vibration     6          0.618              1.904              2.682
 Vibration     7          0.647              1.811              1.960
 Vibration     8          0.684              1.698              1.493
 Vibration     9          0.699              1.654              1.360
 Vibration    10          0.744              1.530              1.072
 Vibration    11          0.794              1.398              0.848
 Vibration    12          0.819              1.336              0.762
 Vibration    13          0.860              1.240              0.647
 Vibration    14          0.885              1.183              0.587
 Vibration    15          0.968              1.012              0.434
 Vibration    16          0.978              0.994              0.420

 Optimization completed.
    -- Stationary point found.
 Normal termination of Gaussian 16 at Wed Dec  9 16:56:56 2020.

 ----------------------------------------------------------------------
 # B3LYP/6-311++G(d,p) empiricaldispersion=gd3bj scf=xqc pop=npa geom=c
 heck
 ----------------------------------------------------------------------

 ---------------------------------------
 CID_123554834_JID_2177_Energie_neutraal
 ---------------------------------------
 Structure from the checkpoint file:  "JID_2177.chk"
 Charge =  0 Multiplicity = 1

 SCF Done:  E(RB3LYP) =  -897.818579492     A.U. after   15 cycles
 Normal termination of Gaussian 16 at Wed Dec  9 16:58:43 2020.

 ----------------------------------------------------------------------
 # B3LYP/6-311++G(d,p) empiricaldispersion=gd3bj scf=xqc pop=npa geom=c
 heck
 ----------------------------------------------------------------------

 -------------------------------------
 CID_123554834_JID_2177_Energie_kation
 -------------------------------------
 Structure from the checkpoint file:  "JID_2177.chk"
 Charge =  1 Multiplicity = 2

 SCF Done:  E(UB3LYP) =  -897.530242080     A.U. after   24 cycles
 Normal termination of Gaussian 16 at Wed Dec  9 17:03:35 2020.
 Gaussian 16:  ES64L-G16RevA.03 25-Dec-2016

 ----------------------------------------------------------------------
 # B3LYP/6-311++G(d,p) empiricaldispersion=gd3bj scf=xqc pop=npa geom=c
 heck
 ----------------------------------------------------------------------

 ------------------------------------
 CID_123554834_JID_2177_Energie_anion
 ------------------------------------
 Structure from the checkpoint file:  "JID_2177.chk"
 Charge = -1 Multiplicity = 2

                         Standard orientation:
 ---------------------------------------------------------------------
 Center     Atomic      Atomic             Coordinates (Angstroms)
 Number     Number       Type             X           Y           Z
 ---------------------------------------------------------------------
      1          6           0       -2.878372    1.192519    0.469405
      2          6           0       -3.988008    0.401525    0.536420
      3         16           0       -3.655023   -1.202968   -0.036778
      4          6           0       -2.006986   -0.792895   -0.364649
      5          6           0       -1.718604    0.516331   -0.047415
      6          6           0       -0.423243    1.183912   -0.194834
      7          6           0        0.735605    0.612331   -0.549961
      8          6           0        2.035054    1.353471   -0.678919
      9          6           0        3.088862    0.899126    0.343306
     10          6           0        3.559077   -0.520652    0.119313
     11          8           0        3.270655   -1.230315   -0.820092
     12          8           0        4.386124   -0.931553    1.111969
     13          1           0       -2.866181    2.232436    0.778976
     14          1           0       -4.977871    0.660503    0.885818
     15          1           0       -1.342455   -1.535822   -0.783031
     16          1           0       -0.432021    2.254528    0.013268
     17          1           0        0.780916   -0.455612   -0.753409
     18          1           0        2.447583    1.205452   -1.685332
     19          1           0        1.865269    2.428592   -0.549665
     20          1           0        3.976436    1.544400    0.301333
     21          1           0        2.704169    0.976536    1.366760
     22          1           0        4.649982   -1.842577    0.882706
 ---------------------------------------------------------------------

 SCF Done:  E(UB3LYP) =  -897.812806898     A.U. after   31 cycles

 The electronic state is 2-A.
 Alpha  occ. eigenvalues --  -88.75129 -19.05936 -19.00548 -10.19604 -10.07691
 Alpha  occ. eigenvalues --  -10.07277 -10.05969 -10.05967 -10.05729 -10.05347
 Alpha  occ. eigenvalues --  -10.03998 -10.03318  -7.83770  -5.80058  -5.79693
 Alpha  occ. eigenvalues --   -5.79400  -1.00003  -0.91077  -0.75885  -0.69534
 Alpha  occ. eigenvalues --   -0.65342  -0.61172  -0.59835  -0.54699  -0.48429
 Alpha  occ. eigenvalues --   -0.45925  -0.43602  -0.41754  -0.39472  -0.38044
 Alpha  occ. eigenvalues --   -0.37107  -0.36381  -0.31910  -0.31102  -0.29509
 Alpha  occ. eigenvalues --   -0.28593  -0.27655  -0.26787  -0.26318  -0.25796
 Alpha  occ. eigenvalues --   -0.23825  -0.23488  -0.21768  -0.21219  -0.17533
 Alpha  occ. eigenvalues --   -0.17366  -0.13136  -0.09503   0.04663
 Alpha virt. eigenvalues --    0.06843   0.07852   0.08038   0.09482   0.10326
 Alpha virt. eigenvalues --    0.10518   0.11061   0.11640   0.11914   0.12704
 Alpha virt. eigenvalues --    0.13255   0.13895   0.14367   0.14959   0.15055

  Beta  occ. eigenvalues --  -88.75090 -19.05888 -19.00530 -10.19594 -10.07612
  Beta  occ. eigenvalues --  -10.07220 -10.06000 -10.05976 -10.05438 -10.05327
  Beta  occ. eigenvalues --  -10.03911 -10.03160  -7.83735  -5.80042  -5.79678
  Beta  occ. eigenvalues --   -5.79268  -0.99934  -0.91018  -0.75690  -0.69368
  Beta  occ. eigenvalues --   -0.65127  -0.60989  -0.59559  -0.54545  -0.48184
  Beta  occ. eigenvalues --   -0.45649  -0.43472  -0.41546  -0.39393  -0.37982
  Beta  occ. eigenvalues --   -0.37015  -0.36271  -0.31818  -0.31016  -0.29400
  Beta  occ. eigenvalues --   -0.28479  -0.27518  -0.26531  -0.25975  -0.25646
  Beta  occ. eigenvalues --   -0.23751  -0.23334  -0.21690  -0.21080  -0.17312
  Beta  occ. eigenvalues --   -0.16795  -0.12494  -0.08399
  Beta virt. eigenvalues --    0.07648   0.07923   0.08697   0.09023   0.09667
  Beta virt. eigenvalues --    0.10276   0.10682   0.11135   0.11826   0.12486
  Beta virt. eigenvalues --    0.12915   0.13320   0.13901   0.14410   0.15001

 Mulliken charges and spin densities:
               1          2
     1  C   -0.794020  -0.037374
     2  C    0.058453   0.032932
     3  S   -0.628850   0.057329
     4  C    0.607110   0.316844
     5  C    0.286104  -0.137526
     6  C   -0.535842  -0.094214
     7  C   -0.033032   0.194441
     8  C   -0.422066   0.232052
     9  C    0.981234  -1.249573
    10  C    0.003641  -0.096103
    11  O   -0.293116  -0.001133
    12  O   -0.210622   0.056689
    13  H    0.092149   0.006927
    14  H    0.210758  -0.004179
    15  H    0.269095   0.000087
    16  H    0.088281   0.019365
    17  H    0.082903  -0.023515
    18  H    0.053978   0.116456
    19  H    0.128149   0.001972
    20  H   -0.630664   0.824295
    21  H    0.112331   0.072666
    22  H   -0.425973   0.711563
 Sum of Mulliken charges =  -1.00000   1.00000

 Dipole moment (field-independent basis, Debye):
    X=             -6.4013    Y=              1.9035    Z=              0.0495  Tot=              6.6785
 Quadrupole moment (field-independent basis, Debye-Ang):
   XX=           -159.5295   YY=            -98.9747   ZZ=            -97.5911
   XY=              2.1411   XZ=             -6.2945   YZ=              3.1364

 Summary of Natural Population Analysis:

                                       Natural Population
                Natural  -----------------------------------------------
    Atom  No    Charge         Core      Valence    Rydberg      Total
 -----------------------------------------------------------------------
      C    1   -0.12520      0.99951     2.11665    0.00905     3.12520
      C    2   -0.19809      0.99955     2.18703    0.01151     3.19809
      S    3    0.19653      4.99946     2.77913    0.02488     7.80347
      C    4   -0.13010      0.99949     2.12109    0.00952     3.13010
      C    5   -0.06409      0.99949     2.05432    0.01027     3.06409
      C    6   -0.09073      0.99950     2.08308    0.00816     3.09073
      C    7   -0.05756      0.99953     2.04869    0.00935     3.05756
      C    8   -0.20498      0.99962     2.19403    0.01133     3.20498
      C    9   -0.23572      0.99957     2.22732    0.00883     3.23572
      C   10    0.41101      0.99972     1.56444    0.02483     2.58899
      O   11   -0.31049      0.99987     3.30459    0.00603     4.31049
      O   12   -0.34653      0.99988     3.33992    0.00674     4.34653
      H   13    0.09970      0.00000     0.39930    0.00100     0.40030
      H   14    0.10079      0.00000     0.39828    0.00093     0.39921
      H   15    0.10500      0.00000     0.39420    0.00080     0.39500
      H   16    0.08512      0.00000     0.41334    0.00154     0.41488
      H   17    0.09465      0.00000     0.40354    0.00182     0.40535
      H   18    0.10505      0.00000     0.39385    0.00110     0.39495
      H   19    0.09627      0.00000     0.40272    0.00101     0.40373
      H   20    0.11585      0.00000     0.38084    0.00331     0.38415
      H   21    0.11197      0.00000     0.38687    0.00117     0.38803
      H   22    0.24156      0.00000     0.24312    0.01533     0.25844
 =======================================================================
   * Total *    0.00000     15.99518    31.83633    0.16849    48.00000

 Normal termination of Gaussian 16 at Wed Dec  9 17:10:04 2020.
