 Gaussian 16, Revision A.03,

 -----------------------------------------------------------
 # opt freq B3LYP/6-31G(d) empiricaldispersion=gd3bj scf=xqc
 -----------------------------------------------------------

 -------------------------------
 CID_105467035_JID_5945_neutraal
 -------------------------------
 Symbolic Z-matrix:
 Charge =  0 Multiplicity = 1

 SCF Done:  E(RB3LYP) =  -676.396849959     A.U. after   14 cycles
 SCF Done:  E(RB3LYP) =  -676.401477691     A.U. after   12 cycles
 SCF Done:  E(RB3LYP) =  -676.402167566     A.U. after   12 cycles
 SCF Done:  E(RB3LYP) =  -676.402863522     A.U. after   12 cycles
 SCF Done:  E(RB3LYP) =  -676.403317646     A.U. after   12 cycles
 SCF Done:  E(RB3LYP) =  -676.403576490     A.U. after   12 cycles
 SCF Done:  E(RB3LYP) =  -676.403722597     A.U. after   10 cycles
 SCF Done:  E(RB3LYP) =  -676.403805203     A.U. after   10 cycles
 SCF Done:  E(RB3LYP) =  -676.403842489     A.U. after   10 cycles
 SCF Done:  E(RB3LYP) =  -676.403861060     A.U. after   10 cycles
 SCF Done:  E(RB3LYP) =  -676.403874434     A.U. after    9 cycles
 SCF Done:  E(RB3LYP) =  -676.403876665     A.U. after    9 cycles
 SCF Done:  E(RB3LYP) =  -676.403878119     A.U. after    8 cycles
 SCF Done:  E(RB3LYP) =  -676.403878310     A.U. after    7 cycles
 SCF Done:  E(RB3LYP) =  -676.403878362     A.U. after    7 cycles
 SCF Done:  E(RB3LYP) =  -676.403878356     A.U. after    6 cycles
 Optimization completed.
    -- Stationary point found.
 Normal termination of Gaussian 16 at Thu Dec 10 17:43:57 2020.

 --------------------------------------------------------------------
 #N Geom=AllCheck Guess=TCheck SCRF=Check GenChk RB3LYP/6-31G(d) Freq
 --------------------------------------------------------------------

 Structure from the checkpoint file:  "JID_5945.chk"
 -------------------------------
 CID_105467035_JID_5945_neutraal
 -------------------------------
 Charge =  0 Multiplicity = 1

 SCF Done:  E(RB3LYP) =  -676.403878356     A.U. after    1 cycles

  Exact polarizability: 153.407  -2.237 127.047  -5.430  -3.480 122.908
 Approx polarizability: 189.068  -1.800 186.927 -12.715  -9.156 182.277

                      1                      2                      3
                      A                      A                      A
 Frequencies --     26.2050                36.8050                46.6041
 Red. masses --      3.8652                 3.0370                 3.3117
 Frc consts  --      0.0016                 0.0024                 0.0042
 IR Inten    --      0.1393                 0.2652                 0.0831

                      4                      5                      6
                      A                      A                      A
 Frequencies --     80.8245               104.1710               123.3356
 Red. masses --      4.5433                 2.7820                 3.2309
 Frc consts  --      0.0175                 0.0178                 0.0290
 IR Inten    --      2.2784                 0.5124                 0.7747

                      7                      8                      9
                      A                      A                      A
 Frequencies --    133.9828               193.6338               211.8326
 Red. masses --      3.2372                 2.8135                 1.0843
 Frc consts  --      0.0342                 0.0622                 0.0287
 IR Inten    --      0.2347                 1.6099                 0.0209

                     10                     11                     12
                      A                      A                      A
 Frequencies --    222.5112               256.8858               274.9564
 Red. masses --      3.6731                 1.0575                 1.0717
 Frc consts  --      0.1071                 0.0411                 0.0477
 IR Inten    --      4.0187                 0.0310                 0.0142

                     13                     14                     15
                      A                      A                      A
 Frequencies --    275.5987               289.3819               300.9070
 Red. masses --      1.1483                 2.3734                 2.3666
 Frc consts  --      0.0514                 0.1171                 0.1263
 IR Inten    --      0.1783                 0.2351                 0.2813

                     16                     17                     18
                      A                      A                      A
 Frequencies --    324.3045               326.9116               352.5165
 Red. masses --      2.2713                 3.1434                 2.4916
 Frc consts  --      0.1407                 0.1979                 0.1824
 IR Inten    --      0.4059                 7.1109                 2.0512

                     19                     20                     21
                      A                      A                      A
 Frequencies --    381.8305               393.1665               410.8490
 Red. masses --      2.1665                 2.0773                 2.2039
 Frc consts  --      0.1861                 0.1892                 0.2192
 IR Inten    --      0.1285                 1.0014                 1.5524

                     22                     23                     24
                      A                      A                      A
 Frequencies --    432.6203               463.1192               515.5101
 Red. masses --      2.7053                 2.9484                 1.8490
 Frc consts  --      0.2983                 0.3726                 0.2895
 IR Inten    --      2.7039                 3.4270                43.3487

                     25                     26                     27
                      A                      A                      A
 Frequencies --    537.8577               586.2914               621.8408
 Red. masses --      2.1426                 2.2790                 3.4934
 Frc consts  --      0.3652                 0.4616                 0.7959
 IR Inten    --     47.6873                32.3270                 2.9545

                     28                     29                     30
                      A                      A                      A
 Frequencies --    642.5746               715.0522               774.0327
 Red. masses --      2.2902                 1.4877                 9.3522
 Frc consts  --      0.5571                 0.4482                 3.3013
 IR Inten    --     27.5247                 0.5091                35.0659

                     31                     32                     33
                      A                      A                      A
 Frequencies --    787.5764               802.4430               848.4019
 Red. masses --      3.7234                 1.3266                 2.4786
 Frc consts  --      1.3607                 0.5033                 1.0511
 IR Inten    --      4.1916                 1.0215                 8.5804

                     34                     35                     36
                      A                      A                      A
 Frequencies --    862.1297               874.5031               908.2933
 Red. masses --      2.2212                 2.5282                 1.9902
 Frc consts  --      0.9727                 1.1392                 0.9674
 IR Inten    --      0.8481                 0.9012                 0.7312

                     37                     38                     39
                      A                      A                      A
 Frequencies --    914.5718               931.8169               937.4952
 Red. masses --      2.3319                 1.9430                 1.6363
 Frc consts  --      1.1492                 0.9940                 0.8473
 IR Inten    --      1.5952                 0.5133                 0.0675

                     40                     41                     42
                      A                      A                      A
 Frequencies --    938.3410               954.7360               982.4310
 Red. masses --      1.6262                 2.4494                 1.1983
 Frc consts  --      0.8436                 1.3154                 0.6815
 IR Inten    --      0.2382                 1.0633                 0.3253

                     43                     44                     45
                      A                      A                      A
 Frequencies --    995.6409               997.9591              1022.9088
 Red. masses --      1.9482                 2.2569                 1.6310
 Frc consts  --      1.1378                 1.3243                 1.0055
 IR Inten    --     14.8528                 1.6498                11.2072

                     46                     47                     48
                      A                      A                      A
 Frequencies --   1047.6997              1067.1513              1074.2766
 Red. masses --      1.8180                 1.4019                 1.4556
 Frc consts  --      1.1758                 0.9406                 0.9898
 IR Inten    --     33.6639                 0.3071                 2.2258

                     49                     50                     51
                      A                      A                      A
 Frequencies --   1100.0555              1152.2564              1176.1458
 Red. masses --      1.5784                 2.7122                 2.0245
 Frc consts  --      1.1254                 2.1217                 1.6500
 IR Inten    --     27.5707                73.4368                 1.6578

                     52                     53                     54
                      A                      A                      A
 Frequencies --   1203.3985              1220.6645              1225.3784
 Red. masses --      2.2455                 1.3956                 2.0708
 Frc consts  --      1.9159                 1.2252                 1.8321
 IR Inten    --      5.0791                46.1638               208.1923

                     55                     56                     57
                      A                      A                      A
 Frequencies --   1243.6608              1272.7805              1275.6173
 Red. masses --      2.0601                 1.4087                 1.5128
 Frc consts  --      1.8774                 1.3445                 1.4504
 IR Inten    --      1.6456                12.0530                 7.2910

                     58                     59                     60
                      A                      A                      A
 Frequencies --   1277.4479              1286.5982              1294.8376
 Red. masses --      1.2204                 2.6872                 1.9108
 Frc consts  --      1.1734                 2.6208                 1.8875
 IR Inten    --      6.7714                15.9973                29.2381

                     61                     62                     63
                      A                      A                      A
 Frequencies --   1301.8457              1328.2119              1339.6140
 Red. masses --      2.0821                 1.6553                 1.3613
 Frc consts  --      2.0791                 1.7205                 1.4393
 IR Inten    --      8.3490                15.8314                 6.7091

                     64                     65                     66
                      A                      A                      A
 Frequencies --   1382.4578              1406.7048              1423.0918
 Red. masses --      2.1686                 1.5358                 1.2862
 Frc consts  --      2.4420                 1.7906                 1.5347
 IR Inten    --    270.4612                 2.9609                16.7726

                     67                     68                     69
                      A                      A                      A
 Frequencies --   1425.8539              1438.4459              1442.7631
 Red. masses --      1.2891                 1.2876                 1.5354
 Frc consts  --      1.5441                 1.5697                 1.8831
 IR Inten    --     21.7342                20.9083                73.3735

                     70                     71                     72
                      A                      A                      A
 Frequencies --   1451.8091              1484.1311              1499.5140
 Red. masses --      1.2409                 1.4440                 1.0475
 Frc consts  --      1.5411                 1.8739                 1.3877
 IR Inten    --     33.2797                29.9105                 1.1379

                     73                     74                     75
                      A                      A                      A
 Frequencies --   1506.1110              1514.5292              1515.6412
 Red. masses --      1.0816                 1.1016                 1.0813
 Frc consts  --      1.4455                 1.4887                 1.4635
 IR Inten    --      2.9013                 1.6035                 0.1112

                     76                     77                     78
                      A                      A                      A
 Frequencies --   1519.9568              1520.4705              1523.9572
 Red. masses --      1.0485                 1.0530                 1.0856
 Frc consts  --      1.4272                 1.4342                 1.4854
 IR Inten    --      1.1105                 0.9360                 9.0233

                     79                     80                     81
                      A                      A                      A
 Frequencies --   1526.3787              1529.3346              1530.0868
 Red. masses --      1.1134                 1.0564                 1.0685
 Frc consts  --      1.5283                 1.4558                 1.4739
 IR Inten    --     52.8078                 2.8841                 1.2384

                     82                     83                     84
                      A                      A                      A
 Frequencies --   1535.3442              1544.7801              1557.7613
 Red. masses --      1.0531                 1.1323                 1.0578
 Frc consts  --      1.4626                 1.5921                 1.5123
 IR Inten    --      1.4877                 1.6114                19.3563

                     85                     86                     87
                      A                      A                      A
 Frequencies --   1802.2662              3023.2651              3035.9159
 Red. masses --      8.3820                 1.0639                 1.0366
 Frc consts  --     16.0411                 5.7296                 5.6291
 IR Inten    --    357.1146                22.1030                39.6801

                     88                     89                     90
                      A                      A                      A
 Frequencies --   3056.9688              3058.3643              3063.5385
 Red. masses --      1.0360                 1.0382                 1.0597
 Frc consts  --      5.7042                 5.7216                 5.8596
 IR Inten    --      8.5523                25.2817                33.3546

                     91                     92                     93
                      A                      A                      A
 Frequencies --   3065.7175              3070.6630              3071.4835
 Red. masses --      1.0386                 1.0848                 1.0658
 Frc consts  --      5.7511                 6.0267                 5.9241
 IR Inten    --     19.0902                 6.7771                32.4088

                     94                     95                     96
                      A                      A                      A
 Frequencies --   3080.9323              3084.6955              3100.2229
 Red. masses --      1.0642                 1.0702                 1.1021
 Frc consts  --      5.9516                 5.9998                 6.2413
 IR Inten    --     33.2598                50.7730                36.4367

                     97                     98                     99
                      A                      A                      A
 Frequencies --   3104.2883              3107.4521              3119.7926
 Red. masses --      1.1068                 1.1016                 1.1025
 Frc consts  --      6.2840                 6.2674                 6.3226
 IR Inten    --     33.3509                34.2520                 8.9880

                    100                    101                    102
                      A                      A                      A
 Frequencies --   3122.5559              3123.0190              3126.3011
 Red. masses --      1.1023                 1.1059                 1.1064
 Frc consts  --      6.3323                 6.3551                 6.3714
 IR Inten    --     18.9816                38.5975                32.7401

                    103                    104                    105
                      A                      A                      A
 Frequencies --   3132.9935              3137.1254              3157.8541
 Red. masses --      1.1030                 1.1025                 1.0974
 Frc consts  --      6.3791                 6.3929                 6.4479
 IR Inten    --     37.3544                45.3077                21.2531

                    106                    107                    108
                      A                      A                      A
 Frequencies --   3174.9851              3178.3543              3634.8765
 Red. masses --      1.0992                 1.0988                 1.0765
 Frc consts  --      6.5285                 6.5402                 8.3800
 IR Inten    --      1.1756                 8.5937                25.1231

 - Thermochemistry -
 -------------------
 Temperature   298.150 Kelvin.  Pressure   1.00000 Atm.
 Atom     1 has atomic number  6 and mass  12.00000

 Molecular mass:   213.17288 amu.
 Principal axes and moments of inertia in atomic units:
                           1         2         3
     Eigenvalues --  1699.563405441.125535690.02773
           X            0.99998  -0.00596  -0.00217
           Y            0.00597   0.99997   0.00528
           Z            0.00214  -0.00529   0.99998
 This molecule is an asymmetric top.
 Rotational symmetry number  1.
 Warning -- assumption of classical behavior for rotation
           may cause significant error
 Rotational temperatures (Kelvin)      0.05096     0.01592     0.01522
 Rotational constants (GHZ):           1.06189     0.33169     0.31718
 Zero-point vibrational energy     900882.3 (Joules/Mol)
                                  215.31603 (Kcal/Mol)
 Warning -- explicit consideration of  26 degrees of freedom as
           vibrations may cause significant error
 Vibrational temperatures:     37.70    52.95    67.05   116.29   149.88
          (Kelvin)            177.45   192.77   278.60   304.78   320.14
                              369.60   395.60   396.53   416.36   432.94
                              466.60   470.35   507.19   549.37   565.68
                              591.12   622.44   666.33   741.70   773.86
                              843.54   894.69   924.52  1028.80  1113.66
                             1133.15  1154.54  1220.66  1240.41  1258.21
                             1306.83  1315.86  1340.68  1348.85  1350.06
                             1373.65  1413.50  1432.51  1435.84  1471.74
                             1507.41  1535.39  1545.64  1582.73  1657.84
                             1692.21  1731.42  1756.26  1763.05  1789.35
                             1831.25  1835.33  1837.96  1851.13  1862.98
                             1873.07  1911.00  1927.41  1989.05  2023.93
                             2047.51  2051.49  2069.60  2075.81  2088.83
                             2135.33  2157.47  2166.96  2179.07  2180.67
                             2186.88  2187.62  2192.63  2196.12  2200.37
                             2201.45  2209.02  2222.59  2241.27  2593.06
                             4349.80  4368.01  4398.30  4400.30  4407.75
                             4410.88  4418.00  4419.18  4432.77  4438.19
                             4460.53  4466.38  4470.93  4488.69  4492.66
                             4493.33  4498.05  4507.68  4513.62  4543.45
                             4568.10  4572.94  5229.78

 Zero-point correction=                           0.343128 (Hartree/Particle)
 Thermal correction to Energy=                    0.360151
 Thermal correction to Enthalpy=                  0.361095
 Thermal correction to Gibbs Free Energy=         0.298323
 Sum of electronic and zero-point Energies=           -676.060750
 Sum of electronic and thermal Energies=              -676.043727
 Sum of electronic and thermal Enthalpies=            -676.042783
 Sum of electronic and thermal Free Energies=         -676.105555

                     E (Thermal)             CV                S
                      KCal/Mol        Cal/Mol-Kelvin    Cal/Mol-Kelvin
 Total                  225.998             65.128            132.114
 Electronic               0.000              0.000              0.000
 Translational            0.889              2.981             41.974
 Rotational               0.889              2.981             32.331
 Vibrational            224.221             59.166             57.809
 Vibration     1          0.593              1.985              6.098
 Vibration     2          0.594              1.982              5.424
 Vibration     3          0.595              1.979              4.957
 Vibration     4          0.600              1.962              3.871
 Vibration     5          0.605              1.946              3.375
 Vibration     6          0.610              1.930              3.047
 Vibration     7          0.613              1.919              2.888
 Vibration     8          0.635              1.849              2.193
 Vibration     9          0.643              1.823              2.028
 Vibration    10          0.648              1.807              1.939
 Vibration    11          0.666              1.751              1.683
 Vibration    12          0.677              1.720              1.565
 Vibration    13          0.677              1.718              1.561
 Vibration    14          0.686              1.693              1.478
 Vibration    15          0.693              1.672              1.412
 Vibration    16          0.709              1.627              1.288
 Vibration    17          0.711              1.622              1.275
 Vibration    18          0.729              1.570              1.155
 Vibration    19          0.751              1.509              1.032
 Vibration    20          0.760              1.485              0.988
 Vibration    21          0.775              1.447              0.924
 Vibration    22          0.794              1.399              0.850
 Vibration    23          0.821              1.332              0.757
 Vibration    24          0.871              1.216              0.620
 Vibration    25          0.893              1.166              0.570
 Vibration    26          0.943              1.061              0.474

 Optimization completed.
    -- Stationary point found.
 Normal termination of Gaussian 16 at Thu Dec 10 17:57:44 2020.

 ----------------------------------------------------------------------
 # B3LYP/6-311++G(d,p) empiricaldispersion=gd3bj scf=xqc pop=npa geom=c
 heck
 ----------------------------------------------------------------------

 ---------------------------------------
 CID_105467035_JID_5945_Energie_neutraal
 ---------------------------------------
 Structure from the checkpoint file:  "JID_5945.chk"
 Charge =  0 Multiplicity = 1

 SCF Done:  E(RB3LYP) =  -676.598201233     A.U. after   14 cycles
 Normal termination of Gaussian 16 at Thu Dec 10 18:04:51 2020.

 ----------------------------------------------------------------------
 # B3LYP/6-311++G(d,p) empiricaldispersion=gd3bj scf=xqc pop=npa geom=c
 heck
 ----------------------------------------------------------------------

 -------------------------------------
 CID_105467035_JID_5945_Energie_kation
 -------------------------------------
 Structure from the checkpoint file:  "JID_5945.chk"
 Charge =  1 Multiplicity = 2

 SCF Done:  E(UB3LYP) =  -676.272499414     A.U. after   24 cycles
 Normal termination of Gaussian 16 at Thu Dec 10 18:21:21 2020.
 Gaussian 16:  ES64L-G16RevA.03 25-Dec-2016

 ----------------------------------------------------------------------
 # B3LYP/6-311++G(d,p) empiricaldispersion=gd3bj scf=xqc pop=npa geom=c
 heck
 ----------------------------------------------------------------------

 ------------------------------------
 CID_105467035_JID_5945_Energie_anion
 ------------------------------------
 Structure from the checkpoint file:  "JID_5945.chk"
 Charge = -1 Multiplicity = 2

                         Standard orientation:
 ---------------------------------------------------------------------
 Center     Atomic      Atomic             Coordinates (Angstroms)
 Number     Number       Type             X           Y           Z
 ---------------------------------------------------------------------
      1          6           0        3.252001    1.832331    0.508604
      2          6           0        2.464935    0.602219    0.042842
      3          6           0        2.063536   -0.273568    1.276675
      4          6           0        3.306391   -1.166329    1.019258
      5          6           0        3.435453   -0.542632   -0.394872
      6          6           0        1.356578    1.058462   -0.920218
      7          6           0        0.725068    0.011211   -1.849469
      8          7           0        0.116209   -1.140981   -1.191980
      9          6           0       -0.976073   -1.081209   -0.370235
     10          8           0       -1.279554   -1.974244    0.406418
     11          8           0       -1.646897    0.078944   -0.558764
     12          6           0       -2.819220    0.404683    0.261679
     13          6           0       -3.935964   -0.608998    0.005753
     14          6           0       -2.419162    0.470292    1.737248
     15          6           0       -3.211347    1.788266   -0.255909
     16          1           0        2.584405    2.563980    0.980863
     17          1           0        4.021278    1.562865    1.241481
     18          1           0        3.750031    2.324297   -0.336035
     19          1           0        2.021029    0.253595    2.236273
     20          1           0        1.127064   -0.817687    1.145851
     21          1           0        3.151917   -2.248232    1.067620
     22          1           0        4.150558   -0.913804    1.667513
     23          1           0        3.013398   -1.192147   -1.168311
     24          1           0        4.434216   -0.235165   -0.723525
     25          1           0        0.558519    1.526297   -0.329880
     26          1           0        1.753915    1.847717   -1.575205
     27          1           0       -0.041552    0.499086   -2.457448
     28          1           0        1.474660   -0.384559   -2.541547
     29          1           0        0.701966   -1.938637   -0.990399
     30          1           0       -3.647412   -1.600427    0.356047
     31          1           0       -4.844704   -0.294356    0.530683
     32          1           0       -4.160032   -0.660826   -1.065079
     33          1           0       -1.581463    1.163701    1.870914
     34          1           0       -3.263886    0.836715    2.330684
     35          1           0       -2.126748   -0.513267    2.106190
     36          1           0       -2.394511    2.501645   -0.106125
     37          1           0       -3.443390    1.747251   -1.324779
     38          1           0       -4.094292    2.152859    0.278708
 ---------------------------------------------------------------------

 SCF Done:  E(UB3LYP) =  -676.584250379     A.U. after   30 cycles

 The electronic state is 2-A.
 Alpha  occ. eigenvalues --  -19.06141 -18.99740 -14.23871 -10.22182 -10.14965
 Alpha  occ. eigenvalues --  -10.11000 -10.08608 -10.07212 -10.06924 -10.06797
 Alpha  occ. eigenvalues --  -10.06699 -10.06581 -10.06492 -10.06373 -10.06141
 Alpha  occ. eigenvalues --   -1.00750  -0.91892  -0.83312  -0.75768  -0.71638
 Alpha  occ. eigenvalues --   -0.66646  -0.62275  -0.60235  -0.60131  -0.56682
 Alpha  occ. eigenvalues --   -0.55922  -0.53995  -0.50893  -0.44919  -0.42889
 Alpha  occ. eigenvalues --   -0.41753  -0.40317  -0.38267  -0.37954  -0.36945
 Alpha  occ. eigenvalues --   -0.36700  -0.35323  -0.34821  -0.33440  -0.33034
 Alpha  occ. eigenvalues --   -0.32084  -0.30786  -0.29713  -0.29467  -0.29118
 Alpha  occ. eigenvalues --   -0.27898  -0.27621  -0.27185  -0.26524  -0.25990
 Alpha  occ. eigenvalues --   -0.25821  -0.24476  -0.23814  -0.21998  -0.20523
 Alpha  occ. eigenvalues --   -0.20034  -0.19861  -0.18079  -0.16030   0.04238
 Alpha virt. eigenvalues --    0.05977   0.06917   0.07255   0.08302   0.08379
 Alpha virt. eigenvalues --    0.08784   0.09381   0.09781   0.10066   0.10746
 Alpha virt. eigenvalues --    0.11042   0.11588   0.11753   0.12294   0.12720

  Beta  occ. eigenvalues --  -19.06132 -18.99736 -14.23860 -10.22180 -10.14962
  Beta  occ. eigenvalues --  -10.10981 -10.08609 -10.07200 -10.06896 -10.06781
  Beta  occ. eigenvalues --  -10.06665 -10.06561 -10.06483 -10.06350 -10.06111
  Beta  occ. eigenvalues --   -1.00739  -0.91883  -0.83291  -0.75753  -0.71619
  Beta  occ. eigenvalues --   -0.66615  -0.62236  -0.60191  -0.60087  -0.56638
  Beta  occ. eigenvalues --   -0.55880  -0.53950  -0.50846  -0.44883  -0.42837
  Beta  occ. eigenvalues --   -0.41728  -0.40279  -0.38237  -0.37928  -0.36920
  Beta  occ. eigenvalues --   -0.36662  -0.35296  -0.34799  -0.33411  -0.33005
  Beta  occ. eigenvalues --   -0.32060  -0.30760  -0.29674  -0.29440  -0.29091
  Beta  occ. eigenvalues --   -0.27868  -0.27593  -0.27152  -0.26498  -0.25965
  Beta  occ. eigenvalues --   -0.25797  -0.24453  -0.23786  -0.21973  -0.20508
  Beta  occ. eigenvalues --   -0.20010  -0.19832  -0.18069  -0.16012
  Beta virt. eigenvalues --    0.06301   0.06880   0.07506   0.07818   0.08784
  Beta virt. eigenvalues --    0.08876   0.09135   0.09730   0.10135   0.10497
  Beta virt. eigenvalues --    0.11055   0.11315   0.11690   0.12021   0.12445

 Mulliken charges and spin densities:
               1          2
     1  C    0.956650  -1.451348
     2  C    0.146156   0.638890
     3  C   -0.562941   0.075893
     4  C    0.509568  -0.880583
     5  C   -0.244357  -0.308080
     6  C   -0.732255   0.669999
     7  C    0.223815  -0.856109
     8  N   -0.179127   0.007309
     9  C    0.068574  -0.310469
    10  O   -0.268231   0.022275
    11  O    0.071304   0.002808
    12  C   -0.989647   0.974198
    13  C    0.239523  -0.692962
    14  C    0.380766  -0.825798
    15  C    0.495102  -0.913052
    16  H   -0.280372   0.433357
    17  H   -0.063450   0.198669
    18  H   -0.188925   0.338845
    19  H   -0.091012   0.265178
    20  H    0.340773  -0.217605
    21  H   -0.007723   0.150018
    22  H    0.044917   0.082794
    23  H    0.036086   0.051793
    24  H   -0.412033   0.572984
    25  H    0.777731  -0.622631
    26  H   -0.324631   0.494586
    27  H   -0.022816   0.234416
    28  H   -0.344017   0.521869
    29  H    0.204569   0.140338
    30  H    0.147120   0.033764
    31  H   -0.133912   0.287634
    32  H    0.007061   0.137646
    33  H   -0.005152   0.139108
    34  H   -0.250384   0.417996
    35  H    0.108245   0.072393
    36  H   -0.400277   0.561095
    37  H   -0.078988   0.228659
    38  H   -0.177709   0.324125
 Sum of Mulliken charges =  -1.00000   1.00000

 Dipole moment (field-independent basis, Debye):
    X=             -0.4281    Y=             -3.0013    Z=              0.2253  Tot=              3.0401
 Quadrupole moment (field-independent basis, Debye-Ang):
   XX=           -178.7377   YY=           -141.9165   ZZ=           -135.0957
   XY=             -0.3676   XZ=              8.1351   YZ=             -0.5294

 Summary of Natural Population Analysis:

                                       Natural Population
                Natural  -----------------------------------------------
    Atom  No    Charge         Core      Valence    Rydberg      Total
 -----------------------------------------------------------------------
      C    1   -0.28059      0.99962     2.27407    0.00691     3.28059
      C    2   -0.04373      0.99958     2.02987    0.01427     3.04373
      C    3   -0.18670      0.99960     2.17976    0.00734     3.18670
      C    4   -0.19206      0.99965     2.18501    0.00740     3.19206
      C    5   -0.18598      0.99960     2.17769    0.00869     3.18598
      C    6   -0.19506      0.99957     2.18623    0.00927     3.19506
      C    7   -0.08812      0.99961     2.07651    0.01201     3.08812
      N    8   -0.32711      0.99967     2.81767    0.00977     3.82711
      C    9    0.46575      0.99968     1.50954    0.02503     2.53425
      O   10   -0.33922      0.99987     3.33446    0.00488     4.33922
      O   11   -0.30163      0.99985     3.29184    0.00995     4.30163
      C   12    0.13510      0.99954     1.85132    0.01405     2.86490
      C   13   -0.30173      0.99960     2.29576    0.00637     3.30173
      C   14   -0.30179      0.99960     2.29559    0.00660     3.30179
      C   15   -0.28868      0.99960     2.28185    0.00723     3.28868
      H   16    0.10085      0.00000     0.39796    0.00119     0.39915
      H   17    0.09799      0.00000     0.40077    0.00124     0.40201
      H   18    0.09992      0.00000     0.39888    0.00120     0.40008
      H   19    0.09553      0.00000     0.40337    0.00110     0.40447
      H   20    0.10334      0.00000     0.39502    0.00164     0.39666
      H   21    0.09464      0.00000     0.40427    0.00108     0.40536
      H   22    0.09516      0.00000     0.40355    0.00129     0.40484
      H   23    0.09401      0.00000     0.40436    0.00164     0.40599
      H   24    0.09844      0.00000     0.40020    0.00135     0.40156
      H   25    0.10392      0.00000     0.39407    0.00201     0.39608
      H   26    0.10154      0.00000     0.39704    0.00142     0.39846
      H   27    0.10410      0.00000     0.39461    0.00129     0.39590
      H   28    0.09757      0.00000     0.40110    0.00134     0.40243
      H   29    0.19541      0.00000     0.30252    0.00207     0.30459
      H   30    0.11455      0.00000     0.38460    0.00085     0.38545
      H   31    0.10243      0.00000     0.39669    0.00088     0.39757
      H   32    0.10136      0.00000     0.39780    0.00084     0.39864
      H   33    0.10312      0.00000     0.39560    0.00128     0.39688
      H   34    0.10308      0.00000     0.39592    0.00100     0.39692
      H   35    0.11384      0.00000     0.38520    0.00097     0.38616
      H   36    0.10480      0.00000     0.39381    0.00139     0.39520
      H   37    0.10304      0.00000     0.39582    0.00114     0.39696
      H   38    0.10293      0.00000     0.39565    0.00142     0.39707
 =======================================================================
   * Total *    0.00000     14.99463    43.82598    0.17940    59.00000

 Normal termination of Gaussian 16 at Thu Dec 10 18:40:19 2020.
