 Gaussian 16, Revision A.03,

 -----------------------------------------------------------
 # opt freq B3LYP/6-31G(d) empiricaldispersion=gd3bj scf=xqc
 -----------------------------------------------------------

 -------------------------------
 CID_143106623_JID_1160_neutraal
 -------------------------------
 Symbolic Z-matrix:
 Charge =  0 Multiplicity = 1

 SCF Done:  E(RB3LYP) =  -1161.41782033     A.U. after   15 cycles
 SCF Done:  E(RB3LYP) =  -1161.42246647     A.U. after   12 cycles
 SCF Done:  E(RB3LYP) =  -1161.42290966     A.U. after   12 cycles
 SCF Done:  E(RB3LYP) =  -1161.42297626     A.U. after   11 cycles
 SCF Done:  E(RB3LYP) =  -1161.42303551     A.U. after   11 cycles
 SCF Done:  E(RB3LYP) =  -1161.42320687     A.U. after   12 cycles
 SCF Done:  E(RB3LYP) =  -1161.38564159     A.U. after   14 cycles
 SCF Done:  E(RB3LYP) =  -1161.42414241     A.U. after   13 cycles
 SCF Done:  E(RB3LYP) =  -1161.42458154     A.U. after   13 cycles
 SCF Done:  E(RB3LYP) =  -1161.42483799     A.U. after   11 cycles
 SCF Done:  E(RB3LYP) =  -1161.42642248     A.U. after   11 cycles
 SCF Done:  E(RB3LYP) =  -1161.42644121     A.U. after   11 cycles
 SCF Done:  E(RB3LYP) =  -1161.42644432     A.U. after   10 cycles
 SCF Done:  E(RB3LYP) =  -1161.42644461     A.U. after    9 cycles
 SCF Done:  E(RB3LYP) =  -1161.42644469     A.U. after    7 cycles
 Optimization completed.
    -- Stationary point found.
 Normal termination of Gaussian 16 at Tue Dec  8 19:18:25 2020.

 --------------------------------------------------------------------
 #N Geom=AllCheck Guess=TCheck SCRF=Check GenChk RB3LYP/6-31G(d) Freq
 --------------------------------------------------------------------

 Structure from the checkpoint file:  "JID_1160.chk"
 -------------------------------
 CID_143106623_JID_1160_neutraal
 -------------------------------
 Charge =  0 Multiplicity = 1

 SCF Done:  E(RB3LYP) =  -1161.42644469     A.U. after    1 cycles

  Exact polarizability: 174.096  -2.523 113.352  -3.434   0.782  74.468
 Approx polarizability: 243.956  -5.158 207.762  -9.479  -1.280 120.234

                      1                      2                      3
                      A                      A                      A
 Frequencies --     27.3453                70.7429               135.1804
 Red. masses --      5.4170                 5.7405                 3.7118
 Frc consts  --      0.0024                 0.0169                 0.0400
 IR Inten    --      0.8504                 0.8295                 0.3252

                      4                      5                      6
                      A                      A                      A
 Frequencies --    165.7789               210.2318               228.0706
 Red. masses --      4.0699                 1.6333                 2.4885
 Frc consts  --      0.0659                 0.0425                 0.0763
 IR Inten    --      0.6591                 8.8029                 3.2793

                      7                      8                      9
                      A                      A                      A
 Frequencies --    273.6518               330.6488               373.1966
 Red. masses --      1.5537                 5.2449                 4.2095
 Frc consts  --      0.0686                 0.3378                 0.3454
 IR Inten    --     23.9911                 2.1944                 0.6276

                     10                     11                     12
                      A                      A                      A
 Frequencies --    410.9710               467.3566               511.0758
 Red. masses --      3.1289                 4.4986                 7.2845
 Frc consts  --      0.3114                 0.5789                 1.1210
 IR Inten    --      1.5648                 3.2393                 0.9324

                     13                     14                     15
                      A                      A                      A
 Frequencies --    553.5357               617.2539               642.2321
 Red. masses --      4.9489                 4.1348                 4.5310
 Frc consts  --      0.8934                 0.9282                 1.1011
 IR Inten    --      4.2110                 1.2752                13.8786

                     16                     17                     18
                      A                      A                      A
 Frequencies --    658.4424               689.1009               695.1440
 Red. masses --      2.3184                 4.3677                 5.3412
 Frc consts  --      0.5922                 1.2220                 1.5207
 IR Inten    --     12.3108                 8.2266                12.0133

                     19                     20                     21
                      A                      A                      A
 Frequencies --    739.1689               792.0873               810.0383
 Red. masses --      2.4514                 2.2681                 1.4422
 Frc consts  --      0.7891                 0.8384                 0.5576
 IR Inten    --      8.8803                21.3315                 3.9683

                     22                     23                     24
                      A                      A                      A
 Frequencies --    871.0287               909.2848               981.7661
 Red. masses --      3.2487                 2.4733                 1.2513
 Frc consts  --      1.4522                 1.2048                 0.7106
 IR Inten    --      2.0546                 6.9794                 0.4145

                     25                     26                     27
                      A                      A                      A
 Frequencies --   1017.1461              1027.6858              1038.5642
 Red. masses --      1.6461                 2.0887                 2.3088
 Frc consts  --      1.0034                 1.2997                 1.4672
 IR Inten    --      1.3309                 3.2703                 0.9184

                     28                     29                     30
                      A                      A                      A
 Frequencies --   1071.2084              1141.4474              1171.8823
 Red. masses --      3.4113                 2.2952                 1.2779
 Frc consts  --      2.3063                 1.7619                 1.0340
 IR Inten    --      2.6734                51.2865                 0.6547

                     31                     32                     33
                      A                      A                      A
 Frequencies --   1204.1804              1218.4567              1255.8452
 Red. masses --      1.2461                 1.8723                 1.3430
 Frc consts  --      1.0646                 1.6377                 1.2479
 IR Inten    --      2.7025                 1.8613                29.0297

                     34                     35                     36
                      A                      A                      A
 Frequencies --   1271.5614              1302.2814              1326.0938
 Red. masses --      1.3346                 1.3581                 2.2511
 Frc consts  --      1.2714                 1.3570                 2.3323
 IR Inten    --      2.5613                 9.0036                 6.7340

                     37                     38                     39
                      A                      A                      A
 Frequencies --   1374.0381              1399.6111              1450.8047
 Red. masses --      1.4917                 1.7088                 2.3257
 Frc consts  --      1.6593                 1.9722                 2.8841
 IR Inten    --      7.3567                 1.7710                 1.7227

                     40                     41                     42
                      A                      A                      A
 Frequencies --   1488.6013              1499.1237              1510.9111
 Red. masses --      1.1155                 1.1174                 1.1228
 Frc consts  --      1.4563                 1.4795                 1.5102
 IR Inten    --      5.6373                 2.6089                 1.7592

                     43                     44                     45
                      A                      A                      A
 Frequencies --   1542.9033              1568.2642              1700.1729
 Red. masses --      6.6974                 8.1909                 6.4676
 Frc consts  --      9.3936                11.8691                11.0149
 IR Inten    --     18.4191                 8.3597                 2.1350

                     46                     47                     48
                      A                      A                      A
 Frequencies --   2686.6089              2999.7533              3013.1642
 Red. masses --      1.0385                 1.0736                 1.0692
 Frc consts  --      4.4165                 5.6920                 5.7193
 IR Inten    --     10.4615                25.6556                38.4714

                     49                     50                     51
                      A                      A                      A
 Frequencies --   3088.6671              3095.1054              3102.4729
 Red. masses --      1.0901                 1.0918                 1.0587
 Frc consts  --      6.1269                 6.1625                 6.0038
 IR Inten    --     34.6958                19.3256                 8.2838

                     52                     53                     54
                      A                      A                      A
 Frequencies --   3160.9973              3188.6498              3213.8696
 Red. masses --      1.1081                 1.0868                 1.0966
 Frc consts  --      6.5234                 6.5102                 6.6736
 IR Inten    --      1.2218                 5.9930                20.6443

 - Thermochemistry -
 -------------------
 Temperature   298.150 Kelvin.  Pressure   1.00000 Atm.
 Atom     1 has atomic number  6 and mass  12.00000

 Molecular mass:   183.01764 amu.
 Principal axes and moments of inertia in atomic units:
                           1         2         3
     Eigenvalues --   830.435533938.006824455.70900
           X            0.99994   0.00684  -0.00833
           Y           -0.00686   0.99997  -0.00245
           Z            0.00831   0.00251   0.99996
 This molecule is an asymmetric top.
 Rotational symmetry number  1.
 Warning -- assumption of classical behavior for rotation
           may cause significant error
 Rotational temperatures (Kelvin)      0.10430     0.02199     0.01944
 Rotational constants (GHZ):           2.17325     0.45829     0.40504
 Zero-point vibrational energy     402503.9 (Joules/Mol)
                                   96.20075 (Kcal/Mol)
 Warning -- explicit consideration of  14 degrees of freedom as
           vibrations may cause significant error
 Vibrational temperatures:     39.34   101.78   194.49   238.52   302.48
          (Kelvin)            328.14   393.72   475.73   536.95   591.30
                              672.42   735.32   796.41   888.09   924.03
                              947.35   991.46  1000.16  1063.50  1139.64
                             1165.46  1253.22  1308.26  1412.54  1463.45
                             1478.61  1494.26  1541.23  1642.29  1686.08
                             1732.55  1753.09  1806.88  1829.49  1873.69
                             1907.95  1976.93  2013.73  2087.38  2141.77
                             2156.90  2173.86  2219.89  2256.38  2446.17
                             3865.43  4315.98  4335.27  4443.90  4453.17
                             4463.77  4547.97  4587.76  4624.04

 Zero-point correction=                           0.153306 (Hartree/Particle)
 Thermal correction to Energy=                    0.163638
 Thermal correction to Enthalpy=                  0.164582
 Thermal correction to Gibbs Free Energy=         0.115961
 Sum of electronic and zero-point Energies=          -1161.273139
 Sum of electronic and thermal Energies=             -1161.262807
 Sum of electronic and thermal Enthalpies=           -1161.261863
 Sum of electronic and thermal Free Energies=        -1161.310483

                     E (Thermal)             CV                S
                      KCal/Mol        Cal/Mol-Kelvin    Cal/Mol-Kelvin
 Total                  102.684             38.877            102.331
 Electronic               0.000              0.000              0.000
 Translational            0.889              2.981             41.520
 Rotational               0.889              2.981             31.055
 Vibrational            100.907             32.916             29.756
 Vibration     1          0.593              1.984              6.013
 Vibration     2          0.598              1.968              4.133
 Vibration     3          0.613              1.918              2.871
 Vibration     4          0.624              1.885              2.483
 Vibration     5          0.642              1.825              2.042
 Vibration     6          0.651              1.798              1.894
 Vibration     7          0.676              1.722              1.573
 Vibration     8          0.713              1.614              1.257
 Vibration     9          0.745              1.527              1.067
 Vibration    10          0.775              1.446              0.923
 Vibration    11          0.825              1.322              0.745
 Vibration    12          0.866              1.225              0.631
 Vibration    13          0.909              1.132              0.537
 Vibration    14          0.977              0.995              0.421

 Optimization completed.
    -- Stationary point found.
 Normal termination of Gaussian 16 at Tue Dec  8 19:22:20 2020.

 ----------------------------------------------------------------------
 # B3LYP/6-311++G(d,p) empiricaldispersion=gd3bj scf=xqc pop=npa geom=c
 heck
 ----------------------------------------------------------------------

 ---------------------------------------
 CID_143106623_JID_1160_Energie_neutraal
 ---------------------------------------
 Structure from the checkpoint file:  "JID_1160.chk"
 Charge =  0 Multiplicity = 1

 SCF Done:  E(RB3LYP) =  -1161.57737101     A.U. after   16 cycles
 Normal termination of Gaussian 16 at Tue Dec  8 19:24:18 2020.

 ----------------------------------------------------------------------
 # B3LYP/6-311++G(d,p) empiricaldispersion=gd3bj scf=xqc pop=npa geom=c
 heck
 ----------------------------------------------------------------------

 -------------------------------------
 CID_143106623_JID_1160_Energie_kation
 -------------------------------------
 Structure from the checkpoint file:  "JID_1160.chk"
 Charge =  1 Multiplicity = 2

 SCF Done:  E(UB3LYP) =  -1161.29682609     A.U. after   23 cycles
 Normal termination of Gaussian 16 at Tue Dec  8 19:28:21 2020.
 Gaussian 16:  ES64L-G16RevA.03 25-Dec-2016

 ----------------------------------------------------------------------
 # B3LYP/6-311++G(d,p) empiricaldispersion=gd3bj scf=xqc pop=npa geom=c
 heck
 ----------------------------------------------------------------------

 ------------------------------------
 CID_143106623_JID_1160_Energie_anion
 ------------------------------------
 Structure from the checkpoint file:  "JID_1160.chk"
 Charge = -1 Multiplicity = 2

                         Standard orientation:
 ---------------------------------------------------------------------
 Center     Atomic      Atomic             Coordinates (Angstroms)
 Number     Number       Type             X           Y           Z
 ---------------------------------------------------------------------
      1          6           0       -3.574994   -0.314106    0.015421
      2          6           0       -2.416661   -1.212803    0.498256
      3          6           0       -1.106834   -0.636496    0.044034
      4          6           0       -0.920041    0.716252   -0.117861
      5          6           0       -2.032799    1.641740    0.070995
      6          6           0       -3.283812    1.164186    0.167277
      7          7           0        0.360394    1.113164   -0.445619
      8          6           0        1.160132    0.089672   -0.538962
      9         16           0        0.392807   -1.467948   -0.210115
     10          6           0        2.614353    0.210392   -0.846261
     11         16           0        3.681732    0.250460    0.668833
     12          1           0       -4.490547   -0.585116    0.552211
     13          1           0       -3.770608   -0.519825   -1.049510
     14          1           0       -2.418924   -1.262557    1.598249
     15          1           0       -2.560647   -2.236150    0.137180
     16          1           0       -1.810543    2.703362    0.118768
     17          1           0       -4.124875    1.841900    0.286804
     18          1           0        2.981069   -0.642831   -1.422017
     19          1           0        2.775016    1.120572   -1.426723
     20          1           0        3.068612    1.315283    1.227482
 ---------------------------------------------------------------------

 SCF Done:  E(UB3LYP) =  -1161.57258180     A.U. after   33 cycles
 SCF Done:  E(UB3LYP) =  -1161.57258180     a.u. after    1 cycles

 The electronic state is 2-A.
 Alpha  occ. eigenvalues --  -88.71862 -88.71755 -14.15853 -10.08351 -10.07081
 Alpha  occ. eigenvalues --  -10.04946 -10.04873 -10.04291 -10.03217 -10.03084
 Alpha  occ. eigenvalues --  -10.02888  -7.80525  -7.80465  -5.76837  -5.76802
 Alpha  occ. eigenvalues --   -5.76501  -5.76472  -5.76151  -5.75851  -0.80982
 Alpha  occ. eigenvalues --   -0.69953  -0.66642  -0.64515  -0.60186  -0.58321
 Alpha  occ. eigenvalues --   -0.53439  -0.48317  -0.44652  -0.41447  -0.36871
 Alpha  occ. eigenvalues --   -0.33797  -0.33386  -0.32522  -0.31072  -0.28719
 Alpha  occ. eigenvalues --   -0.27471  -0.26320  -0.25786  -0.24313  -0.23412
 Alpha  occ. eigenvalues --   -0.21584  -0.21429  -0.18536  -0.15491  -0.13168
 Alpha  occ. eigenvalues --   -0.12887  -0.11919  -0.06907   0.05636
 Alpha virt. eigenvalues --    0.08067   0.09125   0.09802   0.10069   0.10693
 Alpha virt. eigenvalues --    0.11299   0.11735   0.12077   0.12989   0.13274
 Alpha virt. eigenvalues --    0.14291   0.14946   0.15433   0.15953   0.16752

  Beta  occ. eigenvalues --  -88.71802 -88.71713 -14.15818 -10.08330 -10.06768
  Beta  occ. eigenvalues --  -10.04978 -10.04865 -10.04333 -10.03174 -10.02771
  Beta  occ. eigenvalues --  -10.02589  -7.80471  -7.80421  -5.76781  -5.76766
  Beta  occ. eigenvalues --   -5.76452  -5.76444  -5.75939  -5.75821  -0.80704
  Beta  occ. eigenvalues --   -0.69665  -0.66409  -0.64103  -0.60064  -0.57935
  Beta  occ. eigenvalues --   -0.53202  -0.48222  -0.44174  -0.41148  -0.36641
  Beta  occ. eigenvalues --   -0.33577  -0.33171  -0.32287  -0.30821  -0.28266
  Beta  occ. eigenvalues --   -0.27292  -0.26150  -0.25351  -0.23938  -0.23139
  Beta  occ. eigenvalues --   -0.21328  -0.21145  -0.18336  -0.14802  -0.12951
  Beta  occ. eigenvalues --   -0.11903  -0.11726  -0.05349
  Beta virt. eigenvalues --    0.08259   0.08997   0.09861   0.10206   0.10530
  Beta virt. eigenvalues --    0.10927   0.11482   0.11945   0.12540   0.13008
  Beta virt. eigenvalues --    0.13352   0.14732   0.15048   0.15569   0.15893

 Mulliken charges and spin densities:
               1          2
     1  C    0.039639  -0.444623
     2  C   -0.530787   0.305918
     3  C    2.113134   0.229057
     4  C   -1.746918  -0.116776
     5  C   -0.438512  -0.109068
     6  C   -0.195646   0.133675
     7  N    0.084441   0.024163
     8  C    0.474897   0.035554
     9  S   -0.787355   0.138233
    10  C   -0.433629   0.099286
    11  S   -0.027843   0.017783
    12  H   -0.161153   0.286040
    13  H    0.132082  -0.024879
    14  H   -0.075370   0.209120
    15  H    0.146876  -0.029996
    16  H    0.142553  -0.007327
    17  H   -0.034929   0.170483
    18  H    0.123726   0.055377
    19  H    0.167598   0.020516
    20  H    0.007198   0.007464
 Sum of Mulliken charges =  -1.00000   1.00000

 Dipole moment (field-independent basis, Debye):
    X=              0.2519    Y=             -0.5377    Z=             -1.4288  Tot=              1.5472
 Quadrupole moment (field-independent basis, Debye-Ang):
   XX=           -132.2676   YY=            -95.4826   ZZ=            -93.8102
   XY=              1.3378   XZ=             -0.3346   YZ=              3.1047

 Summary of Natural Population Analysis:

                                       Natural Population
                Natural  -----------------------------------------------
    Atom  No    Charge         Core      Valence    Rydberg      Total
 -----------------------------------------------------------------------
      C    1   -0.20093      0.99963     2.19142    0.00988     3.20093
      C    2   -0.20215      0.99960     2.19265    0.00991     3.20215
      C    3   -0.01219      0.99940     2.00136    0.01142     3.01219
      C    4    0.01609      0.99938     1.96892    0.01561     2.98391
      C    5   -0.09290      0.99950     2.08420    0.00920     3.09290
      C    6   -0.08836      0.99956     2.07656    0.01223     3.08836
      N    7   -0.24335      0.99963     2.73287    0.01085     3.74335
      C    8    0.06367      0.99959     1.91772    0.01902     2.93633
      S    9    0.19276      4.99940     2.78804    0.01980     7.80724
      C   10   -0.24918      0.99950     2.24030    0.00938     3.24918
      S   11   -0.03170      4.99968     3.01454    0.01749     8.03170
      H   12    0.09711      0.00000     0.40088    0.00201     0.40289
      H   13    0.09478      0.00000     0.40388    0.00134     0.40522
      H   14    0.10184      0.00000     0.39582    0.00234     0.39816
      H   15    0.09880      0.00000     0.40028    0.00093     0.40120
      H   16    0.09676      0.00000     0.40181    0.00143     0.40324
      H   17    0.08769      0.00000     0.41133    0.00099     0.41231
      H   18    0.10355      0.00000     0.39454    0.00191     0.39645
      H   19    0.10844      0.00000     0.38959    0.00198     0.39156
      H   20    0.05927      0.00000     0.43755    0.00318     0.44073
 =======================================================================
   * Total *   -0.00000     18.99487    28.84425    0.16088    48.00000

 Normal termination of Gaussian 16 at Tue Dec  8 19:34:09 2020.
