 Gaussian 16, Revision A.03,

 -----------------------------------------------------------
 # opt freq B3LYP/6-31G(d) empiricaldispersion=gd3bj scf=xqc
 -----------------------------------------------------------

 -------------------------------
 CID_102412939_JID_5900_neutraal
 -------------------------------
 Symbolic Z-matrix:
 Charge =  0 Multiplicity = 1

 SCF Done:  E(RB3LYP) =  -622.009840121     A.U. after   14 cycles
 SCF Done:  E(RB3LYP) =  -622.015231405     A.U. after   13 cycles
 SCF Done:  E(RB3LYP) =  -622.015922351     A.U. after   13 cycles
 SCF Done:  E(RB3LYP) =  -622.016041568     A.U. after   12 cycles
 SCF Done:  E(RB3LYP) =  -622.016113794     A.U. after   12 cycles
 SCF Done:  E(RB3LYP) =  -622.016142012     A.U. after   12 cycles
 SCF Done:  E(RB3LYP) =  -622.016171837     A.U. after   10 cycles
 SCF Done:  E(RB3LYP) =  -622.016194542     A.U. after   10 cycles
 SCF Done:  E(RB3LYP) =  -622.016196934     A.U. after    9 cycles
 SCF Done:  E(RB3LYP) =  -622.016197190     A.U. after    9 cycles
 SCF Done:  E(RB3LYP) =  -622.016197222     A.U. after    7 cycles
 SCF Done:  E(RB3LYP) =  -622.016197339     A.U. after    7 cycles
 Optimization completed.
    -- Stationary point found.
 Normal termination of Gaussian 16 at Thu Dec 10 17:36:17 2020.

 --------------------------------------------------------------------
 #N Geom=AllCheck Guess=TCheck SCRF=Check GenChk RB3LYP/6-31G(d) Freq
 --------------------------------------------------------------------

 Structure from the checkpoint file:  "JID_5900.chk"
 -------------------------------
 CID_102412939_JID_5900_neutraal
 -------------------------------
 Charge =  0 Multiplicity = 1

 SCF Done:  E(RB3LYP) =  -622.016197339     A.U. after    1 cycles

  Exact polarizability: 171.567 -21.527 170.249  11.560   3.311 111.958
 Approx polarizability: 204.224 -39.245 299.324  18.312  12.033 171.593

                      1                      2                      3
                      A                      A                      A
 Frequencies --     26.4229                32.5606                44.9975
 Red. masses --      3.8636                 4.2074                 3.1361
 Frc consts  --      0.0016                 0.0026                 0.0037
 IR Inten    --      0.6539                 0.9205                 0.0118

                      4                      5                      6
                      A                      A                      A
 Frequencies --     60.5632                72.5648                99.1548
 Red. masses --      3.4721                 2.9522                 3.6944
 Frc consts  --      0.0075                 0.0092                 0.0214
 IR Inten    --      0.1899                 0.0014                 0.6277

                      7                      8                      9
                      A                      A                      A
 Frequencies --    100.6763               140.9363               175.7877
 Red. masses --      2.9270                 2.5044                 2.3265
 Frc consts  --      0.0175                 0.0293                 0.0424
 IR Inten    --      4.5742                 0.5131                 0.3360

                     10                     11                     12
                      A                      A                      A
 Frequencies --    221.0494               235.0233               279.8846
 Red. masses --      2.3305                 1.8746                 1.8194
 Frc consts  --      0.0671                 0.0610                 0.0840
 IR Inten    --      0.9425                 0.3919                 0.2751

                     13                     14                     15
                      A                      A                      A
 Frequencies --    310.8199               314.7179               324.2946
 Red. masses --      2.4136                 2.3185                 2.4295
 Frc consts  --      0.1374                 0.1353                 0.1505
 IR Inten    --      0.1288                 2.6961                 3.9611

                     16                     17                     18
                      A                      A                      A
 Frequencies --    362.9776               395.9416               423.0272
 Red. masses --      2.1323                 1.9789                 1.9252
 Frc consts  --      0.1655                 0.1828                 0.2030
 IR Inten    --      0.2691                 0.1289                 1.3181

                     19                     20                     21
                      A                      A                      A
 Frequencies --    466.3697               494.8142               511.5951
 Red. masses --      2.0080                 2.8277                 2.8707
 Frc consts  --      0.2573                 0.4079                 0.4427
 IR Inten    --      0.9200                 1.0062                 1.8062

                     22                     23                     24
                      A                      A                      A
 Frequencies --    551.4116               591.4416               625.7557
 Red. masses --      2.5715                 4.9733                 3.8835
 Frc consts  --      0.4607                 1.0250                 0.8960
 IR Inten    --      0.2313                 1.5578                 4.3901

                     25                     26                     27
                      A                      A                      A
 Frequencies --    679.3710               708.2811               714.4983
 Red. masses --      2.3735                 1.0799                 1.3137
 Frc consts  --      0.6454                 0.3192                 0.3951
 IR Inten    --     12.9807                 3.0442                15.0017

                     28                     29                     30
                      A                      A                      A
 Frequencies --    739.5936               764.2624               794.9971
 Red. masses --      1.7164                 2.7244                 1.8408
 Frc consts  --      0.5532                 0.9376                 0.6855
 IR Inten    --      0.5087                 1.9857                 3.6087

                     31                     32                     33
                      A                      A                      A
 Frequencies --    820.9921               854.5345               887.3072
 Red. masses --      2.3605                 1.6558                 2.7295
 Frc consts  --      0.9374                 0.7124                 1.2661
 IR Inten    --      1.8348                 1.0455                 2.7065

                     34                     35                     36
                      A                      A                      A
 Frequencies --    896.6422               907.9353               913.9118
 Red. masses --      2.0260                 1.3321                 1.7172
 Frc consts  --      0.9597                 0.6470                 0.8451
 IR Inten    --      2.0213                23.3126                 2.5590

                     37                     38                     39
                      A                      A                      A
 Frequencies --    946.1350               966.9583               971.0255
 Red. masses --      1.4963                 1.7580                 2.2212
 Frc consts  --      0.7892                 0.9685                 1.2340
 IR Inten    --      6.9182                14.0331                 8.2139

                     40                     41                     42
                      A                      A                      A
 Frequencies --    980.6559               986.1987               993.9615
 Red. masses --      1.8982                 1.6765                 1.5853
 Frc consts  --      1.0755                 0.9607                 0.9228
 IR Inten    --      6.1167                 1.6079                 6.0764

                     43                     44                     45
                      A                      A                      A
 Frequencies --   1043.1942              1055.6263              1066.0457
 Red. masses --      1.7113                 1.8809                 1.7548
 Frc consts  --      1.0973                 1.2349                 1.1750
 IR Inten    --      1.8547                15.4212                 1.7205

                     46                     47                     48
                      A                      A                      A
 Frequencies --   1088.3799              1116.5594              1140.0687
 Red. masses --      2.1752                 2.0307                 1.7283
 Frc consts  --      1.5181                 1.4916                 1.3235
 IR Inten    --     14.6210                 1.4979                 2.5863

                     49                     50                     51
                      A                      A                      A
 Frequencies --   1143.9096              1166.8567              1191.2198
 Red. masses --      1.9376                 1.1838                 1.4181
 Frc consts  --      1.4938                 0.9496                 1.1856
 IR Inten    --      1.1201                 0.7349                 4.1330

                     52                     53                     54
                      A                      A                      A
 Frequencies --   1208.9460              1222.5965              1241.5851
 Red. masses --      1.4709                 1.6005                 1.3099
 Frc consts  --      1.2666                 1.4095                 1.1897
 IR Inten    --      1.0739                11.8077                 4.4241

                     55                     56                     57
                      A                      A                      A
 Frequencies --   1258.6212              1273.3616              1305.6870
 Red. masses --      1.5691                 1.3275                 1.2498
 Frc consts  --      1.4645                 1.2682                 1.2553
 IR Inten    --      0.3826                 2.2052                 1.6138

                     58                     59                     60
                      A                      A                      A
 Frequencies --   1319.9609              1331.0006              1352.0290
 Red. masses --      3.5701                 1.1634                 1.1198
 Frc consts  --      3.6648                 1.2144                 1.2061
 IR Inten    --     17.8884                 1.5731                 1.1810

                     61                     62                     63
                      A                      A                      A
 Frequencies --   1365.4542              1371.5871              1385.6115
 Red. masses --      2.1737                 1.3998                 1.3674
 Frc consts  --      2.3878                 1.5516                 1.5468
 IR Inten    --     13.7877                14.6288                12.3318

                     64                     65                     66
                      A                      A                      A
 Frequencies --   1390.9596              1405.9035              1412.1404
 Red. masses --      1.6440                 1.3653                 1.4763
 Frc consts  --      1.8740                 1.5900                 1.7345
 IR Inten    --      6.0513                 2.4914                 2.2609

                     67                     68                     69
                      A                      A                      A
 Frequencies --   1424.2081              1427.9251              1443.6169
 Red. masses --      1.4150                 1.4446                 1.2736
 Frc consts  --      1.6910                 1.7355                 1.5639
 IR Inten    --      1.7262                 0.8293                 5.1167

                     70                     71                     72
                      A                      A                      A
 Frequencies --   1463.3888              1478.8374              1503.2474
 Red. masses --      1.1031                 1.1891                 1.0880
 Frc consts  --      1.3918                 1.5322                 1.4486
 IR Inten    --      5.5964                 4.5835                 2.1089

                     73                     74                     75
                      A                      A                      A
 Frequencies --   1511.0228              1519.0478              1520.3888
 Red. masses --      1.0889                 1.0722                 1.0929
 Frc consts  --      1.4648                 1.4577                 1.4885
 IR Inten    --      3.6637                 5.0198                 6.5591

                     76                     77                     78
                      A                      A                      A
 Frequencies --   1525.9760              1533.3740              1535.6676
 Red. masses --      1.0648                 1.0635                 1.0846
 Frc consts  --      1.4609                 1.4733                 1.5070
 IR Inten    --      4.2443                 9.4284                 7.7935

                     79                     80                     81
                      A                      A                      A
 Frequencies --   1537.6818              1545.9720              1665.4505
 Red. masses --      1.0647                 1.0865                 7.4080
 Frc consts  --      1.4832                 1.5300                12.1064
 IR Inten    --      1.8195                 0.5543                 7.0047

                     82                     83                     84
                      A                      A                      A
 Frequencies --   1726.1304              1803.4314              3027.6093
 Red. masses --      5.7581                12.4573                 1.0640
 Frc consts  --     10.1083                23.8711                 5.7465
 IR Inten    --     10.0267               264.1396                19.3164

                     85                     86                     87
                      A                      A                      A
 Frequencies --   3034.8927              3035.1482              3039.9823
 Red. masses --      1.0626                 1.0617                 1.0620
 Frc consts  --      5.7663                 5.7624                 5.7824
 IR Inten    --     35.5179                26.9176                 8.2251

                     88                     89                     90
                      A                      A                      A
 Frequencies --   3044.1588              3046.9465              3048.1602
 Red. masses --      1.0435                 1.0592                 1.0620
 Frc consts  --      5.6977                 5.7938                 5.8139
 IR Inten    --     22.7167                 6.8930                 4.4675

                     91                     92                     93
                      A                      A                      A
 Frequencies --   3057.8922              3059.5360              3064.1046
 Red. masses --      1.0696                 1.0973                 1.0957
 Frc consts  --      5.8928                 6.0520                 6.0611
 IR Inten    --     14.4363                 0.8600                31.8657

                     94                     95                     96
                      A                      A                      A
 Frequencies --   3070.6411              3071.7532              3078.5896
 Red. masses --      1.0606                 1.0963                 1.1018
 Frc consts  --      5.8920                 6.0946                 6.1527
 IR Inten    --      5.4459                93.6691               144.5918

                     97                     98                     99
                      A                      A                      A
 Frequencies --   3081.0387              3090.6945              3108.7268
 Red. masses --      1.0982                 1.1029                 1.1029
 Frc consts  --      6.1421                 6.2072                 6.2796
 IR Inten    --     52.9667                15.6122                 4.3086

                    100                    101                    102
                      A                      A                      A
 Frequencies --   3109.0389              3110.4225              3116.0618
 Red. masses --      1.1015                 1.0999                 1.1019
 Frc consts  --      6.2734                 6.2697                 6.3039
 IR Inten    --     45.9243                38.3927                51.5293

                    103                    104                    105
                      A                      A                      A
 Frequencies --   3165.1990              3201.2212              3246.3145
 Red. masses --      1.0594                 1.0939                 1.1167
 Frc consts  --      6.2531                 6.6045                 6.9337
 IR Inten    --      6.7925                11.8222                10.0609

 - Thermochemistry -
 -------------------
 Temperature   298.150 Kelvin.  Pressure   1.00000 Atm.
 Atom     1 has atomic number  6 and mass  12.00000

 Molecular mass:   206.16707 amu.
 Principal axes and moments of inertia in atomic units:
                           1         2         3
     Eigenvalues --  1556.442027546.639238381.69679
           X            0.99999  -0.00413  -0.00053
           Y            0.00412   0.99990  -0.01346
           Z            0.00059   0.01346   0.99991
 This molecule is an asymmetric top.
 Rotational symmetry number  1.
 Warning -- assumption of classical behavior for rotation
           may cause significant error
 Rotational temperatures (Kelvin)      0.05565     0.01148     0.01033
 Rotational constants (GHZ):           1.15953     0.23915     0.21532
 Zero-point vibrational energy     875193.1 (Joules/Mol)
                                  209.17616 (Kcal/Mol)
 Warning -- explicit consideration of  23 degrees of freedom as
           vibrations may cause significant error
 Vibrational temperatures:     38.02    46.85    64.74    87.14   104.40
          (Kelvin)            142.66   144.85   202.78   252.92   318.04
                              338.15   402.69   447.20   452.81   466.59
                              522.24   569.67   608.64   671.00   711.93
                              736.07   793.36   850.95   900.32   977.46
                             1019.06  1028.00  1064.11  1099.60  1143.82
                             1181.22  1229.48  1276.64  1290.07  1306.32
                             1314.92  1361.28  1391.24  1397.09  1410.95
                             1418.92  1430.09  1500.92  1518.81  1533.80
                             1565.94  1606.48  1640.30  1645.83  1678.85
                             1713.90  1739.40  1759.04  1786.36  1810.88
                             1832.08  1878.59  1899.13  1915.01  1945.27
                             1964.58  1973.41  1993.59  2001.28  2022.78
                             2031.76  2049.12  2054.47  2077.04  2105.49
                             2127.72  2162.84  2174.02  2185.57  2187.50
                             2195.54  2206.18  2209.48  2212.38  2224.31
                             2396.21  2483.52  2594.74  4356.05  4366.53
                             4366.90  4373.86  4379.87  4383.88  4385.62
                             4399.62  4401.99  4408.56  4417.97  4419.57
                             4429.40  4432.93  4446.82  4472.76  4473.21
                             4475.20  4483.32  4554.02  4605.84  4670.72

 Zero-point correction=                           0.333343 (Hartree/Particle)
 Thermal correction to Energy=                    0.349585
 Thermal correction to Enthalpy=                  0.350529
 Thermal correction to Gibbs Free Energy=         0.287707
 Sum of electronic and zero-point Energies=           -621.682854
 Sum of electronic and thermal Energies=              -621.666613
 Sum of electronic and thermal Enthalpies=            -621.665668
 Sum of electronic and thermal Free Energies=         -621.728490

                     E (Thermal)             CV                S
                      KCal/Mol        Cal/Mol-Kelvin    Cal/Mol-Kelvin
 Total                  219.368             61.134            132.220
 Electronic               0.000              0.000              0.000
 Translational            0.889              2.981             41.875
 Rotational               0.889              2.981             32.954
 Vibrational            217.590             55.172             57.391
 Vibration     1          0.593              1.985              6.081
 Vibration     2          0.594              1.983              5.667
 Vibration     3          0.595              1.979              5.026
 Vibration     4          0.597              1.973              4.439
 Vibration     5          0.599              1.967              4.083
 Vibration     6          0.604              1.950              3.471
 Vibration     7          0.604              1.949              3.441
 Vibration     8          0.615              1.912              2.791
 Vibration     9          0.628              1.872              2.373
 Vibration    10          0.648              1.809              1.950
 Vibration    11          0.655              1.787              1.840
 Vibration    12          0.680              1.711              1.534
 Vibration    13          0.700              1.653              1.358
 Vibration    14          0.702              1.646              1.337
 Vibration    15          0.709              1.627              1.288
 Vibration    16          0.737              1.548              1.109
 Vibration    17          0.763              1.479              0.978
 Vibration    18          0.785              1.420              0.882
 Vibration    19          0.824              1.325              0.748
 Vibration    20          0.850              1.262              0.671
 Vibration    21          0.867              1.224              0.630
 Vibration    22          0.907              1.137              0.541
 Vibration    23          0.949              1.050              0.465

 Optimization completed.
    -- Stationary point found.
 Normal termination of Gaussian 16 at Thu Dec 10 17:48:45 2020.

 ----------------------------------------------------------------------
 # B3LYP/6-311++G(d,p) empiricaldispersion=gd3bj scf=xqc pop=npa geom=c
 heck
 ----------------------------------------------------------------------

 ---------------------------------------
 CID_102412939_JID_5900_Energie_neutraal
 ---------------------------------------
 Structure from the checkpoint file:  "JID_5900.chk"
 Charge =  0 Multiplicity = 1

 SCF Done:  E(RB3LYP) =  -622.188162271     A.U. after   15 cycles
 Normal termination of Gaussian 16 at Thu Dec 10 17:55:47 2020.

 ----------------------------------------------------------------------
 # B3LYP/6-311++G(d,p) empiricaldispersion=gd3bj scf=xqc pop=npa geom=c
 heck
 ----------------------------------------------------------------------

 -------------------------------------
 CID_102412939_JID_5900_Energie_kation
 -------------------------------------
 Structure from the checkpoint file:  "JID_5900.chk"
 Charge =  1 Multiplicity = 2

 SCF Done:  E(UB3LYP) =  -621.873754958     A.U. after   28 cycles
 Normal termination of Gaussian 16 at Thu Dec 10 18:13:59 2020.
 Gaussian 16:  ES64L-G16RevA.03 25-Dec-2016

 ----------------------------------------------------------------------
 # B3LYP/6-311++G(d,p) empiricaldispersion=gd3bj scf=xqc pop=npa geom=c
 heck
 ----------------------------------------------------------------------

 ------------------------------------
 CID_102412939_JID_5900_Energie_anion
 ------------------------------------
 Structure from the checkpoint file:  "JID_5900.chk"
 Charge = -1 Multiplicity = 2

                         Standard orientation:
 ---------------------------------------------------------------------
 Center     Atomic      Atomic             Coordinates (Angstroms)
 Number     Number       Type             X           Y           Z
 ---------------------------------------------------------------------
      1          6           0        5.230160    1.370816   -0.402292
      2          6           0        4.533431    0.088878   -0.867898
      3          6           0        3.831798   -0.683796    0.259441
      4          6           0        2.735171    0.097337    1.001290
      5          6           0        1.608994    0.639600    0.107536
      6          6           0        0.869990   -0.420181   -0.724450
      7          6           0        0.250910   -1.568776    0.083361
      8          6           0       -0.761674   -1.119158    1.160375
      9          6           0       -1.908841   -0.352776    0.585255
     10          6           0       -2.220569    0.958595    0.718203
     11          6           0       -3.418633    1.336191   -0.026930
     12          6           0       -3.954003    2.563168   -0.072714
     13          6           0       -3.920457    0.087352   -0.721677
     14          6           0       -2.918754   -0.994830   -0.298182
     15          8           0       -2.947665   -2.168781   -0.623442
     16          1           0        4.513659    2.104458   -0.016352
     17          1           0        5.776389    1.845478   -1.225017
     18          1           0        5.949636    1.158879    0.398475
     19          1           0        3.809786    0.333438   -1.656574
     20          1           0        5.273486   -0.574203   -1.334787
     21          1           0        3.404662   -1.605397   -0.156926
     22          1           0        4.585863   -1.004321    0.991897
     23          1           0        2.307726   -0.554853    1.774246
     24          1           0        3.187406    0.938776    1.541718
     25          1           0        0.888540    1.174246    0.740471
     26          1           0        2.016330    1.395712   -0.576025
     27          1           0        0.080483    0.079486   -1.300597
     28          1           0        1.556647   -0.849236   -1.465128
     29          1           0       -0.260088   -2.255311   -0.599525
     30          1           0        1.039338   -2.147979    0.579305
     31          1           0       -1.153455   -2.018138    1.652749
     32          1           0       -0.262025   -0.519135    1.929026
     33          1           0       -1.658442    1.675721    1.310576
     34          1           0       -3.507532    3.392384    0.469737
     35          1           0       -4.848924    2.777766   -0.649306
     36          1           0       -4.934016   -0.194532   -0.414714
     37          1           0       -3.929295    0.182471   -1.813615
 ---------------------------------------------------------------------

 SCF Done:  E(UB3LYP) =  -622.199982962     A.U. after   31 cycles

 The electronic state is 2-A.
 Alpha  occ. eigenvalues --  -18.93258 -10.08071 -10.07798 -10.07548 -10.07340
 Alpha  occ. eigenvalues --  -10.06706 -10.05878 -10.04970 -10.04207 -10.03981
 Alpha  occ. eigenvalues --  -10.03361 -10.03236 -10.01275 -10.01066 -10.00787
 Alpha  occ. eigenvalues --   -0.87033  -0.71998  -0.70524  -0.68235  -0.64718
 Alpha  occ. eigenvalues --   -0.61253  -0.58638  -0.56828  -0.55294  -0.51856
 Alpha  occ. eigenvalues --   -0.47909  -0.45623  -0.43190  -0.39609  -0.38427
 Alpha  occ. eigenvalues --   -0.38093  -0.35945  -0.34255  -0.34220  -0.32637
 Alpha  occ. eigenvalues --   -0.31289  -0.31166  -0.30226  -0.29976  -0.28663
 Alpha  occ. eigenvalues --   -0.27733  -0.27324  -0.26526  -0.25335  -0.24911
 Alpha  occ. eigenvalues --   -0.24112  -0.23597  -0.23284  -0.22638  -0.21681
 Alpha  occ. eigenvalues --   -0.20682  -0.20531  -0.20173  -0.19167  -0.16734
 Alpha  occ. eigenvalues --   -0.09247  -0.08697   0.04183
 Alpha virt. eigenvalues --    0.05462   0.07513   0.07590   0.08821   0.09570
 Alpha virt. eigenvalues --    0.10018   0.10175   0.10954   0.11057   0.11551
 Alpha virt. eigenvalues --    0.11830   0.11907   0.12554   0.13345   0.14040

  Beta  occ. eigenvalues --  -18.92887 -10.08067 -10.07786 -10.07344 -10.07333
  Beta  occ. eigenvalues --  -10.06701 -10.05877 -10.04970 -10.04186 -10.03995
  Beta  occ. eigenvalues --  -10.03390 -10.03247 -10.00942 -10.00868 -10.00470
  Beta  occ. eigenvalues --   -0.86361  -0.71976  -0.70098  -0.68171  -0.64647
  Beta  occ. eigenvalues --   -0.61108  -0.58381  -0.56536  -0.55131  -0.51744
  Beta  occ. eigenvalues --   -0.47698  -0.44978  -0.43054  -0.39374  -0.38395
  Beta  occ. eigenvalues --   -0.38069  -0.35681  -0.34197  -0.34134  -0.32446
  Beta  occ. eigenvalues --   -0.31221  -0.30853  -0.30081  -0.29877  -0.28500
  Beta  occ. eigenvalues --   -0.27629  -0.27249  -0.26458  -0.25251  -0.24811
  Beta  occ. eigenvalues --   -0.23865  -0.23495  -0.23153  -0.22535  -0.21223
  Beta  occ. eigenvalues --   -0.20604  -0.20218  -0.19289  -0.18960  -0.15285
  Beta  occ. eigenvalues --   -0.08366  -0.07214
  Beta virt. eigenvalues --    0.05641   0.07505   0.07566   0.08738   0.09496
  Beta virt. eigenvalues --    0.09839   0.10133   0.10471   0.10853   0.10991
  Beta virt. eigenvalues --    0.11498   0.11752   0.12156   0.12517   0.13275

 Mulliken charges and spin densities:
               1          2
     1  C   -0.160475  -0.474969
     2  C   -0.378484   0.177655
     3  C   -0.102093  -0.186188
     4  C   -0.216581  -0.013677
     5  C   -0.218112  -0.069843
     6  C   -0.239779  -0.020890
     7  C   -0.283820  -0.006398
     8  C   -0.385969  -0.038534
     9  C    1.011327   0.179403
    10  C   -0.647964   0.174442
    11  C    0.943424  -0.070337
    12  C   -0.913808   0.333737
    13  C   -1.094430   0.011747
    14  C   -0.117552   0.091094
    15  O   -0.407087   0.131236
    16  H    0.091075   0.049340
    17  H   -0.002211   0.129783
    18  H    0.013192   0.117609
    19  H    0.144231  -0.011994
    20  H   -0.008558   0.150580
    21  H    0.087804   0.051948
    22  H    0.005574   0.136043
    23  H    0.114315   0.046401
    24  H    0.084902   0.057108
    25  H    0.183893  -0.030517
    26  H    0.135075   0.012600
    27  H    0.148184   0.003581
    28  H    0.135266   0.003938
    29  H    0.214800  -0.007894
    30  H    0.057788   0.051147
    31  H    0.139187   0.040421
    32  H    0.103883   0.033708
    33  H    0.084623  -0.010760
    34  H    0.082244  -0.015156
    35  H    0.094596  -0.018298
    36  H    0.145106  -0.002897
    37  H    0.156432  -0.005170
 Sum of Mulliken charges =  -1.00000   1.00000

 Dipole moment (field-independent basis, Debye):
    X=              6.6120    Y=              1.2667    Z=              0.2170  Tot=              6.7357
 Quadrupole moment (field-independent basis, Debye-Ang):
   XX=           -169.6521   YY=           -127.2099   ZZ=           -107.8673
   XY=             -2.5099   XZ=             -0.8195   YZ=             -1.7355

 Summary of Natural Population Analysis:

                                       Natural Population
                Natural  -----------------------------------------------
    Atom  No    Charge         Core      Valence    Rydberg      Total
 -----------------------------------------------------------------------
      C    1   -0.28716      0.99967     2.28305    0.00444     3.28716
      C    2   -0.19503      0.99964     2.18623    0.00915     3.19503
      C    3   -0.19272      0.99963     2.18391    0.00918     3.19272
      C    4   -0.19562      0.99963     2.18620    0.00979     3.19562
      C    5   -0.19417      0.99963     2.18680    0.00773     3.19417
      C    6   -0.19269      0.99963     2.18644    0.00662     3.19269
      C    7   -0.18979      0.99963     2.17987    0.01030     3.18979
      C    8   -0.20339      0.99960     2.19327    0.01052     3.20339
      C    9   -0.03264      0.99945     2.02122    0.01198     3.03264
      C   10   -0.01429      0.99944     2.00730    0.00755     3.01429
      C   11   -0.03138      0.99955     2.02300    0.00882     3.03138
      C   12   -0.14212      0.99952     2.13457    0.00803     3.14212
      C   13   -0.24185      0.99957     2.23527    0.00701     3.24185
      C   14    0.29241      0.99961     1.68428    0.02370     2.70759
      O   15   -0.28037      0.99987     3.27319    0.00730     4.28037
      H   16    0.09748      0.00000     0.40156    0.00096     0.40252
      H   17    0.09659      0.00000     0.40252    0.00089     0.40341
      H   18    0.09419      0.00000     0.40465    0.00115     0.40581
      H   19    0.09563      0.00000     0.40330    0.00107     0.40437
      H   20    0.09354      0.00000     0.40553    0.00092     0.40646
      H   21    0.09893      0.00000     0.40008    0.00099     0.40107
      H   22    0.09277      0.00000     0.40630    0.00093     0.40723
      H   23    0.09934      0.00000     0.39966    0.00100     0.40066
      H   24    0.09314      0.00000     0.40588    0.00098     0.40686
      H   25    0.10190      0.00000     0.39686    0.00124     0.39810
      H   26    0.09163      0.00000     0.40725    0.00112     0.40837
      H   27    0.10580      0.00000     0.39321    0.00099     0.39420
      H   28    0.08965      0.00000     0.40927    0.00109     0.41035
      H   29    0.10868      0.00000     0.39013    0.00119     0.39132
      H   30    0.08743      0.00000     0.41135    0.00122     0.41257
      H   31    0.10581      0.00000     0.39272    0.00148     0.39419
      H   32    0.09184      0.00000     0.40682    0.00135     0.40816
      H   33    0.08335      0.00000     0.41494    0.00171     0.41665
      H   34    0.08220      0.00000     0.41662    0.00118     0.41780
      H   35    0.08112      0.00000     0.41785    0.00103     0.41888
      H   36    0.10490      0.00000     0.39398    0.00112     0.39510
      H   37    0.10487      0.00000     0.39403    0.00110     0.39513
 =======================================================================
   * Total *   -0.00000     14.99406    41.83913    0.16681    57.00000

 Normal termination of Gaussian 16 at Thu Dec 10 18:33:33 2020.
