 Gaussian 16, Revision A.03,

 -----------------------------------------------------------
 # opt freq B3LYP/6-31G(d) empiricaldispersion=gd3bj scf=xqc
 -----------------------------------------------------------

 -------------------------------
 CID_146855998_JID_2926_neutraal
 -------------------------------
 Symbolic Z-matrix:
 Charge =  0 Multiplicity = 1

 SCF Done:  E(RB3LYP) =  -590.525678822     A.U. after   15 cycles
 SCF Done:  E(RB3LYP) =  -590.528921098     A.U. after   13 cycles
 SCF Done:  E(RB3LYP) =  -590.529298598     A.U. after   12 cycles
 SCF Done:  E(RB3LYP) =  -590.529818650     A.U. after   12 cycles
 SCF Done:  E(RB3LYP) =  -590.530177601     A.U. after   12 cycles
 SCF Done:  E(RB3LYP) =  -590.530182039     A.U. after   12 cycles
 SCF Done:  E(RB3LYP) =  -590.530322682     A.U. after   10 cycles
 SCF Done:  E(RB3LYP) =  -590.530341635     A.U. after   11 cycles
 SCF Done:  E(RB3LYP) =  -590.530374114     A.U. after   10 cycles
 SCF Done:  E(RB3LYP) =  -590.530385217     A.U. after   10 cycles
 SCF Done:  E(RB3LYP) =  -590.530393388     A.U. after   10 cycles
 SCF Done:  E(RB3LYP) =  -590.530397501     A.U. after   10 cycles
 SCF Done:  E(RB3LYP) =  -590.530398679     A.U. after    9 cycles
 SCF Done:  E(RB3LYP) =  -590.530398973     A.U. after    8 cycles
 SCF Done:  E(RB3LYP) =  -590.530399079     A.U. after    7 cycles
 Optimization completed.
    -- Stationary point found.
 Normal termination of Gaussian 16 at Wed Dec  9 18:16:18 2020.

 --------------------------------------------------------------------
 #N Geom=AllCheck Guess=TCheck SCRF=Check GenChk RB3LYP/6-31G(d) Freq
 --------------------------------------------------------------------

 Structure from the checkpoint file:  "JID_2926.chk"
 -------------------------------
 CID_146855998_JID_2926_neutraal
 -------------------------------
 Charge =  0 Multiplicity = 1

 SCF Done:  E(RB3LYP) =  -590.530399079     A.U. after    1 cycles

  Exact polarizability: 109.186   9.365  99.805   5.477  -7.969  85.628
 Approx polarizability: 142.851  12.966 144.475  10.164 -20.280 133.362

                      1                      2                      3
                      A                      A                      A
 Frequencies --     35.8318                47.2707                69.0814
 Red. masses --      5.5148                 5.5631                 3.7756
 Frc consts  --      0.0042                 0.0073                 0.0106
 IR Inten    --      1.6326                 3.3148                 0.7427

                      4                      5                      6
                      A                      A                      A
 Frequencies --     80.7797                93.5692               129.2076
 Red. masses --      3.6439                 4.6373                 3.2937
 Frc consts  --      0.0140                 0.0239                 0.0324
 IR Inten    --      0.3279                 4.3308                 0.9095

                      7                      8                      9
                      A                      A                      A
 Frequencies --    137.4494               162.8743               231.9434
 Red. masses --      2.6459                 2.0293                 1.1918
 Frc consts  --      0.0295                 0.0317                 0.0378
 IR Inten    --      9.7749                 4.2079                 0.3996

                     10                     11                     12
                      A                      A                      A
 Frequencies --    242.7542               262.7847               292.9745
 Red. masses --      4.1058                 2.1927                 1.4290
 Frc consts  --      0.1426                 0.0892                 0.0723
 IR Inten    --      1.5374                 5.8765                22.0796

                     13                     14                     15
                      A                      A                      A
 Frequencies --    332.1804               365.9145               393.6439
 Red. masses --      2.5042                 2.2827                 2.8853
 Frc consts  --      0.1628                 0.1801                 0.2634
 IR Inten    --     31.2004                 5.2161                 2.5954

                     16                     17                     18
                      A                      A                      A
 Frequencies --    435.9584               503.7051               517.2883
 Red. masses --      2.3374                 3.0037                 3.0167
 Frc consts  --      0.2617                 0.4490                 0.4756
 IR Inten    --      4.4858                 0.3247                 9.4265

                     19                     20                     21
                      A                      A                      A
 Frequencies --    581.6179               610.3913               672.5653
 Red. masses --      3.6098                 3.3378                 1.5040
 Frc consts  --      0.7195                 0.7327                 0.4008
 IR Inten    --     19.0800                 9.7430               122.1142

                     22                     23                     24
                      A                      A                      A
 Frequencies --    701.5841               734.2659               794.2719
 Red. masses --      2.6899                 3.5879                 1.1923
 Frc consts  --      0.7801                 1.1397                 0.4432
 IR Inten    --     48.0563                10.7213                 6.1689

                     25                     26                     27
                      A                      A                      A
 Frequencies --    879.4723               891.3138               915.4686
 Red. masses --      1.9186                 1.4061                 2.1805
 Frc consts  --      0.8744                 0.6582                 1.0767
 IR Inten    --     19.4969                62.6764                 8.2153

                     28                     29                     30
                      A                      A                      A
 Frequencies --    945.2084              1003.0350              1040.7584
 Red. masses --      2.3704                 1.9001                 1.5965
 Frc consts  --      1.2477                 1.1263                 1.0189
 IR Inten    --      1.3024                50.7917                 7.1700

                     31                     32                     33
                      A                      A                      A
 Frequencies --   1045.9993              1070.4904              1094.9251
 Red. masses --      2.3838                 2.6884                 1.8990
 Frc consts  --      1.5366                 1.8151                 1.3414
 IR Inten    --     43.8388                11.4507                 9.6950

                     34                     35                     36
                      A                      A                      A
 Frequencies --   1117.7168              1136.4633              1160.5809
 Red. masses --      1.8843                 2.5321                 2.1565
 Frc consts  --      1.3869                 1.9268                 1.7114
 IR Inten    --      9.1902                19.7005                20.0253

                     37                     38                     39
                      A                      A                      A
 Frequencies --   1183.1063              1235.5159              1267.9685
 Red. masses --      1.2443                 1.8589                 2.1251
 Frc consts  --      1.0262                 1.6719                 2.0131
 IR Inten    --     10.2510                96.1148                13.8485

                     40                     41                     42
                      A                      A                      A
 Frequencies --   1284.3692              1316.5026              1335.4891
 Red. masses --      1.5761                 1.6161                 1.2081
 Frc consts  --      1.5318                 1.6502                 1.2695
 IR Inten    --     42.6244                59.3616                 6.4553

                     43                     44                     45
                      A                      A                      A
 Frequencies --   1354.8728              1399.2647              1412.7029
 Red. masses --      1.3735                 1.2977                 1.2789
 Frc consts  --      1.4856                 1.4971                 1.5038
 IR Inten    --     23.2982                12.9534                15.5117

                     46                     47                     48
                      A                      A                      A
 Frequencies --   1421.0799              1427.9398              1434.6673
 Red. masses --      1.3129                 1.2154                 1.3407
 Frc consts  --      1.5622                 1.4602                 1.6259
 IR Inten    --      6.0221                23.8743                10.9124

                     49                     50                     51
                      A                      A                      A
 Frequencies --   1437.5115              1479.2511              1503.4058
 Red. masses --      1.3211                 2.0137                 1.6611
 Frc consts  --      1.6085                 2.5962                 2.2120
 IR Inten    --      6.2637                84.8660                34.8855

                     52                     53                     54
                      A                      A                      A
 Frequencies --   1511.9986              1515.0229              1520.8820
 Red. masses --      1.1845                 1.1846                 1.0454
 Frc consts  --      1.5955                 1.6020                 1.4247
 IR Inten    --     21.2931                 6.5832                 5.1926

                     55                     56                     57
                      A                      A                      A
 Frequencies --   1533.4744              1536.5309              1545.3089
 Red. masses --      1.0857                 1.0573                 1.0909
 Frc consts  --      1.5042                 1.4708                 1.5349
 IR Inten    --      4.1440                 4.7355                 4.4363

                     58                     59                     60
                      A                      A                      A
 Frequencies --   1695.4066              1750.2656              1819.6095
 Red. masses --      1.0967                 8.7335                 7.0608
 Frc consts  --      1.8574                15.7633                13.7740
 IR Inten    --     42.9802               246.1143               406.8317

                     61                     62                     63
                      A                      A                      A
 Frequencies --   2956.2005              3041.9820              3048.3474
 Red. masses --      1.0846                 1.0693                 1.0674
 Frc consts  --      5.5845                 5.8299                 5.8440
 IR Inten    --     78.5705                30.6450                30.4209

                     64                     65                     66
                      A                      A                      A
 Frequencies --   3054.2708              3062.5977              3072.8736
 Red. masses --      1.0374                 1.0620                 1.0659
 Frc consts  --      5.7018                 5.8690                 5.9301
 IR Inten    --     26.3001                19.6527                61.8603

                     67                     68                     69
                      A                      A                      A
 Frequencies --   3105.7597              3114.5012              3116.2499
 Red. masses --      1.1048                 1.1017                 1.0964
 Frc consts  --      6.2786                 6.2965                 6.2731
 IR Inten    --     21.5250                26.3343                 5.1771

                     70                     71                     72
                      A                      A                      A
 Frequencies --   3140.2679              3144.1783              3152.1726
 Red. masses --      1.0969                 1.0960                 1.1030
 Frc consts  --      6.3730                 6.3840                 6.4574
 IR Inten    --     15.8038                14.3280                19.3402

                     73                     74                     75
                      A                      A                      A
 Frequencies --   3469.1527              3553.5519              3579.9623
 Red. masses --      1.0498                 1.0930                 1.0755
 Frc consts  --      7.4440                 8.1317                 8.1211
 IR Inten    --      0.3438                 0.5771                14.8211

 - Thermochemistry -
 -------------------
 Temperature   298.150 Kelvin.  Pressure   1.00000 Atm.
 Atom     1 has atomic number  6 and mass  12.00000

 Molecular mass:   173.11643 amu.
 Principal axes and moments of inertia in atomic units:
                           1         2         3
     Eigenvalues --  1474.624982912.012343586.65822
           X            0.99967   0.02547   0.00326
           Y           -0.02551   0.99956   0.01480
           Z           -0.00288  -0.01488   0.99989
 This molecule is an asymmetric top.
 Rotational symmetry number  1.
 Warning -- assumption of classical behavior for rotation
           may cause significant error
 Rotational temperatures (Kelvin)      0.05874     0.02974     0.02415
 Rotational constants (GHZ):           1.22386     0.61976     0.50318
 Zero-point vibrational energy     617665.2 (Joules/Mol)
                                  147.62552 (Kcal/Mol)
 Warning -- explicit consideration of  20 degrees of freedom as
           vibrations may cause significant error
 Vibrational temperatures:     51.55    68.01    99.39   116.22   134.63
          (Kelvin)            185.90   197.76   234.34   333.71   349.27
                              378.09   421.52   477.93   526.47   566.37
                              627.25   724.72   744.26   836.82   878.22
                              967.67  1009.42  1056.44  1142.78  1265.36
                             1282.40  1317.16  1359.94  1443.14  1497.42
                             1504.96  1540.20  1575.35  1608.15  1635.12
                             1669.82  1702.23  1777.63  1824.32  1847.92
                             1894.15  1921.47  1949.36  2013.23  2032.56
                             2044.62  2054.49  2064.17  2068.26  2128.31
                             2163.07  2175.43  2179.78  2188.21  2206.33
                             2210.73  2223.35  2439.31  2518.24  2618.01
                             4253.31  4376.73  4385.89  4394.41  4406.40
                             4421.18  4468.50  4481.07  4483.59  4518.15
                             4523.77  4535.27  4991.34  5112.77  5150.77

 Zero-point correction=                           0.235256 (Hartree/Particle)
 Thermal correction to Energy=                    0.249069
 Thermal correction to Enthalpy=                  0.250013
 Thermal correction to Gibbs Free Energy=         0.193692
 Sum of electronic and zero-point Energies=           -590.295143
 Sum of electronic and thermal Energies=              -590.281330
 Sum of electronic and thermal Enthalpies=            -590.280386
 Sum of electronic and thermal Free Energies=         -590.336707

                     E (Thermal)             CV                S
                      KCal/Mol        Cal/Mol-Kelvin    Cal/Mol-Kelvin
 Total                  156.293             48.925            118.538
 Electronic               0.000              0.000              0.000
 Translational            0.889              2.981             41.354
 Rotational               0.889              2.981             31.111
 Vibrational            154.516             42.963             46.073
 Vibration     1          0.594              1.982              5.477
 Vibration     2          0.595              1.979              4.928
 Vibration     3          0.598              1.969              4.179
 Vibration     4          0.600              1.962              3.872
 Vibration     5          0.603              1.954              3.584
 Vibration     6          0.612              1.924              2.958
 Vibration     7          0.614              1.916              2.839
 Vibration     8          0.623              1.888              2.516
 Vibration     9          0.653              1.792              1.864
 Vibration    10          0.659              1.775              1.783
 Vibration    11          0.670              1.741              1.643
 Vibration    12          0.688              1.687              1.457
 Vibration    13          0.714              1.611              1.249
 Vibration    14          0.739              1.542              1.097
 Vibration    15          0.761              1.484              0.986
 Vibration    16          0.796              1.392              0.839
 Vibration    17          0.859              1.242              0.649
 Vibration    18          0.872              1.212              0.616
 Vibration    19          0.938              1.071              0.482
 Vibration    20          0.969              1.010              0.432

                           ! Non-Optimized Parameters !
 Normal termination of Gaussian 16 at Wed Dec  9 18:23:05 2020.

 ----------------------------------------------------------------------
 # B3LYP/6-311++G(d,p) empiricaldispersion=gd3bj scf=xqc pop=npa geom=c
 heck
 ----------------------------------------------------------------------

 ---------------------------------------
 CID_146855998_JID_2926_Energie_neutraal
 ---------------------------------------
 Structure from the checkpoint file:  "JID_2926.chk"
 Charge =  0 Multiplicity = 1

 SCF Done:  E(RB3LYP) =  -590.717998526     A.U. after   14 cycles
 Normal termination of Gaussian 16 at Wed Dec  9 18:25:44 2020.

 ----------------------------------------------------------------------
 # B3LYP/6-311++G(d,p) empiricaldispersion=gd3bj scf=xqc pop=npa geom=c
 heck
 ----------------------------------------------------------------------

 -------------------------------------
 CID_146855998_JID_2926_Energie_kation
 -------------------------------------
 Structure from the checkpoint file:  "JID_2926.chk"
 Charge =  1 Multiplicity = 2

 SCF Done:  E(UB3LYP) =  -590.398633044     A.U. after   28 cycles
 Normal termination of Gaussian 16 at Wed Dec  9 18:31:42 2020.
 Gaussian 16:  ES64L-G16RevA.03 25-Dec-2016

 ----------------------------------------------------------------------
 # B3LYP/6-311++G(d,p) empiricaldispersion=gd3bj scf=xqc pop=npa geom=c
 heck
 ----------------------------------------------------------------------

 ------------------------------------
 CID_146855998_JID_2926_Energie_anion
 ------------------------------------
 Structure from the checkpoint file:  "JID_2926.chk"
 Charge = -1 Multiplicity = 2

                         Standard orientation:
 ---------------------------------------------------------------------
 Center     Atomic      Atomic             Coordinates (Angstroms)
 Number     Number       Type             X           Y           Z
 ---------------------------------------------------------------------
      1          6           0       -3.361186   -0.944959    0.265515
      2          6           0       -2.066557   -1.178403   -0.513551
      3          7           0       -0.969211   -0.326457   -0.041265
      4          6           0       -0.125820   -0.856040    1.025298
      5          6           0        0.965169   -1.800064    0.496069
      6          7           0        1.864934   -1.143615   -0.436630
      7          6           0        3.002343   -0.497504   -0.049927
      8          8           0        3.604936    0.320786   -0.722316
      9          6           0       -0.920131    0.957949   -0.526640
     10          8           0       -1.728018    1.350706   -1.365831
     11          6           0        0.170612    1.911072   -0.021737
     12          7           0        0.022898    2.190762    1.415090
     13          1           0       -3.218129   -1.121832    1.337795
     14          1           0       -4.149635   -1.618728   -0.088067
     15          1           0       -3.696769    0.085578    0.122563
     16          1           0       -1.742047   -2.220574   -0.421013
     17          1           0       -2.223847   -0.965086   -1.572315
     18          1           0        0.313189   -0.019730    1.571817
     19          1           0       -0.762532   -1.403721    1.732979
     20          1           0        1.558798   -2.174878    1.337487
     21          1           0        0.520330   -2.671917    0.003561
     22          1           0        1.472159   -0.830493   -1.317882
     23          1           0        3.338860   -0.815149    0.958003
     24          1           0        1.164583    1.482563   -0.183816
     25          1           0        0.083221    2.794676   -0.666703
     26          1           0        0.763867    2.825133    1.708150
     27          1           0       -0.854318    2.685077    1.572076
 ---------------------------------------------------------------------

 SCF Done:  E(UB3LYP) =  -590.709002936     A.U. after   30 cycles

 The electronic state is 2-A.
 Alpha  occ. eigenvalues --  -19.00666 -18.98639 -14.25075 -14.24345 -14.20288
 Alpha  occ. eigenvalues --  -10.18043 -10.16897 -10.11659 -10.10535 -10.10395
 Alpha  occ. eigenvalues --  -10.10251 -10.06498  -0.95194  -0.93957  -0.84988
 Alpha  occ. eigenvalues --   -0.82830  -0.79012  -0.67279  -0.65016  -0.59656
 Alpha  occ. eigenvalues --   -0.56166  -0.53596  -0.53419  -0.44303  -0.42247
 Alpha  occ. eigenvalues --   -0.41645  -0.39875  -0.38592  -0.37249  -0.36697
 Alpha  occ. eigenvalues --   -0.34687  -0.33440  -0.33013  -0.32123  -0.31226
 Alpha  occ. eigenvalues --   -0.30994  -0.29963  -0.29038  -0.28112  -0.26682
 Alpha  occ. eigenvalues --   -0.26485  -0.24991  -0.18135  -0.17377  -0.16059
 Alpha  occ. eigenvalues --   -0.15258  -0.14553   0.04238
 Alpha virt. eigenvalues --    0.06217   0.07293   0.08112   0.08910   0.09315
 Alpha virt. eigenvalues --    0.10054   0.10385   0.10777   0.11090   0.11249
 Alpha virt. eigenvalues --    0.12050   0.12940   0.13819   0.14006   0.14674

  Beta  occ. eigenvalues --  -19.00664 -18.98601 -14.25076 -14.24346 -14.20228
  Beta  occ. eigenvalues --  -10.18027 -10.16881 -10.11614 -10.10514 -10.10366
  Beta  occ. eigenvalues --  -10.10244 -10.06476  -0.95186  -0.93902  -0.84967
  Beta  occ. eigenvalues --   -0.82812  -0.78919  -0.67236  -0.64959  -0.59580
  Beta  occ. eigenvalues --   -0.56105  -0.53540  -0.53369  -0.44258  -0.42195
  Beta  occ. eigenvalues --   -0.41584  -0.39834  -0.38537  -0.37182  -0.36637
  Beta  occ. eigenvalues --   -0.34648  -0.33406  -0.32957  -0.32090  -0.31184
  Beta  occ. eigenvalues --   -0.30939  -0.29927  -0.28990  -0.28070  -0.26599
  Beta  occ. eigenvalues --   -0.26440  -0.24942  -0.18117  -0.17359  -0.16015
  Beta  occ. eigenvalues --   -0.15211  -0.14479
  Beta virt. eigenvalues --    0.06904   0.07273   0.08149   0.08466   0.09002
  Beta virt. eigenvalues --    0.09915   0.10442   0.10860   0.11059   0.11391
  Beta virt. eigenvalues --    0.11609   0.12715   0.13163   0.14142   0.14283

 Mulliken charges and spin densities:
               1          2
     1  C    0.274738  -0.698682
     2  C    0.090446  -0.205887
     3  N    0.221805  -0.053806
     4  C   -1.279440   1.076745
     5  C    2.057308  -2.682708
     6  N   -0.296551   0.154638
     7  C    0.466769  -0.389257
     8  O   -0.359119   0.018932
     9  C   -0.043540   0.017380
    10  O   -0.328838   0.017599
    11  C   -0.020306  -0.499617
    12  N   -0.158669  -0.179112
    13  H   -0.000601   0.134993
    14  H   -0.128442   0.264306
    15  H    0.062423   0.104380
    16  H   -0.248384   0.376570
    17  H    0.165876   0.013144
    18  H    0.445132  -0.198008
    19  H   -0.964428   1.145596
    20  H   -0.818542   1.030672
    21  H   -0.221856   0.409735
    22  H    0.263786   0.041031
    23  H   -0.226865   0.334661
    24  H    0.231330  -0.082278
    25  H    0.087458   0.091749
    26  H   -0.255173   0.500273
    27  H   -0.016316   0.256952
 Sum of Mulliken charges =  -1.00000   1.00000

 Dipole moment (field-independent basis, Debye):
    X=             -1.1295    Y=              1.2528    Z=             -3.9041  Tot=              4.2529
 Quadrupole moment (field-independent basis, Debye-Ang):
   XX=           -127.0932   YY=           -126.9595   ZZ=           -113.1942
   XY=             -1.8450   XZ=             -1.5630   YZ=              8.8735

 Summary of Natural Population Analysis:

                                       Natural Population
                Natural  -----------------------------------------------
    Atom  No    Charge         Core      Valence    Rydberg      Total
 -----------------------------------------------------------------------
      C    1   -0.29100      0.99966     2.28663    0.00471     3.29100
      C    2   -0.08703      0.99962     2.07635    0.01107     3.08703
      N    3   -0.25977      0.99964     2.74788    0.01225     3.75977
      C    4   -0.09999      0.99959     2.08796    0.01245     3.09999
      C    5   -0.09543      0.99961     2.08271    0.01312     3.09543
      N    6   -0.31760      0.99970     2.80856    0.00933     3.81760
      C    7    0.27192      0.99973     1.70543    0.02292     2.72808
      O    8   -0.31548      0.99988     3.30933    0.00627     4.31548
      C    9    0.34120      0.99964     1.63499    0.02417     2.65880
      O   10   -0.32733      0.99988     3.32222    0.00522     4.32733
      C   11   -0.13191      0.99959     2.12155    0.01077     3.13191
      N   12   -0.42096      0.99977     2.91086    0.01033     3.92096
      H   13    0.09961      0.00000     0.39928    0.00111     0.40039
      H   14    0.09762      0.00000     0.40158    0.00080     0.40238
      H   15    0.10438      0.00000     0.39467    0.00095     0.39562
      H   16    0.09477      0.00000     0.40366    0.00156     0.40523
      H   17    0.10523      0.00000     0.39366    0.00110     0.39477
      H   18    0.12101      0.00000     0.37591    0.00308     0.37899
      H   19    0.10369      0.00000     0.39293    0.00338     0.39631
      H   20    0.10680      0.00000     0.38893    0.00427     0.39320
      H   21    0.09850      0.00000     0.39967    0.00183     0.40150
      H   22    0.19243      0.00000     0.30511    0.00245     0.30757
      H   23    0.05421      0.00000     0.44395    0.00184     0.44579
      H   24    0.10347      0.00000     0.39483    0.00170     0.39653
      H   25    0.09376      0.00000     0.40481    0.00143     0.40624
      H   26    0.18057      0.00000     0.31641    0.00302     0.31943
      H   27    0.17735      0.00000     0.32041    0.00224     0.32265
 =======================================================================
   * Total *    0.00000     11.99630    34.83030    0.17340    47.00000

 Normal termination of Gaussian 16 at Wed Dec  9 18:38:23 2020.
