 Gaussian 16, Revision A.03,

 -----------------------------------------------------------
 # opt freq B3LYP/6-31G(d) empiricaldispersion=gd3bj scf=xqc
 -----------------------------------------------------------

 -------------------------------
 CID_136933237_JID_7416_neutraal
 -------------------------------
 Symbolic Z-matrix:
 Charge =  0 Multiplicity = 1

 SCF Done:  E(RB3LYP) =  -1053.29422486     A.U. after   14 cycles
 SCF Done:  E(RB3LYP) =  -1053.29874104     A.U. after   13 cycles
 SCF Done:  E(RB3LYP) =  -1053.29991071     A.U. after   12 cycles
 SCF Done:  E(RB3LYP) =  -1053.30068316     A.U. after   12 cycles
 SCF Done:  E(RB3LYP) =  -1053.30117616     A.U. after   12 cycles
 SCF Done:  E(RB3LYP) =  -1053.30153886     A.U. after   12 cycles
 SCF Done:  E(RB3LYP) =  -1053.30179449     A.U. after   12 cycles
 SCF Done:  E(RB3LYP) =  -1053.30209772     A.U. after   12 cycles
 SCF Done:  E(RB3LYP) =  -1053.30260966     A.U. after   13 cycles
 SCF Done:  E(RB3LYP) =  -1053.30246219     A.U. after   13 cycles
 SCF Done:  E(RB3LYP) =  -1053.30505173     A.U. after    9 cycles
 SCF Done:  E(RB3LYP) =  -1053.30505271     A.U. after    9 cycles
 SCF Done:  E(RB3LYP) =  -1053.30505299     A.U. after    7 cycles
 SCF Done:  E(RB3LYP) =  -1053.30505307     A.U. after    7 cycles
 SCF Done:  E(RB3LYP) =  -1053.30505306     A.U. after    7 cycles
 Optimization completed.
    -- Stationary point found.
 Normal termination of Gaussian 16 at Sun Dec 13 20:49:59 2020.

 --------------------------------------------------------------------
 #N Geom=AllCheck Guess=TCheck SCRF=Check GenChk RB3LYP/6-31G(d) Freq
 --------------------------------------------------------------------

 Structure from the checkpoint file:  "JID_7416.chk"
 -------------------------------
 CID_136933237_JID_7416_neutraal
 -------------------------------
 Charge =  0 Multiplicity = 1

 SCF Done:  E(RB3LYP) =  -1053.30505306     A.U. after    1 cycles

  Exact polarizability: 181.689 -15.918 172.748  -4.822   0.956 148.625
 Approx polarizability: 249.908 -27.591 274.927  -9.653   0.897 256.727

                      1                      2                      3
                      A                      A                      A
 Frequencies --     28.7499                39.1570                58.0288
 Red. masses --      3.8761                 3.1814                 4.5021
 Frc consts  --      0.0019                 0.0029                 0.0089
 IR Inten    --      0.3768                 0.2164                 0.3062

                      4                      5                      6
                      A                      A                      A
 Frequencies --     64.4469                96.0685               103.3342
 Red. masses --      3.3459                 2.9251                 2.8310
 Frc consts  --      0.0082                 0.0159                 0.0178
 IR Inten    --      1.2087                 0.1693                 0.1655

                      7                      8                      9
                      A                      A                      A
 Frequencies --    135.2160               156.6537               176.5849
 Red. masses --      1.2578                 1.7213                 2.7491
 Frc consts  --      0.0135                 0.0249                 0.0505
 IR Inten    --      0.0944                 0.5567                 0.1424

                     10                     11                     12
                      A                      A                      A
 Frequencies --    190.8754               241.9310               249.7960
 Red. masses --      1.8597                 2.6645                 2.8418
 Frc consts  --      0.0399                 0.0919                 0.1045
 IR Inten    --      2.2530                 1.7064                 2.1793

                     13                     14                     15
                      A                      A                      A
 Frequencies --    263.3476               285.3184               299.8980
 Red. masses --      4.1340                 2.7207                 3.1120
 Frc consts  --      0.1689                 0.1305                 0.1649
 IR Inten    --      1.7855                 2.5193                 0.8533

                     16                     17                     18
                      A                      A                      A
 Frequencies --    337.5465               381.4570               399.9575
 Red. masses --      2.4300                 4.0616                 2.9056
 Frc consts  --      0.1631                 0.3482                 0.2739
 IR Inten    --      0.4088                 3.2261                 2.8880

                     19                     20                     21
                      A                      A                      A
 Frequencies --    423.3137               451.3589               475.3213
 Red. masses --      3.5822                 3.5408                 4.8459
 Frc consts  --      0.3782                 0.4250                 0.6451
 IR Inten    --      3.2684                 1.7989                 9.8104

                     22                     23                     24
                      A                      A                      A
 Frequencies --    512.8402               561.2198               567.8632
 Red. masses --      3.6038                 2.8940                 3.4307
 Frc consts  --      0.5584                 0.5371                 0.6518
 IR Inten    --      0.9395                 0.6309                10.0746

                     25                     26                     27
                      A                      A                      A
 Frequencies --    578.9753               625.3116               644.5284
 Red. masses --      2.7501                 5.2202                 3.7682
 Frc consts  --      0.5432                 1.2026                 0.9223
 IR Inten    --     15.2351                 6.8134                10.7188

                     28                     29                     30
                      A                      A                      A
 Frequencies --    686.0720               720.4058               735.0088
 Red. masses --      4.8162                 2.1500                 3.2150
 Frc consts  --      1.3356                 0.6574                 1.0233
 IR Inten    --      4.3160                44.3822                13.8966

                     31                     32                     33
                      A                      A                      A
 Frequencies --    740.7235               762.6958               779.6741
 Red. masses --      3.6327                 1.3706                 2.4442
 Frc consts  --      1.1743                 0.4698                 0.8754
 IR Inten    --     19.8379                35.8350                15.6982

                     34                     35                     36
                      A                      A                      A
 Frequencies --    790.8045               822.5809               863.5470
 Red. masses --      1.4544                 1.8214                 3.2659
 Frc consts  --      0.5359                 0.7261                 1.4349
 IR Inten    --      2.3865                 3.5650                 6.4015

                     37                     38                     39
                      A                      A                      A
 Frequencies --    886.3064               915.0858               932.1911
 Red. masses --      1.3910                 2.5862                 2.2423
 Frc consts  --      0.6438                 1.2760                 1.1480
 IR Inten    --      2.4987                 3.6761                 2.2509

                     40                     41                     42
                      A                      A                      A
 Frequencies --    942.9335               982.4107               985.4101
 Red. masses --      1.3712                 1.2563                 2.1756
 Frc consts  --      0.7183                 0.7144                 1.2447
 IR Inten    --      3.1048                 0.2802                 5.9473

                     43                     44                     45
                      A                      A                      A
 Frequencies --    994.7234              1022.7262              1023.5811
 Red. masses --      2.4964                 1.6126                 1.5758
 Frc consts  --      1.4554                 0.9938                 0.9728
 IR Inten    --     11.4186                 4.1733                 0.0813

                     46                     47                     48
                      A                      A                      A
 Frequencies --   1039.4828              1067.1052              1075.2035
 Red. masses --      2.7740                 1.8260                 1.6206
 Frc consts  --      1.7660                 1.2251                 1.1038
 IR Inten    --      2.5106                10.2736                 2.6118

                     49                     50                     51
                      A                      A                      A
 Frequencies --   1084.6145              1106.8993              1111.3175
 Red. masses --      2.1947                 1.7161                 2.5787
 Frc consts  --      1.5211                 1.2388                 1.8764
 IR Inten    --      2.0348                 0.2637                 3.3686

                     52                     53                     54
                      A                      A                      A
 Frequencies --   1145.7586              1180.0293              1196.3202
 Red. masses --      1.9357                 2.4111                 1.1131
 Frc consts  --      1.4972                 1.9781                 0.9386
 IR Inten    --      1.1327                45.6448                 0.3024

                     55                     56                     57
                      A                      A                      A
 Frequencies --   1207.4553              1218.8420              1236.3743
 Red. masses --      2.5086                 1.3425                 1.8511
 Frc consts  --      2.1549                 1.1750                 1.6672
 IR Inten    --      5.3066                 2.7160                 3.5621

                     58                     59                     60
                      A                      A                      A
 Frequencies --   1245.3906              1255.4312              1273.3606
 Red. masses --      1.4369                 2.4714                 1.5775
 Frc consts  --      1.3131                 2.2950                 1.5071
 IR Inten    --     11.1467                85.9320                20.3520

                     61                     62                     63
                      A                      A                      A
 Frequencies --   1328.2390              1330.8139              1340.0205
 Red. masses --      1.1908                 1.3681                 1.3731
 Frc consts  --      1.2378                 1.4275                 1.4527
 IR Inten    --      3.1230                 1.2266                31.6144

                     64                     65                     66
                      A                      A                      A
 Frequencies --   1353.1355              1359.9377              1371.5705
 Red. masses --      2.9816                 1.3157                 1.4507
 Frc consts  --      3.2165                 1.4336                 1.6080
 IR Inten    --      4.7265                 0.8076                38.3396

                     67                     68                     69
                      A                      A                      A
 Frequencies --   1381.5871              1407.8598              1417.4090
 Red. masses --      1.4844                 1.3223                 1.2573
 Frc consts  --      1.6694                 1.5441                 1.4883
 IR Inten    --     17.7964                 7.7078                38.9598

                     70                     71                     72
                      A                      A                      A
 Frequencies --   1448.6513              1450.6107              1487.8042
 Red. masses --      1.2262                 1.2544                 1.7664
 Frc consts  --      1.5162                 1.5552                 2.3038
 IR Inten    --      0.4021                14.6786                 2.8651

                     73                     74                     75
                      A                      A                      A
 Frequencies --   1494.9713              1498.4109              1509.2264
 Red. masses --      1.2034                 1.1247                 1.1508
 Frc consts  --      1.5846                 1.4878                 1.5444
 IR Inten    --      2.6812                 3.3832                 9.1217

                     76                     77                     78
                      A                      A                      A
 Frequencies --   1517.1024              1519.1503              1521.3512
 Red. masses --      1.2030                 1.0794                 1.0903
 Frc consts  --      1.6313                 1.4677                 1.4868
 IR Inten    --     14.0041                 2.2924                 1.7804

                     79                     80                     81
                      A                      A                      A
 Frequencies --   1528.6374              1532.7680              1537.1007
 Red. masses --      1.1173                 1.0755                 1.0604
 Frc consts  --      1.5382                 1.4887                 1.4761
 IR Inten    --      1.4742                 4.2447                 6.2767

                     82                     83                     84
                      A                      A                      A
 Frequencies --   1540.4244              1636.0143              1662.2285
 Red. masses --      2.1753                 5.6415                 5.6672
 Frc consts  --      3.0412                 8.8965                 9.2257
 IR Inten    --     15.7300                 2.1174                 1.4607

                     85                     86                     87
                      A                      A                      A
 Frequencies --   1713.7980              3010.4128              3013.9280
 Red. masses --      6.7826                 1.0836                 1.0651
 Frc consts  --     11.7372                 5.7859                 5.7003
 IR Inten    --    444.3509                15.9516                59.3508

                     88                     89                     90
                      A                      A                      A
 Frequencies --   3047.0121              3051.5120              3053.7332
 Red. masses --      1.0617                 1.0965                 1.0553
 Frc consts  --      5.8074                 6.0156                 5.7982
 IR Inten    --     15.8060                31.9766                24.9835

                     91                     92                     93
                      A                      A                      A
 Frequencies --   3056.2672              3059.2375              3080.3800
 Red. masses --      1.0381                 1.0408                 1.1032
 Frc consts  --      5.7133                 5.7390                 6.1677
 IR Inten    --     15.1318                26.5936                 9.4311

                     94                     95                     96
                      A                      A                      A
 Frequencies --   3088.8223              3098.2416              3113.2201
 Red. masses --      1.0665                 1.0960                 1.0998
 Frc consts  --      5.9950                 6.1988                 6.2801
 IR Inten    --     18.1317                27.9858                19.3008

                     97                     98                     99
                      A                      A                      A
 Frequencies --   3122.3526              3127.8274              3135.5066
 Red. masses --      1.1019                 1.1021                 1.1022
 Frc consts  --      6.3295                 6.3530                 6.3842
 IR Inten    --     32.0674                40.5310                13.2228

                    100                    101                    102
                      A                      A                      A
 Frequencies --   3142.2170              3170.6104              3177.5377
 Red. masses --      1.1083                 1.0870                 1.0879
 Frc consts  --      6.4474                 6.4385                 6.4719
 IR Inten    --     12.7610                11.7342                 4.3006

                    103                    104                    105
                      A                      A                      A
 Frequencies --   3193.3543              3208.6229              3556.8791
 Red. masses --      1.0910                 1.0973                 1.0741
 Frc consts  --      6.5551                 6.6559                 8.0063
 IR Inten    --     22.7300                25.8924                75.6313

 - Thermochemistry -
 -------------------
 Temperature   298.150 Kelvin.  Pressure   1.00000 Atm.
 Atom     1 has atomic number  6 and mass  12.00000

 Molecular mass:   248.13472 amu.
 Principal axes and moments of inertia in atomic units:
                           1         2         3
     Eigenvalues --  2937.002044988.022376430.30756
           X            0.99939   0.03484   0.00138
           Y           -0.03486   0.99925   0.01672
           Z           -0.00079  -0.01676   0.99986
 This molecule is an asymmetric top.
 Rotational symmetry number  1.
 Warning -- assumption of classical behavior for rotation
           may cause significant error
 Rotational temperatures (Kelvin)      0.02949     0.01736     0.01347
 Rotational constants (GHZ):           0.61448     0.36181     0.28066
 Zero-point vibrational energy     842027.8 (Joules/Mol)
                                  201.24949 (Kcal/Mol)
 Warning -- explicit consideration of  25 degrees of freedom as
           vibrations may cause significant error
 Vibrational temperatures:     41.36    56.34    83.49    92.72   138.22
          (Kelvin)            148.67   194.55   225.39   254.07   274.63
                              348.08   359.40   378.90   410.51   431.49
                              485.65   548.83   575.45   609.05   649.40
                              683.88   737.86   807.47   817.03   833.02
                              899.68   927.33   987.10  1036.50  1057.51
                             1065.74  1097.35  1121.78  1137.79  1183.51
                             1242.45  1275.20  1316.60  1341.22  1356.67
                             1413.47  1417.79  1431.19  1471.47  1472.70
                             1495.58  1535.33  1546.98  1560.52  1592.58
                             1598.94  1648.49  1697.80  1721.24  1737.26
                             1753.64  1778.87  1791.84  1806.29  1832.08
                             1911.04  1914.74  1927.99  1946.86  1956.65
                             1973.38  1987.80  2025.60  2039.34  2084.29
                             2087.11  2140.62  2150.93  2155.88  2171.44
                             2182.77  2185.72  2188.89  2199.37  2205.31
                             2211.55  2216.33  2353.86  2391.58  2465.77
                             4331.31  4336.37  4383.97  4390.45  4393.64
                             4397.29  4401.56  4431.98  4444.13  4457.68
                             4479.23  4492.37  4500.25  4511.29  4520.95
                             4561.80  4571.77  4594.52  4616.49  5117.56

 Zero-point correction=                           0.320711 (Hartree/Particle)
 Thermal correction to Energy=                    0.337645
 Thermal correction to Enthalpy=                  0.338589
 Thermal correction to Gibbs Free Energy=         0.275280
 Sum of electronic and zero-point Energies=          -1052.984342
 Sum of electronic and thermal Energies=             -1052.967408
 Sum of electronic and thermal Enthalpies=           -1052.966464
 Sum of electronic and thermal Free Energies=        -1053.029773

                     E (Thermal)             CV                S
                      KCal/Mol        Cal/Mol-Kelvin    Cal/Mol-Kelvin
 Total                  211.875             64.926            133.245
 Electronic               0.000              0.000              0.000
 Translational            0.889              2.981             42.427
 Rotational               0.889              2.981             32.910
 Vibrational            210.098             58.964             57.908
 Vibration     1          0.593              1.984              5.914
 Vibration     2          0.594              1.981              5.301
 Vibration     3          0.596              1.974              4.523
 Vibration     4          0.597              1.971              4.316
 Vibration     5          0.603              1.952              3.533
 Vibration     6          0.605              1.947              3.390
 Vibration     7          0.613              1.918              2.870
 Vibration     8          0.620              1.895              2.590
 Vibration     9          0.628              1.871              2.364
 Vibration    10          0.634              1.852              2.219
 Vibration    11          0.658              1.776              1.789
 Vibration    12          0.663              1.763              1.732
 Vibration    13          0.670              1.740              1.639
 Vibration    14          0.683              1.701              1.502
 Vibration    15          0.692              1.674              1.417
 Vibration    16          0.718              1.600              1.224
 Vibration    17          0.751              1.510              1.033
 Vibration    18          0.766              1.470              0.963
 Vibration    19          0.785              1.420              0.881
 Vibration    20          0.810              1.358              0.792
 Vibration    21          0.832              1.305              0.723
 Vibration    22          0.868              1.222              0.627
 Vibration    23          0.917              1.115              0.521
 Vibration    24          0.924              1.101              0.508
 Vibration    25          0.936              1.077              0.487

 Optimization completed.
    -- Stationary point found.
 Normal termination of Gaussian 16 at Sun Dec 13 21:08:33 2020.

 ----------------------------------------------------------------------
 # B3LYP/6-311++G(d,p) empiricaldispersion=gd3bj scf=xqc pop=npa geom=c
 heck
 ----------------------------------------------------------------------

 ---------------------------------------
 CID_136933237_JID_7416_Energie_neutraal
 ---------------------------------------
 Structure from the checkpoint file:  "JID_7416.chk"
 Charge =  0 Multiplicity = 1

 SCF Done:  E(RB3LYP) =  -1053.50601683     A.U. after   15 cycles
 Normal termination of Gaussian 16 at Sun Dec 13 21:17:42 2020.

 ----------------------------------------------------------------------
 # B3LYP/6-311++G(d,p) empiricaldispersion=gd3bj scf=xqc pop=npa geom=c
 heck
 ----------------------------------------------------------------------

 -------------------------------------
 CID_136933237_JID_7416_Energie_kation
 -------------------------------------
 Structure from the checkpoint file:  "JID_7416.chk"
 Charge =  1 Multiplicity = 2

 SCF Done:  E(UB3LYP) =  -1053.22183229     A.U. after   27 cycles
 Normal termination of Gaussian 16 at Sun Dec 13 21:40:42 2020.
 Gaussian 16:  ES64L-G16RevA.03 25-Dec-2016

 ----------------------------------------------------------------------
 # B3LYP/6-311++G(d,p) empiricaldispersion=gd3bj scf=xqc pop=npa geom=c
 heck
 ----------------------------------------------------------------------

 ------------------------------------
 CID_136933237_JID_7416_Energie_anion
 ------------------------------------
 Structure from the checkpoint file:  "JID_7416.chk"
 Charge = -1 Multiplicity = 2

                         Standard orientation:
 ---------------------------------------------------------------------
 Center     Atomic      Atomic             Coordinates (Angstroms)
 Number     Number       Type             X           Y           Z
 ---------------------------------------------------------------------
      1          6           0        0.598007    3.252105    0.731823
      2          6           0        0.449345    2.437613   -0.557042
      3          6           0        1.235113    1.120251   -0.591116
      4          6           0        2.765069    1.307179   -0.645621
      5          6           0        3.512969    0.151711    0.030428
      6         16           0        2.697266   -1.477450   -0.216779
      7          6           0        1.117434   -1.069086    0.529031
      8          7           0        0.406480   -2.047648    0.937951
      9          6           0       -0.956887   -1.835600    1.423230
     10          6           0       -1.833587   -0.858247    0.650137
     11          6           0       -2.451476    0.197811    1.332657
     12          6           0       -3.227239    1.145275    0.663801
     13          6           0       -3.395388    1.037010   -0.715048
     14          6           0       -2.797440   -0.021275   -1.400871
     15          6           0       -2.015412   -0.978111   -0.743992
     16          6           0       -1.374468   -2.089744   -1.539869
     17          7           0        0.858217    0.294206    0.573302
     18          1           0        0.243529    2.692937    1.603679
     19          1           0        0.012672    4.175441    0.667623
     20          1           0        1.639456    3.532024    0.923078
     21          1           0       -0.611504    2.207806   -0.720537
     22          1           0        0.771904    3.038777   -1.416763
     23          1           0        0.936185    0.589025   -1.505779
     24          1           0        3.063360    1.392556   -1.696318
     25          1           0        3.059005    2.238867   -0.147535
     26          1           0        3.582549    0.320599    1.107636
     27          1           0        4.528228    0.044841   -0.360688
     28          1           0       -0.927641   -1.519494    2.476680
     29          1           0       -1.438708   -2.821842    1.421593
     30          1           0       -2.311431    0.280011    2.408515
     31          1           0       -3.692819    1.956868    1.215608
     32          1           0       -3.994118    1.764857   -1.255418
     33          1           0       -2.940310   -0.111546   -2.475160
     34          1           0       -1.917960   -2.254028   -2.475813
     35          1           0       -0.333651   -1.855473   -1.790994
     36          1           0       -1.348449   -3.030484   -0.982496
     37          1           0       -0.085664    0.490203    0.887491
 ---------------------------------------------------------------------

 SCF Done:  E(UB3LYP) =  -1053.49393009     A.U. after   33 cycles
 SCF Done:  E(UB3LYP) =  -1053.49393009     a.u. after    1 cycles

 The electronic state is 2-A.
 Alpha  occ. eigenvalues --  -88.75778 -14.23570 -14.19352 -10.16941 -10.11984
 Alpha  occ. eigenvalues --  -10.11279 -10.11247 -10.09732 -10.09500 -10.08693
 Alpha  occ. eigenvalues --  -10.08512 -10.08456 -10.08417 -10.08401 -10.07798
 Alpha  occ. eigenvalues --  -10.07656 -10.06385  -7.84428  -5.80795  -5.80438
 Alpha  occ. eigenvalues --   -5.79831  -0.87703  -0.80119  -0.77244  -0.71617
 Alpha  occ. eigenvalues --   -0.69945  -0.68565  -0.67451  -0.63822  -0.60755
 Alpha  occ. eigenvalues --   -0.58700  -0.57566  -0.53077  -0.51444  -0.49951
 Alpha  occ. eigenvalues --   -0.48364  -0.45666  -0.42307  -0.41472  -0.39850
 Alpha  occ. eigenvalues --   -0.38417  -0.37575  -0.36324  -0.34982  -0.34438
 Alpha  occ. eigenvalues --   -0.34031  -0.33651  -0.32559  -0.32319  -0.31673
 Alpha  occ. eigenvalues --   -0.30307  -0.30146  -0.29036  -0.27860  -0.27427
 Alpha  occ. eigenvalues --   -0.26862  -0.25973  -0.25602  -0.25374  -0.24237
 Alpha  occ. eigenvalues --   -0.23080  -0.22634  -0.16988  -0.16416  -0.15917
 Alpha  occ. eigenvalues --   -0.15280  -0.13273   0.04064
 Alpha virt. eigenvalues --    0.05932   0.06477   0.06791   0.07019   0.07339
 Alpha virt. eigenvalues --    0.07713   0.08257   0.08847   0.09048   0.09578
 Alpha virt. eigenvalues --    0.10117   0.10466   0.10767   0.11340   0.11697

  Beta  occ. eigenvalues --  -88.75777 -14.23549 -14.19353 -10.16938 -10.11980
  Beta  occ. eigenvalues --  -10.11273 -10.11228 -10.09728 -10.09497 -10.08681
  Beta  occ. eigenvalues --  -10.08501 -10.08439 -10.08393 -10.08382 -10.07791
  Beta  occ. eigenvalues --  -10.07639 -10.06354  -7.84426  -5.80792  -5.80437
  Beta  occ. eigenvalues --   -5.79830  -0.87688  -0.80106  -0.77223  -0.71590
  Beta  occ. eigenvalues --   -0.69917  -0.68539  -0.67427  -0.63789  -0.60727
  Beta  occ. eigenvalues --   -0.58669  -0.57533  -0.53024  -0.51410  -0.49912
  Beta  occ. eigenvalues --   -0.48325  -0.45627  -0.42262  -0.41443  -0.39823
  Beta  occ. eigenvalues --   -0.38395  -0.37546  -0.36287  -0.34958  -0.34410
  Beta  occ. eigenvalues --   -0.34008  -0.33618  -0.32529  -0.32290  -0.31652
  Beta  occ. eigenvalues --   -0.30270  -0.30129  -0.29014  -0.27820  -0.27395
  Beta  occ. eigenvalues --   -0.26836  -0.25935  -0.25571  -0.25342  -0.24211
  Beta  occ. eigenvalues --   -0.23056  -0.22608  -0.16966  -0.16395  -0.15905
  Beta  occ. eigenvalues --   -0.15251  -0.13260
  Beta virt. eigenvalues --    0.06195   0.06645   0.06940   0.07040   0.07204
  Beta virt. eigenvalues --    0.07714   0.08289   0.08679   0.09337   0.09355
  Beta virt. eigenvalues --    0.09795   0.10355   0.10787   0.11097   0.11493

 Mulliken charges and spin densities:
               1          2
     1  C    0.995879  -1.612239
     2  C   -1.400686   1.157770
     3  C   -0.298330  -0.021416
     4  C    0.973101  -1.138249
     5  C   -0.259237  -0.482486
     6  S    0.030507   0.033417
     7  C   -0.200668  -0.116774
     8  N    0.137392   0.006687
     9  C   -0.424696  -0.462240
    10  C   -0.247394   0.802886
    11  C   -0.832396   0.495672
    12  C    1.479500  -1.814694
    13  C    1.062804  -1.420950
    14  C   -0.498222   0.273737
    15  C   -0.345174   0.793049
    16  C    0.270525  -0.838332
    17  N    0.189220   0.066593
    18  H   -0.246467   0.369120
    19  H   -0.331851   0.499078
    20  H    0.017667   0.105676
    21  H    0.227848  -0.035345
    22  H   -0.466055   0.641331
    23  H    0.200312  -0.007356
    24  H   -0.202686   0.336232
    25  H   -0.062833   0.210058
    26  H    0.136994   0.090161
    27  H   -0.188526   0.403857
    28  H    0.071482   0.108875
    29  H    0.099883   0.085812
    30  H   -0.288462   0.452246
    31  H   -0.538666   0.726663
    32  H   -0.669153   0.853588
    33  H   -0.370539   0.546545
    34  H    0.010323   0.133407
    35  H    0.152938   0.022637
    36  H    0.158102   0.001369
    37  H    0.657568  -0.266386
 Sum of Mulliken charges =  -1.00000   1.00000

 Dipole moment (field-independent basis, Debye):
    X=              2.1182    Y=             -5.7053    Z=              0.4773  Tot=              6.1045
 Quadrupole moment (field-independent basis, Debye-Ang):
   XX=           -184.5708   YY=           -175.5238   ZZ=           -151.1966
   XY=             13.0804   XZ=              0.7401   YZ=              1.9465

 Summary of Natural Population Analysis:

                                       Natural Population
                Natural  -----------------------------------------------
    Atom  No    Charge         Core      Valence    Rydberg      Total
 -----------------------------------------------------------------------
      C    1   -0.28689      0.99966     2.28173    0.00550     3.28689
      C    2   -0.19510      0.99961     2.18671    0.00878     3.19510
      C    3   -0.00694      0.99957     1.99439    0.01298     3.00694
      C    4   -0.19572      0.99959     2.18631    0.00981     3.19572
      C    5   -0.25082      0.99959     2.23956    0.01167     3.25082
      S    6    0.11482      4.99954     2.86756    0.01808     7.88518
      C    7    0.16792      0.99955     1.81150    0.02103     2.83208
      N    8   -0.28675      0.99962     2.77599    0.01114     3.78675
      C    9   -0.10845      0.99957     2.09639    0.01250     3.10845
      C   10   -0.03605      0.99946     2.02605    0.01054     3.03605
      C   11   -0.10793      0.99951     2.09759    0.01083     3.10793
      C   12   -0.09927      0.99955     2.08854    0.01119     3.09927
      C   13   -0.09790      0.99955     2.08728    0.01106     3.09790
      C   14   -0.09707      0.99951     2.08724    0.01032     3.09707
      C   15   -0.01404      0.99946     2.00513    0.00945     3.01404
      C   16   -0.29647      0.99963     2.29091    0.00593     3.29647
      N   17   -0.34490      0.99964     2.83527    0.00998     3.84490
      H   18    0.09805      0.00000     0.40054    0.00140     0.40195
      H   19    0.10357      0.00000     0.39526    0.00117     0.39643
      H   20    0.09586      0.00000     0.40299    0.00115     0.40414
      H   21    0.10390      0.00000     0.39342    0.00268     0.39610
      H   22    0.10149      0.00000     0.39718    0.00133     0.39851
      H   23    0.09090      0.00000     0.40665    0.00245     0.40910
      H   24    0.10197      0.00000     0.39656    0.00147     0.39803
      H   25    0.10287      0.00000     0.39564    0.00148     0.39713
      H   26    0.10389      0.00000     0.39478    0.00133     0.39611
      H   27    0.10900      0.00000     0.38989    0.00111     0.39100
      H   28    0.09603      0.00000     0.40249    0.00148     0.40397
      H   29    0.09947      0.00000     0.39920    0.00133     0.40053
      H   30    0.10242      0.00000     0.39628    0.00129     0.39758
      H   31    0.10600      0.00000     0.39206    0.00194     0.39400
      H   32    0.10537      0.00000     0.39276    0.00186     0.39463
      H   33    0.10067      0.00000     0.39819    0.00114     0.39933
      H   34    0.10038      0.00000     0.39887    0.00075     0.39962
      H   35    0.11090      0.00000     0.38798    0.00113     0.38910
      H   36    0.10638      0.00000     0.39283    0.00079     0.39362
      H   37    0.20242      0.00000     0.29291    0.00467     0.29758
 =======================================================================
   * Total *    0.00000     20.99262    45.78462    0.22276    67.00000

 Normal termination of Gaussian 16 at Sun Dec 13 22:08:31 2020.
