 Gaussian 16, Revision A.03,

 -----------------------------------------------------------
 # opt freq B3LYP/6-31G(d) empiricaldispersion=gd3bj scf=xqc
 -----------------------------------------------------------

 --------------------------------
 CID_106757044_JID_10279_neutraal
 --------------------------------
 Symbolic Z-matrix:
 Charge =  0 Multiplicity = 1

 SCF Done:  E(RB3LYP) =  -897.804783093     A.U. after   15 cycles
 SCF Done:  E(RB3LYP) =  -897.810098933     A.U. after   13 cycles
 SCF Done:  E(RB3LYP) =  -897.811195337     A.U. after   13 cycles
 SCF Done:  E(RB3LYP) =  -897.812682812     A.U. after   12 cycles
 SCF Done:  E(RB3LYP) =  -897.812277903     A.U. after   13 cycles
 SCF Done:  E(RB3LYP) =  -897.813414635     A.U. after   12 cycles
 SCF Done:  E(RB3LYP) =  -897.813740120     A.U. after   12 cycles
 SCF Done:  E(RB3LYP) =  -897.813816670     A.U. after   12 cycles
 SCF Done:  E(RB3LYP) =  -897.813864117     A.U. after   10 cycles
 SCF Done:  E(RB3LYP) =  -897.813901828     A.U. after   11 cycles
 SCF Done:  E(RB3LYP) =  -897.820796448     A.U. after    9 cycles
 SCF Done:  E(RB3LYP) =  -897.820799032     A.U. after    8 cycles
 SCF Done:  E(RB3LYP) =  -897.820802577     A.U. after    9 cycles
 SCF Done:  E(RB3LYP) =  -897.820803865     A.U. after    8 cycles
 SCF Done:  E(RB3LYP) =  -897.820804428     A.U. after    8 cycles
 SCF Done:  E(RB3LYP) =  -897.820804515     A.U. after    7 cycles
 Optimization completed.
    -- Stationary point found.
 Normal termination of Gaussian 16 at Sun Dec 13 17:24:26 2020.

 --------------------------------------------------------------------
 #N Geom=AllCheck Guess=TCheck SCRF=Check GenChk RB3LYP/6-31G(d) Freq
 --------------------------------------------------------------------

 Structure from the checkpoint file:  "JID_10279.chk"
 --------------------------------
 CID_106757044_JID_10279_neutraal
 --------------------------------
 Charge =  0 Multiplicity = 1

 SCF Done:  E(RB3LYP) =  -897.820804515     A.U. after    1 cycles

  Exact polarizability: 213.515  11.460 190.805  19.781  -4.386 133.009
 Approx polarizability: 316.275  17.483 286.863  47.666  -9.399 220.527

                      1                      2                      3
                      A                      A                      A
 Frequencies --     25.5517                29.9686                44.4943
 Red. masses --      4.5125                 4.6258                 4.4315
 Frc consts  --      0.0017                 0.0024                 0.0052
 IR Inten    --      0.2334                 0.6441                 0.2777

                      4                      5                      6
                      A                      A                      A
 Frequencies --     50.0913                61.6671               105.2625
 Red. masses --      3.6214                 4.3514                 4.5811
 Frc consts  --      0.0054                 0.0097                 0.0299
 IR Inten    --      0.6485                 1.7437                 0.6701

                      7                      8                      9
                      A                      A                      A
 Frequencies --    119.2310               122.8471               144.1217
 Red. masses --      3.5106                 3.5098                 1.3834
 Frc consts  --      0.0294                 0.0312                 0.0169
 IR Inten    --      1.9052                 0.5369                 0.4996

                     10                     11                     12
                      A                      A                      A
 Frequencies --    163.1348               183.4275               199.2687
 Red. masses --      3.1377                 2.6592                 2.3593
 Frc consts  --      0.0492                 0.0527                 0.0552
 IR Inten    --      0.1216                 0.5950                 2.5750

                     13                     14                     15
                      A                      A                      A
 Frequencies --    222.1516               240.1811               247.5618
 Red. masses --      2.2812                 1.6785                 1.6482
 Frc consts  --      0.0663                 0.0570                 0.0595
 IR Inten    --      4.4737                 0.2494                 0.6717

                     16                     17                     18
                      A                      A                      A
 Frequencies --    261.5331               279.3070               313.4428
 Red. masses --      1.7823                 3.8332                 4.2835
 Frc consts  --      0.0718                 0.1762                 0.2480
 IR Inten    --      2.4259                 0.4070                 2.3862

                     19                     20                     21
                      A                      A                      A
 Frequencies --    341.1186               374.8235               398.7767
 Red. masses --      3.6631                 4.5453                 3.1450
 Frc consts  --      0.2511                 0.3762                 0.2947
 IR Inten    --      3.5680                14.0511                 7.8675

                     22                     23                     24
                      A                      A                      A
 Frequencies --    430.3151               443.1874               458.7462
 Red. masses --      3.7831                 4.5384                 3.6776
 Frc consts  --      0.4127                 0.5252                 0.4560
 IR Inten    --      2.6567                 3.6798                 0.9451

                     25                     26                     27
                      A                      A                      A
 Frequencies --    482.5145               518.8894               543.4539
 Red. masses --      2.8177                 1.4902                 3.5039
 Frc consts  --      0.3865                 0.2364                 0.6097
 IR Inten    --     26.2104                47.4102                 2.3266

                     28                     29                     30
                      A                      A                      A
 Frequencies --    571.1702               637.5998               662.5080
 Red. masses --      3.1361                 5.0368                 5.8943
 Frc consts  --      0.6028                 1.2064                 1.5243
 IR Inten    --     12.4169                 8.1300                 6.0516

                     31                     32                     33
                      A                      A                      A
 Frequencies --    685.0185               695.2015               705.3455
 Red. masses --      5.0123                 2.9519                 4.1259
 Frc consts  --      1.3858                 0.8406                 1.2094
 IR Inten    --      2.4583                 2.1866                14.1997

                     34                     35                     36
                      A                      A                      A
 Frequencies --    712.9692               733.7708               763.4643
 Red. masses --      3.9809                 4.4857                 2.0205
 Frc consts  --      1.1923                 1.4230                 0.6939
 IR Inten    --      7.5079                 7.8856                51.0808

                     37                     38                     39
                      A                      A                      A
 Frequencies --    783.7621               787.2188               790.4440
 Red. masses --      1.7481                 1.7914                 1.4700
 Frc consts  --      0.6327                 0.6541                 0.5411
 IR Inten    --     19.3887                 2.5431                18.5018

                     40                     41                     42
                      A                      A                      A
 Frequencies --    846.3876               856.6421               866.9923
 Red. masses --      2.4218                 1.5515                 3.2081
 Frc consts  --      1.0222                 0.6708                 1.4208
 IR Inten    --      3.7699                 3.7419                 0.7078

                     43                     44                     45
                      A                      A                      A
 Frequencies --    872.8981               895.6884               953.6387
 Red. masses --      1.3025                 2.7769                 5.1369
 Frc consts  --      0.5847                 1.3126                 2.7525
 IR Inten    --      2.1472                 7.3531                10.8434

                     46                     47                     48
                      A                      A                      A
 Frequencies --    964.7936               970.3421               985.5993
 Red. masses --      1.9775                 1.3556                 1.2713
 Frc consts  --      1.0845                 0.7520                 0.7276
 IR Inten    --      3.2805                 1.0274                 0.1797

                     49                     50                     51
                      A                      A                      A
 Frequencies --   1022.2416              1030.6849              1051.8658
 Red. masses --      1.9611                 3.6709                 1.7786
 Frc consts  --      1.2074                 2.2976                 1.1594
 IR Inten    --     13.2357                11.1575                 1.9738

                     52                     53                     54
                      A                      A                      A
 Frequencies --   1074.9326              1081.0371              1107.6285
 Red. masses --      1.4153                 2.9591                 2.6102
 Frc consts  --      0.9635                 2.0375                 1.8868
 IR Inten    --      3.6700                73.5702                48.6239

                     55                     56                     57
                      A                      A                      A
 Frequencies --   1116.6228              1132.0158              1139.6328
 Red. masses --      2.5432                 1.9952                 2.3508
 Frc consts  --      1.8683                 1.5064                 1.7988
 IR Inten    --     17.6540                44.5333               166.4704

                     58                     59                     60
                      A                      A                      A
 Frequencies --   1156.6755              1189.6557              1206.1293
 Red. masses --      1.3047                 1.7445                 1.4506
 Frc consts  --      1.0285                 1.4547                 1.2433
 IR Inten    --      6.7654                32.8618                23.4233

                     61                     62                     63
                      A                      A                      A
 Frequencies --   1208.7841              1214.4307              1246.8587
 Red. masses --      1.6729                 1.6583                 1.9984
 Frc consts  --      1.4402                 1.4410                 1.8305
 IR Inten    --     24.5633                 8.8668                36.7711

                     64                     65                     66
                      A                      A                      A
 Frequencies --   1264.3437              1296.3108              1314.4783
 Red. masses --      4.0321                 1.8613                 3.3143
 Frc consts  --      3.7976                 1.8429                 3.3740
 IR Inten    --    286.2465                17.4740                 7.0403

                     67                     68                     69
                      A                      A                      A
 Frequencies --   1343.0830              1344.6279              1348.1087
 Red. masses --      1.1326                 1.7441                 2.4171
 Frc consts  --      1.2037                 1.8579                 2.5882
 IR Inten    --      5.2351                10.5400                 5.2837

                     70                     71                     72
                      A                      A                      A
 Frequencies --   1365.5187              1384.8839              1396.6504
 Red. masses --      2.9962                 1.9449                 2.3388
 Frc consts  --      3.2916                 2.1977                 2.6879
 IR Inten    --    146.7382                46.4553                63.2454

                     73                     74                     75
                      A                      A                      A
 Frequencies --   1417.1805              1432.3802              1442.6410
 Red. masses --      1.2845                 1.2397                 1.3100
 Frc consts  --      1.5199                 1.4986                 1.6064
 IR Inten    --      6.4462                 6.5100                19.7047

                     76                     77                     78
                      A                      A                      A
 Frequencies --   1446.1545              1480.0848              1494.5649
 Red. masses --      2.1109                 1.6468                 2.1301
 Frc consts  --      2.6010                 2.1255                 2.8034
 IR Inten    --     13.9425                 7.1806                14.7979

                     79                     80                     81
                      A                      A                      A
 Frequencies --   1513.8922              1514.5553              1514.9624
 Red. masses --      1.2300                 1.4632                 1.1348
 Frc consts  --      1.6610                 1.9776                 1.5345
 IR Inten    --     38.4083                 3.4507                16.5666

                     82                     83                     84
                      A                      A                      A
 Frequencies --   1517.0517              1520.6794              1524.9984
 Red. masses --      1.1387                 1.4402                 1.1865
 Frc consts  --      1.5440                 1.9623                 1.6258
 IR Inten    --      0.1168                63.8859                16.5546

                     85                     86                     87
                      A                      A                      A
 Frequencies --   1528.1746              1537.3689              1538.6236
 Red. masses --      1.1984                 1.1960                 1.2767
 Frc consts  --      1.6490                 1.6655                 1.7808
 IR Inten    --     36.9581                15.4768                 8.5328

                     88                     89                     90
                      A                      A                      A
 Frequencies --   1574.3828              1587.0070              1641.9736
 Red. masses --      2.2550                 4.5424                 2.9283
 Frc consts  --      3.2931                 6.7405                 4.6515
 IR Inten    --    112.3804                 3.3558               164.9383

                     91                     92                     93
                      A                      A                      A
 Frequencies --   1671.4769              1784.9348              3026.8131
 Red. masses --      5.7198                11.0158                 1.0840
 Frc consts  --      9.4153                20.6780                 5.8513
 IR Inten    --    121.8940               320.4300                26.0088

                     94                     95                     96
                      A                      A                      A
 Frequencies --   3056.5302              3061.7186              3077.6346
 Red. masses --      1.0369                 1.0366                 1.0338
 Frc consts  --      5.7073                 5.7254                 5.7692
 IR Inten    --     15.6415                18.5597                34.2623

                     97                     98                     99
                      A                      A                      A
 Frequencies --   3095.7489              3123.5356              3125.8183
 Red. masses --      1.0606                 1.1024                 1.1027
 Frc consts  --      5.9884                 6.3368                 6.3478
 IR Inten    --     28.5190                30.5222                25.1938

                    100                    101                    102
                      A                      A                      A
 Frequencies --   3143.2738              3146.6488              3152.4163
 Red. masses --      1.1055                 1.1016                 1.1016
 Frc consts  --      6.4356                 6.4265                 6.4501
 IR Inten    --     12.7376                 9.8518                18.6109

                    103                    104                    105
                      A                      A                      A
 Frequencies --   3163.2333              3186.1761              3190.2105
 Red. masses --      1.1070                 1.1028                 1.0876
 Frc consts  --      6.5261                 6.5962                 6.5216
 IR Inten    --     19.3754                 5.1466                 8.8514

                    106                    107                    108
                      A                      A                      A
 Frequencies --   3212.0118              3231.3301              3242.2485
 Red. masses --      1.0913                 1.0933                 1.0912
 Frc consts  --      6.6333                 6.7262                 6.7587
 IR Inten    --     16.0257                 8.3200                 8.4085

                    109                    110                    111
                      A                      A                      A
 Frequencies --   3252.8855              3269.4006              3615.3541
 Red. masses --      1.0914                 1.1021                 1.0764
 Frc consts  --      6.8040                 6.9405                 8.2895
 IR Inten    --      8.7326                 6.4004               129.1933

 - Thermochemistry -
 -------------------
 Temperature   298.150 Kelvin.  Pressure   1.00000 Atm.
 Atom     1 has atomic number  6 and mass  12.00000

 Molecular mass:   273.14773 amu.
 Principal axes and moments of inertia in atomic units:
                           1         2         3
     Eigenvalues --  3729.022487002.514318878.91985
           X            0.99959   0.02803   0.00564
           Y           -0.02795   0.99952  -0.01349
           Z           -0.00601   0.01333   0.99989
 This molecule is an asymmetric top.
 Rotational symmetry number  1.
 Warning -- assumption of classical behavior for rotation
           may cause significant error
 Rotational temperatures (Kelvin)      0.02323     0.01237     0.00976
 Rotational constants (GHZ):           0.48397     0.25773     0.20326
 Zero-point vibrational energy     859156.8 (Joules/Mol)
                                  205.34341 (Kcal/Mol)
 Warning -- explicit consideration of  28 degrees of freedom as
           vibrations may cause significant error
 Vibrational temperatures:     36.76    43.12    64.02    72.07    88.73
          (Kelvin)            151.45   171.55   176.75   207.36   234.71
                              263.91   286.70   319.63   345.57   356.19
                              376.29   401.86   450.97   490.79   539.29
                              573.75   619.13   637.65   660.03   694.23
                              746.57   781.91   821.79   917.36   953.20
                              985.59  1000.24  1014.83  1025.80  1055.73
                             1098.45  1127.66  1132.63  1137.27  1217.76
                             1232.52  1247.41  1255.91  1288.70  1372.07
                             1388.12  1396.11  1418.06  1470.78  1482.93
                             1513.40  1546.59  1555.37  1593.63  1606.57
                             1628.72  1639.68  1664.20  1711.65  1735.35
                             1739.17  1747.29  1793.95  1819.11  1865.10
                             1891.24  1932.40  1934.62  1939.63  1964.68
                             1992.54  2009.47  2039.01  2060.88  2075.64
                             2080.69  2129.51  2150.35  2178.15  2179.11
                             2179.69  2182.70  2187.92  2194.13  2198.70
                             2211.93  2213.74  2265.19  2283.35  2362.43
                             2404.88  2568.12  4354.91  4397.67  4405.13
                             4428.03  4454.09  4494.07  4497.36  4522.47
                             4527.33  4535.62  4551.19  4584.20  4590.00
                             4621.37  4649.16  4664.87  4680.18  4703.94
                             5201.69

 Zero-point correction=                           0.327236 (Hartree/Particle)
 Thermal correction to Energy=                    0.346489
 Thermal correction to Enthalpy=                  0.347434
 Thermal correction to Gibbs Free Energy=         0.278212
 Sum of electronic and zero-point Energies=           -897.493569
 Sum of electronic and thermal Energies=              -897.474315
 Sum of electronic and thermal Enthalpies=            -897.473371
 Sum of electronic and thermal Free Energies=         -897.542592

                     E (Thermal)             CV                S
                      KCal/Mol        Cal/Mol-Kelvin    Cal/Mol-Kelvin
 Total                  217.425             72.573            145.689
 Electronic               0.000              0.000              0.000
 Translational            0.889              2.981             42.713
 Rotational               0.889              2.981             33.805
 Vibrational            215.648             66.611             69.171
 Vibration     1          0.593              1.985              6.148
 Vibration     2          0.594              1.984              5.831
 Vibration     3          0.595              1.980              5.048
 Vibration     4          0.595              1.978              4.814
 Vibration     5          0.597              1.973              4.403
 Vibration     6          0.605              1.945              3.354
 Vibration     7          0.609              1.933              3.113
 Vibration     8          0.610              1.930              3.055
 Vibration     9          0.616              1.909              2.748
 Vibration    10          0.623              1.888              2.513
 Vibration    11          0.631              1.862              2.293
 Vibration    12          0.637              1.841              2.140
 Vibration    13          0.648              1.807              1.941
 Vibration    14          0.657              1.779              1.802
 Vibration    15          0.661              1.767              1.748
 Vibration    16          0.669              1.743              1.652
 Vibration    17          0.680              1.712              1.538
 Vibration    18          0.701              1.648              1.344
 Vibration    19          0.721              1.593              1.207
 Vibration    20          0.746              1.524              1.060
 Vibration    21          0.765              1.473              0.967
 Vibration    22          0.792              1.404              0.858
 Vibration    23          0.803              1.376              0.817
 Vibration    24          0.817              1.342              0.770
 Vibration    25          0.839              1.289              0.703
 Vibration    26          0.874              1.208              0.613
 Vibration    27          0.899              1.154              0.558
 Vibration    28          0.927              1.094              0.502

 Optimization completed.
    -- Stationary point found.
 Normal termination of Gaussian 16 at Sun Dec 13 17:45:54 2020.

 ----------------------------------------------------------------------
 # B3LYP/6-311++G(d,p) empiricaldispersion=gd3bj scf=xqc pop=npa geom=c
 heck
 ----------------------------------------------------------------------

 ----------------------------------------
 CID_106757044_JID_10279_Energie_neutraal
 ----------------------------------------
 Structure from the checkpoint file:  "JID_10279.chk"
 Charge =  0 Multiplicity = 1

 SCF Done:  E(RB3LYP) =  -898.065918964     A.U. after   16 cycles
 Normal termination of Gaussian 16 at Sun Dec 13 17:54:40 2020.

 ----------------------------------------------------------------------
 # B3LYP/6-311++G(d,p) empiricaldispersion=gd3bj scf=xqc pop=npa geom=c
 heck
 ----------------------------------------------------------------------

 --------------------------------------
 CID_106757044_JID_10279_Energie_kation
 --------------------------------------
 Structure from the checkpoint file:  "JID_10279.chk"
 Charge =  1 Multiplicity = 2

 SCF Done:  E(UB3LYP) =  -897.789187025     A.U. after   28 cycles
 Normal termination of Gaussian 16 at Sun Dec 13 18:15:16 2020.
 Gaussian 16:  ES64L-G16RevA.03 25-Dec-2016

 ----------------------------------------------------------------------
 # B3LYP/6-311++G(d,p) empiricaldispersion=gd3bj scf=xqc pop=npa geom=c
 heck
 ----------------------------------------------------------------------

 -------------------------------------
 CID_106757044_JID_10279_Energie_anion
 -------------------------------------
 Structure from the checkpoint file:  "JID_10279.chk"
 Charge = -1 Multiplicity = 2

                         Standard orientation:
 ---------------------------------------------------------------------
 Center     Atomic      Atomic             Coordinates (Angstroms)
 Number     Number       Type             X           Y           Z
 ---------------------------------------------------------------------
      1          6           0       -4.144814   -2.255441    0.535165
      2          6           0       -3.170418   -2.025684   -0.607885
      3          8           0       -2.166303   -1.045924   -0.251020
      4          6           0       -2.526946    0.270749   -0.384906
      5          8           0       -3.618610    0.583708   -0.820546
      6          6           0       -1.471984    1.231555    0.009993
      7          6           0       -1.766595    2.576687   -0.280987
      8          6           0       -0.873928    3.599456   -0.011471
      9          6           0        0.357843    3.276351    0.569279
     10          6           0        0.676982    1.965291    0.884299
     11          6           0       -0.226239    0.907774    0.630329
     12          7           0        0.095548   -0.376004    0.996204
     13          6           0        1.425967   -0.824280    1.374399
     14          6           0        1.342392   -2.312950    1.741776
     15          6           0        2.487843   -0.569447    0.329999
     16          6           0        3.800887   -0.161376    0.504799
     17          6           0        4.352117   -0.139319   -0.792674
     18          7           0        3.458719   -0.500998   -1.711636
     19          7           0        2.327507   -0.769084   -1.011627
     20          6           0        1.132402   -1.130455   -1.754271
     21          1           0       -3.614010   -2.555537    1.444727
     22          1           0       -4.850550   -3.050441    0.269308
     23          1           0       -4.711801   -1.343813    0.739147
     24          1           0       -2.595622   -2.926416   -0.837281
     25          1           0       -3.684780   -1.682463   -1.507323
     26          1           0       -2.727374    2.781236   -0.739873
     27          1           0       -1.122128    4.627373   -0.254250
     28          1           0        1.082922    4.058102    0.779399
     29          1           0        1.642118    1.744729    1.321299
     30          1           0       -0.561538   -1.085992    0.708465
     31          1           0        1.743692   -0.278618    2.273216
     32          1           0        1.050579   -2.915061    0.873507
     33          1           0        2.316662   -2.670186    2.083670
     34          1           0        0.606180   -2.467789    2.537563
     35          1           0        4.280215    0.081608    1.442964
     36          1           0        5.355771    0.124887   -1.098694
     37          1           0        0.405750   -0.313744   -1.757019
     38          1           0        1.454650   -1.339408   -2.774079
     39          1           0        0.663092   -2.021593   -1.329870
 ---------------------------------------------------------------------

 SCF Done:  E(UB3LYP) =  -898.067260773     A.U. after   32 cycles

 The electronic state is 2-A.
 Alpha  occ. eigenvalues --  -19.04175 -18.96394 -14.29304 -14.23173 -14.20697
 Alpha  occ. eigenvalues --  -10.15269 -10.12848 -10.12050 -10.11359 -10.11018
 Alpha  occ. eigenvalues --  -10.09716 -10.09523 -10.07911 -10.06963 -10.06308
 Alpha  occ. eigenvalues --  -10.04723 -10.04192 -10.04073 -10.03997 -10.03866
 Alpha  occ. eigenvalues --   -0.97522  -0.95257  -0.88334  -0.83420  -0.74573
 Alpha  occ. eigenvalues --   -0.72806  -0.70258  -0.66806  -0.65710  -0.62899
 Alpha  occ. eigenvalues --   -0.60464  -0.60247  -0.55346  -0.55030  -0.51034
 Alpha  occ. eigenvalues --   -0.49951  -0.48109  -0.46119  -0.44698  -0.42563
 Alpha  occ. eigenvalues --   -0.41442  -0.39098  -0.38138  -0.38105  -0.36120
 Alpha  occ. eigenvalues --   -0.35834  -0.35196  -0.34058  -0.33552  -0.33327
 Alpha  occ. eigenvalues --   -0.32473  -0.31548  -0.30662  -0.30355  -0.30009
 Alpha  occ. eigenvalues --   -0.29428  -0.29173  -0.28823  -0.27874  -0.27346
 Alpha  occ. eigenvalues --   -0.26897  -0.24684  -0.24123  -0.23144  -0.21653
 Alpha  occ. eigenvalues --   -0.20147  -0.19250  -0.18379  -0.15873  -0.15111
 Alpha  occ. eigenvalues --   -0.14900  -0.13245  -0.08940   0.04067
 Alpha virt. eigenvalues --    0.06037   0.06734   0.07793   0.08081   0.08731
 Alpha virt. eigenvalues --    0.09152   0.09461   0.09913   0.10296   0.10792
 Alpha virt. eigenvalues --    0.11015   0.11631   0.11885   0.12238   0.12727

  Beta  occ. eigenvalues --  -19.04119 -18.96185 -14.29292 -14.23165 -14.20671
  Beta  occ. eigenvalues --  -10.15032 -10.12841 -10.12044 -10.11359 -10.11011
  Beta  occ. eigenvalues --  -10.09630 -10.09525 -10.07888 -10.06954 -10.06281
  Beta  occ. eigenvalues --  -10.04667 -10.04093 -10.04083 -10.03904 -10.03679
  Beta  occ. eigenvalues --   -0.97291  -0.95240  -0.88009  -0.83333  -0.74545
  Beta  occ. eigenvalues --   -0.72633  -0.70164  -0.66679  -0.65644  -0.62562
  Beta  occ. eigenvalues --   -0.60449  -0.60093  -0.55131  -0.54963  -0.51019
  Beta  occ. eigenvalues --   -0.49634  -0.47989  -0.46064  -0.44535  -0.42488
  Beta  occ. eigenvalues --   -0.41360  -0.38973  -0.38081  -0.38023  -0.35914
  Beta  occ. eigenvalues --   -0.35776  -0.35053  -0.33939  -0.33337  -0.33307
  Beta  occ. eigenvalues --   -0.32337  -0.31465  -0.30549  -0.30294  -0.29810
  Beta  occ. eigenvalues --   -0.29369  -0.29082  -0.28725  -0.27520  -0.27190
  Beta  occ. eigenvalues --   -0.26752  -0.24166  -0.24032  -0.23028  -0.21501
  Beta  occ. eigenvalues --   -0.20086  -0.18752  -0.17747  -0.15829  -0.14991
  Beta  occ. eigenvalues --   -0.14741  -0.12145  -0.08518
  Beta virt. eigenvalues --    0.06316   0.07026   0.07937   0.08172   0.08666
  Beta virt. eigenvalues --    0.08858   0.09278   0.09536   0.10022   0.10496
  Beta virt. eigenvalues --    0.10762   0.11023   0.11631   0.12013   0.12524

 Mulliken charges and spin densities:
               1          2
     1  C    0.297799  -0.684912
     2  C   -0.314771   0.182714
     3  O   -0.097699   0.002114
     4  C   -0.721510   0.241307
     5  O   -0.327265   0.077196
     6  C    0.720516  -0.083986
     7  C   -0.241251   0.194934
     8  C   -0.560039  -0.127637
     9  C   -0.262856   0.147697
    10  C   -0.045795  -0.077142
    11  C   -0.171590   0.266440
    12  N    0.081320  -0.027672
    13  C   -1.299885   0.530084
    14  C   -0.049486  -0.623507
    15  C    0.478043  -0.371896
    16  C    0.504477  -0.187864
    17  C   -0.283111  -0.080377
    18  N   -0.088731  -0.007048
    19  N    0.156539   0.023632
    20  C   -0.383845   0.005209
    21  H   -0.018260   0.153922
    22  H   -0.196702   0.331041
    23  H    0.061405   0.111028
    24  H   -0.269401   0.396237
    25  H    0.179690  -0.007906
    26  H    0.184682  -0.004072
    27  H    0.108163   0.004055
    28  H    0.115811  -0.003327
    29  H    0.064576   0.017355
    30  H    0.931739  -0.470257
    31  H   -0.017524   0.212053
    32  H   -0.074634   0.234535
    33  H   -0.019014   0.181121
    34  H   -0.172196   0.321289
    35  H    0.046906   0.101983
    36  H    0.126750   0.013557
    37  H    0.229676  -0.003356
    38  H    0.141032   0.025698
    39  H    0.186442  -0.014242
 Sum of Mulliken charges =  -1.00000   1.00000

 Dipole moment (field-independent basis, Debye):
    X=              4.2739    Y=             -0.4850    Z=             -0.0147  Tot=              4.3013
 Quadrupole moment (field-independent basis, Debye-Ang):
   XX=           -178.3795   YY=           -161.3934   ZZ=           -144.3705
   XY=              0.3846   XZ=              4.2340   YZ=              4.7708

 Summary of Natural Population Analysis:

                                       Natural Population
                Natural  -----------------------------------------------
    Atom  No    Charge         Core      Valence    Rydberg      Total
 -----------------------------------------------------------------------
      C    1   -0.30006      0.99966     2.29533    0.00507     3.30006
      C    2   -0.01563      0.99958     2.00366    0.01239     3.01563
      O    3   -0.30184      0.99986     3.29293    0.00905     4.30184
      C    4    0.42971      0.99962     1.54729    0.02337     2.57029
      O    5   -0.30629      0.99987     3.30172    0.00470     4.30629
      C    6   -0.10477      0.99944     2.09403    0.01131     3.10477
      C    7   -0.03167      0.99955     2.02407    0.00805     3.03167
      C    8   -0.15276      0.99957     2.14370    0.00950     3.15276
      C    9   -0.03392      0.99958     2.02566    0.00868     3.03392
      C   10   -0.14680      0.99954     2.13940    0.00786     3.14680
      C   11    0.12386      0.99950     1.86556    0.01109     2.87614
      N   12   -0.31933      0.99965     2.80977    0.00991     3.81933
      C   13   -0.02300      0.99957     2.01126    0.01217     3.02300
      C   14   -0.28009      0.99964     2.27502    0.00543     3.28009
      C   15    0.08854      0.99950     1.89760    0.01436     2.91146
      C   16   -0.16465      0.99949     2.15760    0.00756     3.16465
      C   17   -0.01928      0.99965     2.00433    0.01531     3.01928
      N   18   -0.15570      0.99974     2.64515    0.01081     3.65570
      N   19   -0.10743      0.99961     2.59513    0.01269     3.60743
      C   20   -0.17617      0.99964     2.16868    0.00784     3.17617
      H   21    0.09888      0.00000     0.40002    0.00110     0.40112
      H   22    0.09796      0.00000     0.40100    0.00104     0.40204
      H   23    0.10833      0.00000     0.39075    0.00093     0.39167
      H   24    0.08562      0.00000     0.41299    0.00138     0.41438
      H   25    0.09548      0.00000     0.40334    0.00118     0.40452
      H   26    0.10596      0.00000     0.39309    0.00095     0.39404
      H   27    0.09323      0.00000     0.40579    0.00098     0.40677
      H   28    0.08888      0.00000     0.41023    0.00088     0.41112
      H   29    0.09804      0.00000     0.40021    0.00175     0.40196
      H   30    0.20518      0.00000     0.29160    0.00322     0.29482
      H   31    0.09939      0.00000     0.39842    0.00219     0.40061
      H   32    0.09777      0.00000     0.40098    0.00125     0.40223
      H   33    0.10287      0.00000     0.39629    0.00084     0.39713
      H   34    0.10466      0.00000     0.39425    0.00109     0.39534
      H   35    0.10654      0.00000     0.39267    0.00079     0.39346
      H   36    0.09458      0.00000     0.40463    0.00079     0.40542
      H   37    0.11036      0.00000     0.38868    0.00096     0.38964
      H   38    0.10561      0.00000     0.39335    0.00105     0.39439
      H   39    0.09795      0.00000     0.40088    0.00117     0.40205
 =======================================================================
   * Total *   -0.00000     19.99227    52.77707    0.23067    73.00000

 Normal termination of Gaussian 16 at Sun Dec 13 18:39:32 2020.
