 Gaussian 16, Revision A.03,

 -----------------------------------------------------------
 # opt freq B3LYP/6-31G(d) empiricaldispersion=gd3bj scf=xqc
 -----------------------------------------------------------

 -------------------------------
 CID_143599528_JID_2388_neutraal
 -------------------------------
 Symbolic Z-matrix:
 Charge =  0 Multiplicity = 1

 SCF Done:  E(RB3LYP) =  -465.561485071     A.U. after   20 cycles
 SCF Done:  E(RB3LYP) =  -465.590922058     A.U. after   15 cycles
 SCF Done:  E(RB3LYP) =  -465.603563605     A.U. after   14 cycles
 SCF Done:  E(RB3LYP) =  -465.609877540     A.U. after   14 cycles
 SCF Done:  E(RB3LYP) =  -465.612917330     A.U. after   14 cycles
 SCF Done:  E(RB3LYP) =  -465.614322226     A.U. after   13 cycles
 SCF Done:  E(RB3LYP) =  -465.615406639     A.U. after   13 cycles
 SCF Done:  E(RB3LYP) =  -465.616017893     A.U. after   13 cycles
 SCF Done:  E(RB3LYP) =  -465.616552147     A.U. after   13 cycles
 SCF Done:  E(RB3LYP) =  -465.617409277     A.U. after   13 cycles
 SCF Done:  E(RB3LYP) =  -465.621343028     A.U. after   10 cycles
 SCF Done:  E(RB3LYP) =  -465.621340997     A.U. after    9 cycles
 SCF Done:  E(RB3LYP) =  -465.621343545     A.U. after    9 cycles
 SCF Done:  E(RB3LYP) =  -465.621343176     A.U. after    8 cycles
 SCF Done:  E(RB3LYP) =  -465.621343592     A.U. after    8 cycles
 Optimization completed.
    -- Stationary point found.
 Normal termination of Gaussian 16 at Wed Dec  9 17:28:26 2020.

 --------------------------------------------------------------------
 #N Geom=AllCheck Guess=TCheck SCRF=Check GenChk RB3LYP/6-31G(d) Freq
 --------------------------------------------------------------------

 Structure from the checkpoint file:  "JID_2388.chk"
 -------------------------------
 CID_143599528_JID_2388_neutraal
 -------------------------------
 Charge =  0 Multiplicity = 1

 SCF Done:  E(RB3LYP) =  -465.621343592     A.U. after    1 cycles

  Exact polarizability: 151.889   8.087 114.580   6.673  -6.311  98.136
 Approx polarizability: 233.309  21.498 198.237  20.080 -20.541 159.737

                      1                      2                      3
                      A                      A                      A
 Frequencies --     68.9259               101.4413               155.5752
 Red. masses --      2.4914                 2.9952                 2.9329
 Frc consts  --      0.0070                 0.0182                 0.0418
 IR Inten    --      0.0944                 0.1446                 0.6379

                      4                      5                      6
                      A                      A                      A
 Frequencies --    258.0966               283.1567               293.6786
 Red. masses --      3.0613                 1.6711                 2.7209
 Frc consts  --      0.1201                 0.0789                 0.1383
 IR Inten    --      0.6788                 0.6555                 3.4303

                      7                      8                      9
                      A                      A                      A
 Frequencies --    327.6949               378.5368               437.4883
 Red. masses --      4.4761                 2.5834                 4.3420
 Frc consts  --      0.2832                 0.2181                 0.4896
 IR Inten    --      3.4349                 3.5237                 6.2681

                     10                     11                     12
                      A                      A                      A
 Frequencies --    459.8941               488.4882               503.4736
 Red. masses --      4.1658                 3.1091                 2.8956
 Frc consts  --      0.5191                 0.4371                 0.4325
 IR Inten    --      2.4376                 1.2795                 3.0436

                     13                     14                     15
                      A                      A                      A
 Frequencies --    569.1424               617.3095               637.2846
 Red. masses --      2.9292                 2.8333                 3.1987
 Frc consts  --      0.5590                 0.6361                 0.7654
 IR Inten    --      7.9807                 7.2452                 1.8456

                     16                     17                     18
                      A                      A                      A
 Frequencies --    680.3032               756.0396               780.7647
 Red. masses --      3.4428                 1.5548                 2.9135
 Frc consts  --      0.9388                 0.5236                 1.0464
 IR Inten    --      7.6910                50.9533                11.4263

                     19                     20                     21
                      A                      A                      A
 Frequencies --    811.5541               831.0810               859.9892
 Red. masses --      2.1668                 1.8232                 2.7419
 Frc consts  --      0.8408                 0.7419                 1.1948
 IR Inten    --      5.0353                 0.8617                 1.7275

                     22                     23                     24
                      A                      A                      A
 Frequencies --    880.9791               906.6294               918.7639
 Red. masses --      2.4132                 1.5248                 2.0868
 Frc consts  --      1.1035                 0.7385                 1.0378
 IR Inten    --      8.6891                 7.8360                 6.2023

                     25                     26                     27
                      A                      A                      A
 Frequencies --    944.5235               957.2231               959.6514
 Red. masses --      1.8674                 2.1998                 1.9748
 Frc consts  --      0.9816                 1.1876                 1.0715
 IR Inten    --     33.5778                 0.4856                 0.8116

                     28                     29                     30
                      A                      A                      A
 Frequencies --    971.4296               979.6658              1036.4166
 Red. masses --      1.5495                 1.7524                 1.4866
 Frc consts  --      0.8615                 0.9909                 0.9408
 IR Inten    --      3.3841                 6.0506                 7.4805

                     31                     32                     33
                      A                      A                      A
 Frequencies --   1042.1764              1063.1781              1071.9457
 Red. masses --      1.5637                 1.8226                 1.7270
 Frc consts  --      1.0007                 1.2138                 1.1692
 IR Inten    --      6.7447                 3.3344                 1.9172

                     34                     35                     36
                      A                      A                      A
 Frequencies --   1087.8293              1104.2210              1130.7591
 Red. masses --      1.6419                 1.5822                 2.0202
 Frc consts  --      1.1448                 1.1367                 1.5219
 IR Inten    --      1.0954                 9.0061                 0.3423

                     37                     38                     39
                      A                      A                      A
 Frequencies --   1151.5801              1179.5815              1186.4371
 Red. masses --      1.9199                 1.5361                 1.6876
 Frc consts  --      1.5001                 1.2593                 1.3996
 IR Inten    --      3.9575                 1.2556                 0.4627

                     40                     41                     42
                      A                      A                      A
 Frequencies --   1263.6622              1275.1008              1281.5030
 Red. masses --      1.2610                 1.2516                 1.3344
 Frc consts  --      1.1864                 1.1990                 1.2911
 IR Inten    --      4.3617                 1.3148                 1.2367

                     43                     44                     45
                      A                      A                      A
 Frequencies --   1291.8254              1335.3542              1356.9210
 Red. masses --      1.5073                 1.5721                 1.6486
 Frc consts  --      1.4821                 1.6517                 1.7885
 IR Inten    --      6.3334                 0.9191                 4.0145

                     46                     47                     48
                      A                      A                      A
 Frequencies --   1364.2044              1378.3539              1392.9004
 Red. masses --      1.4814                 1.4339                 1.4294
 Frc consts  --      1.6244                 1.6050                 1.6340
 IR Inten    --      5.4783                 4.6098                 4.5280

                     49                     50                     51
                      A                      A                      A
 Frequencies --   1424.3751              1459.1930              1496.6492
 Red. masses --      1.8865                 1.5675                 1.1395
 Frc consts  --      2.2551                 1.9665                 1.5038
 IR Inten    --     12.8100                 2.0449                 3.1575

                     52                     53                     54
                      A                      A                      A
 Frequencies --   1498.4272              1508.0465              1521.4757
 Red. masses --      1.1500                 1.0857                 1.0910
 Frc consts  --      1.5213                 1.4547                 1.4881
 IR Inten    --      0.3518                 5.2331                 3.7461

                     55                     56                     57
                      A                      A                      A
 Frequencies --   1529.3892              1549.6028              1632.6005
 Red. masses --      1.1050                 4.4443                 4.3046
 Frc consts  --      1.5228                 6.2878                 6.7600
 IR Inten    --      0.4879                 6.8170                 1.8016

                     58                     59                     60
                      A                      A                      A
 Frequencies --   1686.5064              3016.5760              3026.9328
 Red. masses --     10.1270                 1.0644                 1.0636
 Frc consts  --     16.9710                 5.7068                 5.7415
 IR Inten    --      0.4544                24.4310                29.2907

                     61                     62                     63
                      A                      A                      A
 Frequencies --   3039.7951              3044.5825              3056.0134
 Red. masses --      1.0696                 1.0660                 1.0909
 Frc consts  --      5.8234                 5.8221                 6.0026
 IR Inten    --     19.7596                28.7051                29.4125

                     64                     65                     66
                      A                      A                      A
 Frequencies --   3068.1560              3091.2239              3094.6437
 Red. masses --      1.0983                 1.0991                 1.1024
 Frc consts  --      6.0914                 6.1882                 6.2201
 IR Inten    --     13.2642                68.7703                61.8067

                     67                     68                     69
                      A                      A                      A
 Frequencies --   3098.4356              3129.1192              3142.1399
 Red. masses --      1.0520                 1.0848                 1.0874
 Frc consts  --      5.9506                 6.2581                 6.3255
 IR Inten    --     27.8006                20.2564                14.8254

                     70                     71                     72
                      A                      A                      A
 Frequencies --   3149.6436              3168.6063              3176.0578
 Red. masses --      1.0886                 1.0930                 1.1146
 Frc consts  --      6.3627                 6.4654                 6.6243
 IR Inten    --     60.1877                49.8293                14.6040

 - Thermochemistry -
 -------------------
 Temperature   298.150 Kelvin.  Pressure   1.00000 Atm.
 Atom     1 has atomic number  6 and mass  12.00000

 Molecular mass:   158.10955 amu.
 Principal axes and moments of inertia in atomic units:
                           1         2         3
     Eigenvalues --   973.688262346.773252576.74856
           X            1.00000  -0.00032  -0.00104
           Y            0.00035   0.99964   0.02687
           Z            0.00103  -0.02687   0.99964
 This molecule is an asymmetric top.
 Rotational symmetry number  1.
 Warning -- assumption of classical behavior for rotation
           may cause significant error
 Rotational temperatures (Kelvin)      0.08895     0.03691     0.03361
 Rotational constants (GHZ):           1.85351     0.76903     0.70039
 Zero-point vibrational energy     594669.2 (Joules/Mol)
                                  142.12935 (Kcal/Mol)
 Warning -- explicit consideration of  14 degrees of freedom as
           vibrations may cause significant error
 Vibrational temperatures:     99.17   145.95   223.84   371.34   407.40
          (Kelvin)            422.54   471.48   544.63   629.45   661.69
                              702.83   724.39   818.87   888.17   916.91
                              978.80  1087.77  1123.35  1167.65  1195.74
                             1237.33  1267.53  1304.44  1321.90  1358.96
                             1377.23  1380.72  1397.67  1409.52  1491.17
                             1499.46  1529.68  1542.29  1565.14  1588.73
                             1626.91  1656.87  1697.15  1707.02  1818.13
                             1834.59  1843.80  1858.65  1921.28  1952.31
                             1962.79  1983.14  2004.07  2049.36  2099.45
                             2153.34  2155.90  2169.74  2189.06  2200.45
                             2229.53  2348.95  2426.51  4340.18  4355.08
                             4373.59  4380.48  4396.92  4414.39  4447.58
                             4452.50  4457.96  4502.10  4520.84  4531.63
                             4558.92  4569.64

 Zero-point correction=                           0.226498 (Hartree/Particle)
 Thermal correction to Energy=                    0.236272
 Thermal correction to Enthalpy=                  0.237216
 Thermal correction to Gibbs Free Energy=         0.191639
 Sum of electronic and zero-point Energies=           -465.394846
 Sum of electronic and thermal Energies=              -465.385071
 Sum of electronic and thermal Enthalpies=            -465.384127
 Sum of electronic and thermal Free Energies=         -465.429704

                     E (Thermal)             CV                S
                      KCal/Mol        Cal/Mol-Kelvin    Cal/Mol-Kelvin
 Total                  148.263             40.714             95.925
 Electronic               0.000              0.000              0.000
 Translational            0.889              2.981             41.084
 Rotational               0.889              2.981             30.155
 Vibrational            146.486             34.752             24.687
 Vibration     1          0.598              1.969              4.184
 Vibration     2          0.604              1.948              3.426
 Vibration     3          0.620              1.896              2.603
 Vibration     4          0.667              1.749              1.675
 Vibration     5          0.682              1.705              1.515
 Vibration     6          0.688              1.686              1.453
 Vibration     7          0.711              1.620              1.271
 Vibration     8          0.749              1.516              1.045
 Vibration     9          0.798              1.388              0.835
 Vibration    10          0.818              1.339              0.766
 Vibration    11          0.844              1.276              0.688
 Vibration    12          0.859              1.242              0.649
 Vibration    13          0.925              1.098              0.506
 Vibration    14          0.977              0.995              0.421

 Optimization completed.
    -- Stationary point found.
 Normal termination of Gaussian 16 at Wed Dec  9 17:35:09 2020.

 ----------------------------------------------------------------------
 # B3LYP/6-311++G(d,p) empiricaldispersion=gd3bj scf=xqc pop=npa geom=c
 heck
 ----------------------------------------------------------------------

 ---------------------------------------
 CID_143599528_JID_2388_Energie_neutraal
 ---------------------------------------
 Structure from the checkpoint file:  "JID_2388.chk"
 Charge =  0 Multiplicity = 1

 SCF Done:  E(RB3LYP) =  -465.739775101     A.U. after   16 cycles
 Normal termination of Gaussian 16 at Wed Dec  9 17:38:08 2020.

 ----------------------------------------------------------------------
 # B3LYP/6-311++G(d,p) empiricaldispersion=gd3bj scf=xqc pop=npa geom=c
 heck
 ----------------------------------------------------------------------

 -------------------------------------
 CID_143599528_JID_2388_Energie_kation
 -------------------------------------
 Structure from the checkpoint file:  "JID_2388.chk"
 Charge =  1 Multiplicity = 2

 SCF Done:  E(UB3LYP) =  -465.473451387     A.U. after   23 cycles
 Normal termination of Gaussian 16 at Wed Dec  9 17:43:53 2020.
 Gaussian 16:  ES64L-G16RevA.03 25-Dec-2016

 ----------------------------------------------------------------------
 # B3LYP/6-311++G(d,p) empiricaldispersion=gd3bj scf=xqc pop=npa geom=c
 heck
 ----------------------------------------------------------------------

 ------------------------------------
 CID_143599528_JID_2388_Energie_anion
 ------------------------------------
 Structure from the checkpoint file:  "JID_2388.chk"
 Charge = -1 Multiplicity = 2

                         Standard orientation:
 ---------------------------------------------------------------------
 Center     Atomic      Atomic             Coordinates (Angstroms)
 Number     Number       Type             X           Y           Z
 ---------------------------------------------------------------------
      1          6           0        2.907953   -0.046363    0.321898
      2          6           0        2.351727   -0.738449   -0.932842
      3          6           0        1.037987   -1.470267   -0.597655
      4          6           0        0.159959   -0.626115    0.306518
      5          6           0       -1.093959   -0.980174    0.693887
      6          6           0       -2.197237   -0.347850    1.395721
      7          6           0       -2.403199   -0.887703   -0.044770
      8          6           0       -2.336900    0.221887   -1.011999
      9          6           0       -1.521636    1.322331   -0.936650
     10          6           0       -0.330323    1.628485   -0.158034
     11          6           0        0.552083    0.758367    0.441824
     12          6           0        1.980497    1.112054    0.772874
     13          1           0        2.986361   -0.789328    1.126774
     14          1           0        3.919559    0.336579    0.147460
     15          1           0        2.172048    0.015656   -1.710699
     16          1           0        3.081319   -1.447654   -1.339852
     17          1           0        0.483542   -1.729979   -1.512336
     18          1           0        1.267417   -2.421532   -0.100112
     19          1           0       -2.306732    0.722342    1.568880
     20          1           0       -2.674095   -0.980236    2.146564
     21          1           0       -3.127111   -1.682631   -0.217067
     22          1           0       -3.045295    0.194673   -1.839030
     23          1           0       -1.764115    2.112100   -1.646989
     24          1           0       -0.001853    2.664560   -0.253860
     25          1           0        2.263718    2.046864    0.273809
     26          1           0        2.103529    1.281373    1.851834
 ---------------------------------------------------------------------

 SCF Done:  E(UB3LYP) =  -465.731887519     A.U. after   33 cycles
 SCF Done:  E(UB3LYP) =  -465.731887519     a.u. after    1 cycles

 The electronic state is 2-A.
 Alpha  occ. eigenvalues --  -10.04122 -10.04067 -10.03707 -10.03658 -10.02715
 Alpha  occ. eigenvalues --  -10.02361 -10.02163 -10.01852 -10.01709 -10.01337
 Alpha  occ. eigenvalues --  -10.01215 -10.00068  -0.73116  -0.69409  -0.63717
 Alpha  occ. eigenvalues --   -0.60877  -0.60330  -0.53233  -0.49791  -0.47605
 Alpha  occ. eigenvalues --   -0.44517  -0.42538  -0.37868  -0.36022  -0.34584
 Alpha  occ. eigenvalues --   -0.33573  -0.32106  -0.29465  -0.27930  -0.26962
 Alpha  occ. eigenvalues --   -0.26366  -0.25056  -0.23829  -0.22288  -0.21117
 Alpha  occ. eigenvalues --   -0.20752  -0.20002  -0.19380  -0.17396  -0.15033
 Alpha  occ. eigenvalues --   -0.13541  -0.07677  -0.05163   0.05775
 Alpha virt. eigenvalues --    0.08154   0.09297   0.09543   0.10154   0.10806
 Alpha virt. eigenvalues --    0.11315   0.11717   0.11917   0.12525   0.12901
 Alpha virt. eigenvalues --    0.13824   0.14086   0.14274   0.14923   0.15816

  Beta  occ. eigenvalues --  -10.04112 -10.03990 -10.03714 -10.03647 -10.02693
  Beta  occ. eigenvalues --  -10.02469 -10.02128 -10.01586 -10.01512 -10.01300
  Beta  occ. eigenvalues --  -10.00950  -9.99764  -0.72690  -0.69190  -0.63409
  Beta  occ. eigenvalues --   -0.60712  -0.60093  -0.52784  -0.49673  -0.47459
  Beta  occ. eigenvalues --   -0.44221  -0.42252  -0.37657  -0.35792  -0.34325
  Beta  occ. eigenvalues --   -0.33430  -0.31947  -0.29368  -0.27739  -0.26807
  Beta  occ. eigenvalues --   -0.26232  -0.24920  -0.23588  -0.22118  -0.20971
  Beta  occ. eigenvalues --   -0.20609  -0.19877  -0.19026  -0.16916  -0.14695
  Beta  occ. eigenvalues --   -0.12664  -0.06546  -0.03991
  Beta virt. eigenvalues --    0.08339   0.09300   0.09699   0.10149   0.10458
  Beta virt. eigenvalues --    0.11022   0.11616   0.11908   0.12273   0.12635
  Beta virt. eigenvalues --    0.13133   0.13843   0.14109   0.14293   0.15009

 Mulliken charges and spin densities:
               1          2
     1  C    0.019428  -0.331036
     2  C   -0.498599   0.152857
     3  C   -0.147249  -0.668486
     4  C    0.314869   0.652312
     5  C    0.534361  -0.423110
     6  C   -0.430367   0.119171
     7  C   -0.005530   0.146521
     8  C   -0.492712   0.144222
     9  C   -0.288576   0.274891
    10  C   -0.468042  -0.275991
    11  C    0.219875   0.204573
    12  C   -0.436456  -0.149892
    13  H    0.097386   0.026684
    14  H   -0.129489   0.272387
    15  H    0.189860  -0.083967
    16  H   -0.305221   0.451235
    17  H    0.098717   0.042263
    18  H   -0.099687   0.273940
    19  H    0.099525   0.016693
    20  H    0.130423   0.015514
    21  H    0.156547   0.013960
    22  H    0.112356  -0.032674
    23  H    0.074765   0.064231
    24  H    0.037678   0.055746
    25  H    0.140883  -0.030167
    26  H    0.075256   0.068124
 Sum of Mulliken charges =  -1.00000   1.00000

 Dipole moment (field-independent basis, Debye):
    X=             -0.4592    Y=              1.5511    Z=             -0.9229  Tot=              1.8624
 Quadrupole moment (field-independent basis, Debye-Ang):
   XX=           -109.1535   YY=            -98.3971   ZZ=            -88.4463
   XY=              7.6478   XZ=              0.5600   YZ=             -0.7301

 Summary of Natural Population Analysis:

                                       Natural Population
                Natural  -----------------------------------------------
    Atom  No    Charge         Core      Valence    Rydberg      Total
 -----------------------------------------------------------------------
      C    1   -0.18852      0.99964     2.18029    0.00860     3.18852
      C    2   -0.18964      0.99964     2.18128    0.00872     3.18964
      C    3   -0.19731      0.99960     2.18668    0.01104     3.19731
      C    4   -0.01757      0.99937     2.00589    0.01232     3.01757
      C    5    0.01794      0.99933     1.96743    0.01530     2.98206
      C    6   -0.18385      0.99961     2.17845    0.00579     3.18385
      C    7   -0.12100      0.99955     2.10815    0.01330     3.12100
      C    8   -0.01833      0.99956     2.00903    0.00974     3.01833
      C    9   -0.15190      0.99957     2.14277    0.00956     3.15190
      C   10   -0.05553      0.99948     2.04643    0.00963     3.05553
      C   11   -0.00017      0.99941     1.99121    0.00955     3.00017
      C   12   -0.19521      0.99960     2.18632    0.00929     3.19521
      H   13    0.09370      0.00000     0.40486    0.00143     0.40630
      H   14    0.09268      0.00000     0.40638    0.00094     0.40732
      H   15    0.09227      0.00000     0.40649    0.00123     0.40773
      H   16    0.09431      0.00000     0.40462    0.00107     0.40569
      H   17    0.09901      0.00000     0.39981    0.00117     0.40099
      H   18    0.09922      0.00000     0.39774    0.00303     0.40078
      H   19    0.09461      0.00000     0.40314    0.00225     0.40539
      H   20    0.09552      0.00000     0.40326    0.00122     0.40448
      H   21    0.09204      0.00000     0.40617    0.00180     0.40796
      H   22    0.08559      0.00000     0.41330    0.00111     0.41441
      H   23    0.09099      0.00000     0.40734    0.00167     0.40901
      H   24    0.08355      0.00000     0.41454    0.00191     0.41645
      H   25    0.09099      0.00000     0.40788    0.00114     0.40901
      H   26    0.09659      0.00000     0.40206    0.00135     0.40341
 =======================================================================
   * Total *    0.00000     11.99435    30.86152    0.14414    43.00000

 Normal termination of Gaussian 16 at Wed Dec  9 17:51:50 2020.
