 Gaussian 16, Revision A.03,

 -----------------------------------------------------------
 # opt freq B3LYP/6-31G(d) empiricaldispersion=gd3bj scf=xqc
 -----------------------------------------------------------

 -----------------------------
 CID_91238210_JID_220_neutraal
 -----------------------------
 Symbolic Z-matrix:
 Charge =  0 Multiplicity = 1

 SCF Done:  E(RB3LYP) =  -749.616309977     A.U. after   13 cycles
 SCF Done:  E(RB3LYP) =  -749.539697966     A.U. after   15 cycles
 SCF Done:  E(RB3LYP) =  -749.615987241     A.U. after   12 cycles
 SCF Done:  E(RB3LYP) =  -749.617411367     A.U. after   11 cycles
 SCF Done:  E(RB3LYP) =  -749.617859532     A.U. after   11 cycles
 SCF Done:  E(RB3LYP) =  -749.617951180     A.U. after   11 cycles
 SCF Done:  E(RB3LYP) =  -749.618118589     A.U. after   12 cycles
 SCF Done:  E(RB3LYP) =  -749.618156632     A.U. after   13 cycles
 SCF Done:  E(RB3LYP) =  -749.618519768     A.U. after   11 cycles
 SCF Done:  E(RB3LYP) =  -749.619208463     A.U. after   12 cycles
 SCF Done:  E(RB3LYP) =  -749.620469163     A.U. after    9 cycles
 SCF Done:  E(RB3LYP) =  -749.620468924     A.U. after   10 cycles
 SCF Done:  E(RB3LYP) =  -749.620469408     A.U. after    9 cycles
 SCF Done:  E(RB3LYP) =  -749.620469513     A.U. after    7 cycles
 SCF Done:  E(RB3LYP) =  -749.620469521     A.U. after    6 cycles
 Optimization completed.
    -- Stationary point found.

 1\1\GINC-NODE123\FOpt\RB3LYP\6-31G(d)\C9H14S1\VSC10255\08-Dec-2020\0\\
 # opt freq B3LYP/6-31G(d) empiricaldispersion=gd3bj scf=xqc\\CID_91238
 210_JID_220_neutraal\\0,1\C,1.3923058993,0.4979204501,-0.2390575263\C,
 0.4149661036,0.0262346681,0.8398213975\C,-0.0780103019,1.1694461949,1.
 7293123997\C,-3.3426813459,0.192849635,-0.314527648\C,-2.6681503274,1.
 2305316648,-0.958343951\C,-1.7489052324,0.9575781726,-1.9703408587\C,-
 1.4864978244,-0.3671924692,-2.3380341907\C,-2.1647288579,-1.4104082592
 ,-1.6955505146\C,-3.0903267567,-1.1266328674,-0.6927930044\S,-0.316348

 Normal termination of Gaussian 16 at Tue Dec  8 10:44:33 2020.

 --------------------------------------------------------------------
 #N Geom=AllCheck Guess=TCheck SCRF=Check GenChk RB3LYP/6-31G(d) Freq
 --------------------------------------------------------------------

 Structure from the checkpoint file:  "JID_220.chk"
 -----------------------------
 CID_91238210_JID_220_neutraal
 -----------------------------
 Charge =  0 Multiplicity = 1

 SCF Done:  E(RB3LYP) =  -749.620469521     A.U. after    1 cycles

  Exact polarizability:  95.696 -25.275 120.604 -11.809  -8.148  99.674
 Approx polarizability: 135.038 -45.421 185.310 -24.964 -16.514 171.557

                      1                      2                      3
                      A                      A                      A
 Frequencies --     22.8610                38.0231                55.6163
 Red. masses --      2.7652                 5.0080                 2.9385
 Frc consts  --      0.0009                 0.0043                 0.0054
 IR Inten    --      0.2442                 0.2002                 0.5622

                      4                      5                      6
                      A                      A                      A
 Frequencies --     60.2126                85.7736                94.5591
 Red. masses --      3.0172                 3.6885                 1.1540
 Frc consts  --      0.0064                 0.0160                 0.0061
 IR Inten    --      0.2353                 0.3775                24.7292

                      7                      8                      9
                      A                      A                      A
 Frequencies --    107.0529               191.8894               231.6991
 Red. masses --      1.5280                 4.2076                 1.0553
 Frc consts  --      0.0103                 0.0913                 0.0334
 IR Inten    --      1.2865                 1.5390                 0.0348

                     10                     11                     12
                      A                      A                      A
 Frequencies --    278.9493               280.1903               370.9001
 Red. masses --      1.3319                 2.9986                 2.0652
 Frc consts  --      0.0611                 0.1387                 0.1674
 IR Inten    --      0.1622                 1.0505                 0.1500

                     13                     14                     15
                      A                      A                      A
 Frequencies --    411.3931               415.6196               479.9224
 Red. masses --      4.0482                 5.3417                 3.3470
 Frc consts  --      0.4037                 0.5437                 0.4542
 IR Inten    --      0.1115                 0.2757                 6.7662

                     16                     17                     18
                      A                      A                      A
 Frequencies --    633.1941               703.3020               711.0085
 Red. masses --      6.4312                 2.4527                 6.6753
 Frc consts  --      1.5192                 0.7148                 1.9883
 IR Inten    --      0.1072                13.8676                11.0743

                     19                     20                     21
                      A                      A                      A
 Frequencies --    749.2156               759.2714               844.7770
 Red. masses --      1.4817                 1.0754                 1.2567
 Frc consts  --      0.4900                 0.3653                 0.5284
 IR Inten    --     51.5555                 8.2393                 0.3391

                     22                     23                     24
                      A                      A                      A
 Frequencies --    885.3798               901.0557               921.3954
 Red. masses --      2.5595                 1.3412                 1.1011
 Frc consts  --      1.1821                 0.6416                 0.5508
 IR Inten    --      0.8702                 2.6442                 0.1736

                     25                     26                     27
                      A                      A                      A
 Frequencies --    940.6056               943.3071               962.3291
 Red. masses --      1.1470                 1.1971                 1.3463
 Frc consts  --      0.5979                 0.6276                 0.7346
 IR Inten    --      9.1139                 1.5030                 0.0416

                     28                     29                     30
                      A                      A                      A
 Frequencies --    989.6409              1019.3899              1056.3178
 Red. masses --      1.2475                 5.8569                 2.8847
 Frc consts  --      0.7198                 3.5859                 1.8965
 IR Inten    --      0.1236                 2.2177                 7.1587

                     31                     32                     33
                      A                      A                      A
 Frequencies --   1071.3908              1116.0698              1125.9569
 Red. masses --      2.4026                 1.6130                 2.6702
 Frc consts  --      1.6249                 1.1838                 1.9945
 IR Inten    --      0.2789                 2.7161                25.6226

                     34                     35                     36
                      A                      A                      A
 Frequencies --   1192.6251              1194.9173              1219.7724
 Red. masses --      1.7703                 1.0941                 1.1396
 Frc consts  --      1.4836                 0.9205                 0.9990
 IR Inten    --      0.8335                 0.3466                 1.9277

                     37                     38                     39
                      A                      A                      A
 Frequencies --   1230.2102              1333.7988              1341.0531
 Red. masses --      1.6563                 1.1239                 3.2041
 Frc consts  --      1.4769                 1.1780                 3.3951
 IR Inten    --      1.8784                 0.1306                 3.2370

                     40                     41                     42
                      A                      A                      A
 Frequencies --   1366.6599              1387.4061              1431.8037
 Red. masses --      1.6792                 1.3893                 1.3051
 Frc consts  --      1.8479                 1.5757                 1.5763
 IR Inten    --      0.2609                 2.9788                 4.2637

                     43                     44                     45
                      A                      A                      A
 Frequencies --   1446.9558              1494.0202              1518.5551
 Red. masses --      1.2353                 2.2021                 1.0412
 Frc consts  --      1.5238                 2.8960                 1.4146
 IR Inten    --      4.3323                 7.6846                 2.2592

                     46                     47                     48
                      A                      A                      A
 Frequencies --   1523.1606              1527.1304              1531.9456
 Red. masses --      1.0454                 1.0574                 1.9708
 Frc consts  --      1.4289                 1.4530                 2.7250
 IR Inten    --      2.9903                 0.7539                28.3071

                     49                     50                     51
                      A                      A                      A
 Frequencies --   1536.8573              1543.5106              1638.4633
 Red. masses --      1.0537                 1.0837                 5.5291
 Frc consts  --      1.4664                 1.5212                 8.7453
 IR Inten    --     13.5982                 5.1466                 1.4242

                     52                     53                     54
                      A                      A                      A
 Frequencies --   1651.2399              2698.7238              3037.6177
 Red. masses --      5.4208                 1.0385                 1.0368
 Frc consts  --      8.7083                 4.4562                 5.6368
 IR Inten    --     27.2983                10.7254                28.1512

                     55                     56                     57
                      A                      A                      A
 Frequencies --   3039.6443              3042.0022              3087.7737
 Red. masses --      1.0688                 1.0367                 1.0932
 Frc consts  --      5.8181                 5.6522                 6.1410
 IR Inten    --     23.1011                23.0812                18.9400

                     58                     59                     60
                      A                      A                      A
 Frequencies --   3098.5987              3109.6116              3115.2026
 Red. masses --      1.1020                 1.1015                 1.1018
 Frc consts  --      6.2339                 6.2752                 6.3001
 IR Inten    --      1.5787                31.4541                46.0436

                     61                     62                     63
                      A                      A                      A
 Frequencies --   3119.5902              3185.0524              3189.3528
 Red. masses --      1.0998                 1.0852                 1.0874
 Frc consts  --      6.3061                 6.4860                 6.5167
 IR Inten    --     92.3776                 3.9422                 0.0729

                     64                     65                     66
                      A                      A                      A
 Frequencies --   3199.5975              3204.4723              3216.5166
 Red. masses --      1.0912                 1.0945                 1.0979
 Frc consts  --      6.5820                 6.6219                 6.6924
 IR Inten    --      6.0352                28.4615                14.7339

 - Thermochemistry -
 -------------------
 Temperature   298.150 Kelvin.  Pressure   1.00000 Atm.
 Atom     1 has atomic number  6 and mass  12.00000

 Molecular mass:   154.08162 amu.
 Principal axes and moments of inertia in atomic units:
                           1         2         3
     Eigenvalues --  1540.355292112.831922981.05381
           X            0.99843   0.05606  -0.00191
           Y           -0.05608   0.99834  -0.01328
           Z            0.00116   0.01336   0.99991
 This molecule is an asymmetric top.
 Rotational symmetry number  1.
 Warning -- assumption of classical behavior for rotation
           may cause significant error
 Rotational temperatures (Kelvin)      0.05623     0.04099     0.02905
 Rotational constants (GHZ):           1.17164     0.85418     0.60540
 Zero-point vibrational energy     537793.9 (Joules/Mol)
                                  128.53582 (Kcal/Mol)
 Warning -- explicit consideration of  15 degrees of freedom as
           vibrations may cause significant error
 Vibrational temperatures:     32.89    54.71    80.02    86.63   123.41
          (Kelvin)            136.05   154.03   276.09   333.36   401.35
                              403.13   533.64   591.90   597.98   690.50
                              911.03  1011.89  1022.98  1077.95  1092.42
                             1215.45  1273.86  1296.42  1325.68  1353.32
                             1357.21  1384.58  1423.87  1466.67  1519.81
                             1541.49  1605.78  1620.00  1715.92  1719.22
                             1754.98  1770.00  1919.04  1929.48  1966.32
                             1996.17  2060.05  2081.85  2149.56  2184.86
                             2191.49  2197.20  2204.13  2211.19  2220.77
                             2357.38  2375.77  3882.86  4370.45  4373.37
                             4376.76  4442.62  4458.19  4474.04  4482.08
                             4488.39  4582.58  4588.77  4603.51  4610.52
                             4627.85

 Zero-point correction=                           0.204835 (Hartree/Particle)
 Thermal correction to Energy=                    0.217671
 Thermal correction to Enthalpy=                  0.218615
 Thermal correction to Gibbs Free Energy=         0.162989
 Sum of electronic and zero-point Energies=           -749.415635
 Sum of electronic and thermal Energies=              -749.402799
 Sum of electronic and thermal Enthalpies=            -749.401855
 Sum of electronic and thermal Free Energies=         -749.457480

                     E (Thermal)             CV                S
                      KCal/Mol        Cal/Mol-Kelvin    Cal/Mol-Kelvin
 Total                  136.590             43.880            117.074
 Electronic               0.000              0.000              0.000
 Translational            0.889              2.981             41.007
 Rotational               0.889              2.981             30.651
 Vibrational            134.813             37.918             45.416
 Vibration     1          0.593              1.985              6.369
 Vibration     2          0.594              1.982              5.360
 Vibration     3          0.596              1.975              4.607
 Vibration     4          0.597              1.973              4.450
 Vibration     5          0.601              1.959              3.754
 Vibration     6          0.603              1.953              3.563
 Vibration     7          0.606              1.944              3.322
 Vibration     8          0.634              1.851              2.209
 Vibration     9          0.653              1.793              1.866
 Vibration    10          0.679              1.712              1.540
 Vibration    11          0.680              1.710              1.533
 Vibration    12          0.743              1.532              1.076
 Vibration    13          0.775              1.445              0.922
 Vibration    14          0.779              1.436              0.907
 Vibration    15          0.836              1.295              0.710

                           ! Non-Optimized Parameters !

 1\1\GINC-NODE123\Freq\RB3LYP\6-31G(d)\C9H14S1\VSC10255\08-Dec-2020\0\\
 #N Geom=AllCheck Guess=TCheck SCRF=Check GenChk RB3LYP/6-31G(d) Freq\\
 CID_91238210_JID_220_neutraal\\0,1\C,1.3923058993,0.4979204501,-0.2390
 575263\C,0.4149661036,0.0262346681,0.8398213975\C,-0.0780103019,1.1694
 461949,1.7293123997\C,-3.3426813459,0.192849635,-0.314527648\C,-2.6681
 503274,1.2305316648,-0.958343951\C,-1.7489052324,0.9575781726,-1.97034
 08587\C,-1.4864978244,-0.3671924692,-2.3380341907\C,-2.1647288579,-1.4
 104082592,-1.6955505146\C,-3.0903267567,-1.1266328674,-0.6927930044\S,

 Normal termination of Gaussian 16 at Tue Dec  8 10:50:18 2020.

 ----------------------------------------------------------------------
 # B3LYP/6-311++G(d,p) empiricaldispersion=gd3bj scf=xqc pop=npa geom=c
 heck
 ----------------------------------------------------------------------

 -------------------------------------
 CID_91238210_JID_220_Energie_neutraal
 -------------------------------------
 Structure from the checkpoint file:  "JID_220.chk"
 Charge =  0 Multiplicity = 1

 SCF Done:  E(RB3LYP) =  -749.747553619     A.U. after   15 cycles
 Normal termination of Gaussian 16 at Tue Dec  8 10:53:42 2020.

 ----------------------------------------------------------------------
 # B3LYP/6-311++G(d,p) empiricaldispersion=gd3bj scf=xqc pop=npa geom=c
 heck
 ----------------------------------------------------------------------

 -----------------------------------
 CID_91238210_JID_220_Energie_kation
 -----------------------------------
 Structure from the checkpoint file:  "JID_220.chk"
 Charge =  1 Multiplicity = 2

 SCF Done:  E(UB3LYP) =  -749.446285696     A.U. after   23 cycles
 Normal termination of Gaussian 16 at Tue Dec  8 11:02:20 2020.
 Gaussian 16:  ES64L-G16RevA.03 25-Dec-2016

 ----------------------------------
 CID_91238210_JID_220_Energie_anion
 ----------------------------------
 Structure from the checkpoint file:  "JID_220.chk"
 Charge = -1 Multiplicity = 2

                         Standard orientation:
 ---------------------------------------------------------------------
 Center     Atomic      Atomic             Coordinates (Angstroms)
 Number     Number       Type             X           Y           Z
 ---------------------------------------------------------------------
      1          6           0       -1.676484   -2.075509   -0.032153
      2          6           0       -2.201330   -0.822884   -0.737225
      3          6           0       -3.236544   -0.066381    0.097752
      4          6           0       -0.126703    2.406919    0.125616
      5          6           0       -0.092494    1.583159    1.251016
      6          6           0        0.637843    0.395688    1.237852
      7          6           0        1.333093    0.015074    0.084235
      8          6           0        1.303004    0.841874   -1.045623
      9          6           0        0.579190    2.032735   -1.018719
     10         16           0        2.281247   -1.494701   -0.012494
     11          1           0       -1.232908   -1.815627    0.936595
     12          1           0       -0.904661   -2.577193   -0.626054
     13          1           0       -2.483814   -2.794646    0.155262
     14          1           0       -1.362718   -0.156165   -0.964265
     15          1           0       -2.643478   -1.105813   -1.702296
     16          1           0       -2.804166    0.253386    1.053286
     17          1           0       -3.593382    0.830697   -0.421217
     18          1           0       -4.107575   -0.695974    0.319224
     19          1           0       -0.698135    3.329837    0.140036
     20          1           0       -0.635647    1.863512    2.149051
     21          1           0        0.662667   -0.233225    2.122953
     22          1           0        1.834037    0.547896   -1.946403
     23          1           0        0.559442    2.664238   -1.902403
     24          1           0        1.792934   -2.059759    1.109627
 ---------------------------------------------------------------------

 SCF Done:  E(UB3LYP) =  -749.733619953     A.U. after   33 cycles
 SCF Done:  E(UB3LYP) =  -749.733619953     a.u. after    1 cycles

 The electronic state is 2-A.
 Alpha  occ. eigenvalues --  -88.74727 -10.10915 -10.07567 -10.07509 -10.07411
 Alpha  occ. eigenvalues --  -10.07334 -10.06970 -10.05440 -10.04971 -10.04600
 Alpha  occ. eigenvalues --   -7.83443  -5.79814  -5.79444  -5.78857  -0.76352
 Alpha  occ. eigenvalues --   -0.68385  -0.67193  -0.64864  -0.60140  -0.57277
 Alpha  occ. eigenvalues --   -0.50937  -0.48929  -0.47625  -0.41511  -0.36594
 Alpha  occ. eigenvalues --   -0.35385  -0.35145  -0.32960  -0.32538  -0.31808
 Alpha  occ. eigenvalues --   -0.29146  -0.28024  -0.27362  -0.27080  -0.24793
 Alpha  occ. eigenvalues --   -0.23242  -0.23133  -0.22910  -0.22100  -0.19358
 Alpha  occ. eigenvalues --   -0.15665  -0.11803   0.04620
 Alpha virt. eigenvalues --    0.06910   0.07582   0.07904   0.08310   0.08491
 Alpha virt. eigenvalues --    0.09275   0.09969   0.10289   0.10582   0.10887
 Alpha virt. eigenvalues --    0.12022   0.13098   0.13710   0.14030   0.14470

  Beta  occ. eigenvalues --  -88.74701 -10.10913 -10.07547 -10.07490 -10.07394
  Beta  occ. eigenvalues --  -10.07302 -10.06950 -10.05431 -10.04954 -10.04575
  Beta  occ. eigenvalues --   -7.83416  -5.79743  -5.79429  -5.78838  -0.76306
  Beta  occ. eigenvalues --   -0.68313  -0.67168  -0.64807  -0.60034  -0.57231
  Beta  occ. eigenvalues --   -0.50866  -0.48858  -0.47570  -0.41403  -0.36509
  Beta  occ. eigenvalues --   -0.35314  -0.35128  -0.32930  -0.32468  -0.31707
  Beta  occ. eigenvalues --   -0.29113  -0.27967  -0.27334  -0.26981  -0.24730
  Beta  occ. eigenvalues --   -0.23177  -0.23084  -0.22862  -0.22082  -0.19315
  Beta  occ. eigenvalues --   -0.15620  -0.11743
  Beta virt. eigenvalues --    0.07020   0.08026   0.08257   0.08390   0.08489
  Beta virt. eigenvalues --    0.08683   0.09932   0.10385   0.10582   0.10921
  Beta virt. eigenvalues --    0.11429   0.12204   0.13600   0.14023   0.14386

 Mulliken charges and spin densities:
               1          2
     1  C    0.151954  -0.799450
     2  C   -0.481573   0.632692
     3  C    0.123670  -0.700410
     4  C    1.808678  -2.122857
     5  C    0.057660  -0.338775
     6  C    0.217809  -0.417108
     7  C    0.426757   0.316803
     8  C   -1.704924   1.414518
     9  C   -0.102603  -0.161303
    10  S    1.613449  -2.016737
    11  H   -0.065527   0.243862
    12  H   -0.176592   0.300266
    13  H   -0.095495   0.199635
    14  H    0.460219  -0.305662
    15  H   -0.026808   0.168316
    16  H    0.077585   0.061640
    17  H   -0.149789   0.264810
    18  H   -0.014880   0.125588
    19  H   -0.273155   0.433758
    20  H   -0.683327   0.879827
    21  H   -0.571189   0.765293
    22  H   -0.346291   0.534969
    23  H   -0.604785   0.778307
    24  H   -0.640842   0.742020
 Sum of Mulliken charges =  -1.00000   1.00000

 Dipole moment (field-independent basis, Debye):
    X=              0.5146    Y=             -1.1844    Z=             -2.0644  Tot=              2.4350
 Quadrupole moment (field-independent basis, Debye-Ang):
   XX=           -111.8419   YY=           -119.3156   ZZ=           -110.9614
   XY=              3.6625   XZ=              2.1272   YZ=              5.0260

 Summary of Natural Population Analysis:

                                       Natural Population
                Natural  -----------------------------------------------
    Atom  No    Charge         Core      Valence    Rydberg      Total
 -----------------------------------------------------------------------
      C    1   -0.28593      0.99967     2.28047    0.00579     3.28593
      C    2   -0.19459      0.99965     2.18842    0.00652     3.19459
      C    3   -0.28259      0.99967     2.27873    0.00419     3.28259
      C    4   -0.10828      0.99956     2.09773    0.01100     3.10828
      C    5   -0.09463      0.99956     2.08349    0.01158     3.09463
      C    6   -0.11266      0.99948     2.09991    0.01327     3.11266
      C    7   -0.08264      0.99941     2.07127    0.01196     3.08264
      C    8   -0.11474      0.99949     2.10385    0.01140     3.11474
      C    9   -0.09538      0.99956     2.08476    0.01106     3.09538
      S   10    0.01660      4.99955     2.96751    0.01634     7.98340
      H   11    0.09898      0.00000     0.39948    0.00153     0.40102
      H   12    0.09992      0.00000     0.39885    0.00123     0.40008
      H   13    0.09034      0.00000     0.40872    0.00094     0.40966
      H   14    0.10048      0.00000     0.39643    0.00308     0.39952
      H   15    0.08627      0.00000     0.41263    0.00110     0.41373
      H   16    0.09888      0.00000     0.39985    0.00127     0.40112
      H   17    0.09689      0.00000     0.40193    0.00118     0.40311
      H   18    0.08990      0.00000     0.40901    0.00109     0.41010
      H   19    0.10367      0.00000     0.39452    0.00181     0.39633
      H   20    0.10460      0.00000     0.39345    0.00195     0.39540
      H   21    0.10718      0.00000     0.38997    0.00286     0.39282
      H   22    0.10427      0.00000     0.39453    0.00120     0.39573
      H   23    0.10250      0.00000     0.39605    0.00144     0.39750
      H   24    0.07094      0.00000     0.42451    0.00455     0.42906
 =======================================================================
   * Total *   -0.00000     13.99560    27.87605    0.12835    42.00000

 Normal termination of Gaussian 16 at Tue Dec  8 11:12:03 2020.
