 Gaussian 16, Revision A.03,

 -----------------------------------------------------------
 # opt freq B3LYP/6-31G(d) empiricaldispersion=gd3bj scf=xqc
 -----------------------------------------------------------

 -----------------------------
 CID_68099146_JID_825_neutraal
 -----------------------------
 Symbolic Z-matrix:
 Charge =  0 Multiplicity = 1

 SCF Done:  E(RB3LYP) =  -429.018640160     A.U. after   13 cycles
 SCF Done:  E(RB3LYP) =  -429.023283346     A.U. after   11 cycles
 SCF Done:  E(RB3LYP) =  -429.023534873     A.U. after   11 cycles
 SCF Done:  E(RB3LYP) =  -429.023503795     A.U. after   11 cycles
 SCF Done:  E(RB3LYP) =  -429.023774710     A.U. after   10 cycles
 SCF Done:  E(RB3LYP) =  -429.023798576     A.U. after    9 cycles
 SCF Done:  E(RB3LYP) =  -429.023801807     A.U. after    8 cycles
 SCF Done:  E(RB3LYP) =  -429.023802688     A.U. after    8 cycles
 SCF Done:  E(RB3LYP) =  -429.023803192     A.U. after    7 cycles
 SCF Done:  E(RB3LYP) =  -429.023803507     A.U. after    7 cycles
 SCF Done:  E(RB3LYP) =  -429.023803713     A.U. after    7 cycles
 SCF Done:  E(RB3LYP) =  -429.023803796     A.U. after    7 cycles
 Optimization completed.
    -- Stationary point found.

 1\1\GINC-NODE108\FOpt\RB3LYP\6-31G(d)\C9H18O1\VSC10255\08-Dec-2020\0\\
 # opt freq B3LYP/6-31G(d) empiricaldispersion=gd3bj scf=xqc\\CID_68099
 146_JID_825_neutraal\\0,1\C,0.9824913264,0.0253563089,0.0329771734\C,0
 .3900186885,-0.1368815267,1.4447222163\C,0.8809149484,1.0327168509,2.3
 13005433\C,0.4395623122,2.4919103122,2.0045497642\C,0.5639656308,2.794
 1583985,3.52034799\C,0.4486781233,1.2712021259,3.7884832831\C,-1.14480
 36123,-0.2955110082,1.3717774889\C,-1.5992174,-1.3819570538,0.38830146
 76\O,-1.7649087416,-0.4850019884,2.6517649238\C,-1.4007112535,-1.65200

 Normal termination of Gaussian 16 at Tue Dec  8 12:43:17 2020.

 --------------------------------------------------------------------
 #N Geom=AllCheck Guess=TCheck SCRF=Check GenChk RB3LYP/6-31G(d) Freq
 --------------------------------------------------------------------

 Structure from the checkpoint file:  "JID_825.chk"
 -----------------------------
 CID_68099146_JID_825_neutraal
 -----------------------------
 Charge =  0 Multiplicity = 1

 SCF Done:  E(RB3LYP) =  -429.023803796     A.U. after    1 cycles

  Exact polarizability: 104.460   0.975  98.483   0.391  -1.854  83.636
 Approx polarizability: 128.971  -0.809 132.149   0.863  -1.399 129.069

                      1                      2                      3
                      A                      A                      A
 Frequencies --     37.3413                79.6007                99.9603
 Red. masses --      2.6549                 2.2541                 2.0755
 Frc consts  --      0.0022                 0.0084                 0.0122
 IR Inten    --      0.3030                 1.7569                 0.4675

                      4                      5                      6
                      A                      A                      A
 Frequencies --    140.6196               181.2336               208.1682
 Red. masses --      2.2655                 1.5450                 2.3930
 Frc consts  --      0.0264                 0.0299                 0.0611
 IR Inten    --      0.2944                 0.0559                 0.4364

                      7                      8                      9
                      A                      A                      A
 Frequencies --    221.8794               249.8583               266.9228
 Red. masses --      1.1118                 2.1832                 1.4242
 Frc consts  --      0.0322                 0.0803                 0.0598
 IR Inten    --      0.6927                 5.7000                 0.4861

                     10                     11                     12
                      A                      A                      A
 Frequencies --    291.1704               348.1172               360.7537
 Red. masses --      2.4958                 2.3315                 2.0480
 Frc consts  --      0.1247                 0.1665                 0.1570
 IR Inten    --      1.1299                 1.0557                 0.4496

                     13                     14                     15
                      A                      A                      A
 Frequencies --    399.0400               463.7877               549.0661
 Red. masses --      2.8113                 2.9924                 2.3378
 Frc consts  --      0.2637                 0.3792                 0.4153
 IR Inten    --      5.0287                 0.7407                11.3493

                     16                     17                     18
                      A                      A                      A
 Frequencies --    558.9785               653.8110               751.4673
 Red. masses --      3.0224                 2.3296                 1.6056
 Frc consts  --      0.5564                 0.5867                 0.5342
 IR Inten    --      5.9070                 1.4847                 0.1343

                     19                     20                     21
                      A                      A                      A
 Frequencies --    806.7167               818.1231               889.0860
 Red. masses --      1.2407                 1.9475                 2.2492
 Frc consts  --      0.4757                 0.7680                 1.0475
 IR Inten    --      0.8459                 1.4621                14.1730

                     22                     23                     24
                      A                      A                      A
 Frequencies --    913.0349               941.7929               955.9586
 Red. masses --      1.9696                 2.3819                 1.6381
 Frc consts  --      0.9674                 1.2447                 0.8820
 IR Inten    --      1.3816                 1.3395                 0.9443

                     25                     26                     27
                      A                      A                      A
 Frequencies --    968.6187               974.8871              1011.1933
 Red. masses --      1.9109                 1.5610                 1.3611
 Frc consts  --      1.0563                 0.8741                 0.8200
 IR Inten    --      0.1825                 1.7245                11.3037

                     28                     29                     30
                      A                      A                      A
 Frequencies --   1025.9549              1064.8343              1071.5853
 Red. masses --      2.4036                 2.2681                 1.6554
 Frc consts  --      1.4906                 1.5152                 1.1200
 IR Inten    --      3.8718                14.7574                 6.9512

                     31                     32                     33
                      A                      A                      A
 Frequencies --   1103.7718              1138.4958              1169.6400
 Red. masses --      2.9603                 2.0518                 2.3097
 Frc consts  --      2.1249                 1.5670                 1.8617
 IR Inten    --     28.2105                12.6403                51.9777

                     34                     35                     36
                      A                      A                      A
 Frequencies --   1178.6900              1191.4844              1206.0959
 Red. masses --      2.4366                 1.3208                 1.9435
 Frc consts  --      1.9945                 1.1047                 1.6657
 IR Inten    --     38.9235                 3.3831                16.3438

                     37                     38                     39
                      A                      A                      A
 Frequencies --   1216.6379              1238.7347              1263.0093
 Red. masses --      1.5259                 1.5873                 1.3610
 Frc consts  --      1.3308                 1.4350                 1.2792
 IR Inten    --      0.8746                11.7170                 1.2304

                     40                     41                     42
                      A                      A                      A
 Frequencies --   1271.8863              1280.1339              1294.7614
 Red. masses --      1.3326                 1.2016                 1.4438
 Frc consts  --      1.2701                 1.1601                 1.4261
 IR Inten    --      1.9610                 1.0666                 3.7105

                     43                     44                     45
                      A                      A                      A
 Frequencies --   1308.7395              1329.2727              1352.8752
 Red. masses --      1.3681                 1.3688                 1.3807
 Frc consts  --      1.3806                 1.4250                 1.4889
 IR Inten    --      0.1578                 0.9699                 4.7633

                     46                     47                     48
                      A                      A                      A
 Frequencies --   1396.4908              1403.7112              1424.1011
 Red. masses --      1.4118                 1.2411                 1.3534
 Frc consts  --      1.6222                 1.4409                 1.6172
 IR Inten    --      3.9327                 6.7903                 0.5699

                     49                     50                     51
                      A                      A                      A
 Frequencies --   1431.9170              1445.4315              1498.6732
 Red. masses --      1.2691                 1.2350                 1.1258
 Frc consts  --      1.5332                 1.5202                 1.4897
 IR Inten    --      9.7580                13.2589                 0.5667

                     52                     53                     54
                      A                      A                      A
 Frequencies --   1512.6403              1519.5556              1521.7813
 Red. masses --      1.0902                 1.0845                 1.0619
 Frc consts  --      1.4697                 1.4754                 1.4490
 IR Inten    --      0.4936                 0.0826                 9.3682

                     55                     56                     57
                      A                      A                      A
 Frequencies --   1524.1467              1530.3657              1534.3375
 Red. masses --      1.0519                 1.0567                 1.0486
 Frc consts  --      1.4397                 1.4582                 1.4545
 IR Inten    --      3.9451                 3.5332                 0.4613

                     58                     59                     60
                      A                      A                      A
 Frequencies --   1540.3695              1544.8562              1549.3306
 Red. masses --      1.0627                 1.0501                 1.1236
 Frc consts  --      1.4856                 1.4765                 1.5891
 IR Inten    --      7.0246                 1.4161                 2.8895

                     61                     62                     63
                      A                      A                      A
 Frequencies --   3008.5843              3019.2265              3026.0264
 Red. masses --      1.0684                 1.0568                 1.0741
 Frc consts  --      5.6980                 5.6761                 5.7949
 IR Inten    --      6.1039                34.4246                48.8757

                     64                     65                     66
                      A                      A                      A
 Frequencies --   3047.2964              3055.2443              3059.7199
 Red. masses --      1.0386                 1.0470                 1.0680
 Frc consts  --      5.6822                 5.7580                 5.8908
 IR Inten    --     21.3670                 3.8683                22.9172

                     67                     68                     69
                      A                      A                      A
 Frequencies --   3064.8843              3068.0287              3070.3885
 Red. masses --      1.0623                 1.0750                 1.0910
 Frc consts  --      5.8791                 5.9620                 6.0598
 IR Inten    --     34.4502                81.1190                57.3462

                     70                     71                     72
                      A                      A                      A
 Frequencies --   3076.9768              3106.9907              3108.6612
 Red. masses --      1.0674                 1.1069                 1.1008
 Frc consts  --      5.9542                 6.2956                 6.2675
 IR Inten    --     50.4034                19.9159                31.0565

                     73                     74                     75
                      A                      A                      A
 Frequencies --   3121.4625              3124.2701              3128.8343
 Red. masses --      1.1078                 1.1002                 1.1016
 Frc consts  --      6.3598                 6.3272                 6.3539
 IR Inten    --     46.9193                40.7433                44.3756

                     76                     77                     78
                      A                      A                      A
 Frequencies --   3131.4991              3141.2510              3166.2115
 Red. masses --      1.0993                 1.1010                 1.0986
 Frc consts  --      6.3517                 6.4009                 6.4889
 IR Inten    --     36.8561                19.5588                14.5679

 - Thermochemistry -
 -------------------
 Temperature   298.150 Kelvin.  Pressure   1.00000 Atm.
 Atom     1 has atomic number  6 and mass  12.00000

 Molecular mass:   142.13577 amu.
 Principal axes and moments of inertia in atomic units:
                           1         2         3
     Eigenvalues --  1014.201861790.222432379.58089
           X            0.99990   0.01256   0.00648
           Y           -0.01243   0.99973  -0.01987
           Z           -0.00673   0.01979   0.99978
 This molecule is an asymmetric top.
 Rotational symmetry number  1.
 Warning -- assumption of classical behavior for rotation
           may cause significant error
 Rotational temperatures (Kelvin)      0.08540     0.04838     0.03640
 Rotational constants (GHZ):           1.77947     1.00811     0.75843
 Zero-point vibrational energy     680382.4 (Joules/Mol)
                                  162.61530 (Kcal/Mol)
 Warning -- explicit consideration of  16 degrees of freedom as
           vibrations may cause significant error
 Vibrational temperatures:     53.73   114.53   143.82   202.32   260.75
          (Kelvin)            299.51   319.23   359.49   384.04   418.93
                              500.86   519.04   574.13   667.29   789.98
                              804.25   940.69  1081.19  1160.69  1177.10
                             1279.20  1313.65  1355.03  1375.41  1393.63
                             1402.65  1454.88  1476.12  1532.06  1541.77
                             1588.08  1638.04  1682.85  1695.87  1714.28
                             1735.30  1750.47  1782.26  1817.19  1829.96
                             1841.83  1862.87  1882.98  1912.53  1946.49
                             2009.24  2019.63  2048.96  2060.21  2079.65
                             2156.26  2176.35  2186.30  2189.50  2192.91
                             2201.85  2207.57  2216.25  2222.70  2229.14
                             4328.68  4343.99  4353.78  4384.38  4395.82
                             4402.25  4409.68  4414.21  4417.60  4427.08
                             4470.27  4472.67  4491.09  4495.13  4501.69
                             4505.53  4519.56  4555.47

 Zero-point correction=                           0.259144 (Hartree/Particle)
 Thermal correction to Energy=                    0.270789
 Thermal correction to Enthalpy=                  0.271733
 Thermal correction to Gibbs Free Energy=         0.221763
 Sum of electronic and zero-point Energies=           -428.764660
 Sum of electronic and thermal Energies=              -428.753015
 Sum of electronic and thermal Enthalpies=            -428.752071
 Sum of electronic and thermal Free Energies=         -428.802040

                     E (Thermal)             CV                S
                      KCal/Mol        Cal/Mol-Kelvin    Cal/Mol-Kelvin
 Total                  169.922             43.564            105.170
 Electronic               0.000              0.000              0.000
 Translational            0.889              2.981             40.766
 Rotational               0.889              2.981             29.848
 Vibrational            168.145             37.603             34.556
 Vibration     1          0.594              1.982              5.395
 Vibration     2          0.600              1.963              3.901
 Vibration     3          0.604              1.949              3.455
 Vibration     4          0.615              1.913              2.795
 Vibration     5          0.630              1.865              2.316
 Vibration     6          0.641              1.828              2.060
 Vibration     7          0.648              1.808              1.944
 Vibration     8          0.663              1.763              1.732
 Vibration     9          0.672              1.734              1.616
 Vibration    10          0.687              1.690              1.467
 Vibration    11          0.726              1.579              1.175
 Vibration    12          0.735              1.553              1.119
 Vibration    13          0.765              1.472              0.966
 Vibration    14          0.821              1.330              0.755
 Vibration    15          0.904              1.142              0.546
 Vibration    16          0.915              1.120              0.526

 Optimization completed.
    -- Stationary point found.

 1\1\GINC-NODE108\Freq\RB3LYP\6-31G(d)\C9H18O1\VSC10255\08-Dec-2020\0\\
 #N Geom=AllCheck Guess=TCheck SCRF=Check GenChk RB3LYP/6-31G(d) Freq\\
 CID_68099146_JID_825_neutraal\\0,1\C,0.9824913264,0.0253563089,0.03297
 71734\C,0.3900186885,-0.1368815267,1.4447222163\C,0.8809149484,1.03271
 68509,2.313005433\C,0.4395623122,2.4919103122,2.0045497642\C,0.5639656
 308,2.7941583985,3.52034799\C,0.4486781233,1.2712021259,3.7884832831\C
 ,-1.1448036123,-0.2955110082,1.3717774889\C,-1.5992174,-1.3819570538,0
 .3883014676\O,-1.7649087416,-0.4850019884,2.6517649238\C,-1.4007112535

 Normal termination of Gaussian 16 at Tue Dec  8 13:04:03 2020.

 ----------------------------------------------------------------------
 # B3LYP/6-311++G(d,p) empiricaldispersion=gd3bj scf=xqc pop=npa geom=c
 heck
 ----------------------------------------------------------------------

 -------------------------------------
 CID_68099146_JID_825_Energie_neutraal
 -------------------------------------
 Structure from the checkpoint file:  "JID_825.chk"
 Charge =  0 Multiplicity = 1

 SCF Done:  E(RB3LYP) =  -429.144673853     A.U. after   13 cycles
 Normal termination of Gaussian 16 at Tue Dec  8 13:08:32 2020.

 ----------------------------------------------------------------------
 # B3LYP/6-311++G(d,p) empiricaldispersion=gd3bj scf=xqc pop=npa geom=c
 heck
 ----------------------------------------------------------------------

 -----------------------------------
 CID_68099146_JID_825_Energie_kation
 -----------------------------------
 Structure from the checkpoint file:  "JID_825.chk"
 Charge =  1 Multiplicity = 2

 SCF Done:  E(UB3LYP) =  -428.816511390     A.U. after   24 cycles
 Normal termination of Gaussian 16 at Tue Dec  8 13:23:58 2020.
 Gaussian 16:  ES64L-G16RevA.03 25-Dec-2016

 ----------------------------------
 CID_68099146_JID_825_Energie_anion
 ----------------------------------
 Structure from the checkpoint file:  "JID_825.chk"
 Charge = -1 Multiplicity = 2

                         Standard orientation:
 ---------------------------------------------------------------------
 Center     Atomic      Atomic             Coordinates (Angstroms)
 Number     Number       Type             X           Y           Z
 ---------------------------------------------------------------------
      1          6           0        0.394537    2.287910    0.554232
      2          6           0        0.294990    0.751641    0.572595
      3          6           0       -1.191374    0.362346    0.527606
      4          6           0       -2.056414    0.670734   -0.727697
      5          6           0       -2.902626   -0.583408   -0.387805
      6          6           0       -1.712624   -1.102073    0.460408
      7          6           0        1.163389    0.140327   -0.549164
      8          6           0        2.606809    0.660510   -0.554563
      9          8           0        1.146014   -1.294226   -0.572848
     10          6           0        1.666343   -1.949761    0.566662
     11          1           0        0.107123    2.687509   -0.426430
     12          1           0        1.404000    2.642744    0.779947
     13          1           0       -0.283626    2.722363    1.296950
     14          1           0        0.702115    0.408116    1.535240
     15          1           0       -1.671181    0.847884    1.389035
     16          1           0       -2.561089    1.641054   -0.777424
     17          1           0       -1.492590    0.522309   -1.655113
     18          1           0       -3.242689   -1.206981   -1.220161
     19          1           0       -3.767040   -0.326900    0.234282
     20          1           0       -1.048712   -1.729346   -0.134642
     21          1           0       -1.935721   -1.601626    1.409437
     22          1           0        0.709794    0.402066   -1.512222
     23          1           0        3.068934    0.613465    0.438273
     24          1           0        3.203905    0.055360   -1.243958
     25          1           0        2.649546    1.700138   -0.890591
     26          1           0        2.698152   -1.646452    0.792182
     27          1           0        1.050056   -1.789714    1.462282
     28          1           0        1.662728   -3.017535    0.332062
 ---------------------------------------------------------------------

 SCF Done:  E(UB3LYP) =  -429.126165548     A.U. after   28 cycles

 The electronic state is 2-A.
 Alpha  occ. eigenvalues --  -19.01341 -10.11315 -10.10060 -10.06480 -10.06344
 Alpha  occ. eigenvalues --  -10.06181 -10.05884 -10.05166 -10.05160 -10.05024
 Alpha  occ. eigenvalues --   -0.92457  -0.74273  -0.68793  -0.62659  -0.58332
 Alpha  occ. eigenvalues --   -0.55552  -0.54738  -0.51230  -0.46623  -0.43152
 Alpha  occ. eigenvalues --   -0.39208  -0.37873  -0.37076  -0.34901  -0.33663
 Alpha  occ. eigenvalues --   -0.31478  -0.30319  -0.29431  -0.28400  -0.27761
 Alpha  occ. eigenvalues --   -0.27414  -0.26152  -0.24970  -0.24635  -0.22788
 Alpha  occ. eigenvalues --   -0.20941  -0.20251  -0.19336  -0.18234  -0.14759
 Alpha  occ. eigenvalues --    0.04898
 Alpha virt. eigenvalues --    0.07095   0.07475   0.07961   0.09271   0.09710
 Alpha virt. eigenvalues --    0.09790   0.10410   0.10686   0.12104   0.12287
 Alpha virt. eigenvalues --    0.12778   0.13022   0.13831   0.14140   0.15158

  Beta  occ. eigenvalues --  -19.01334 -10.11309 -10.10025 -10.06468 -10.06333
  Beta  occ. eigenvalues --  -10.06170 -10.05869 -10.05156 -10.05126 -10.04988
  Beta  occ. eigenvalues --   -0.92437  -0.74248  -0.68766  -0.62618  -0.58270
  Beta  occ. eigenvalues --   -0.55504  -0.54695  -0.51175  -0.46573  -0.43107
  Beta  occ. eigenvalues --   -0.39177  -0.37839  -0.37034  -0.34866  -0.33627
  Beta  occ. eigenvalues --   -0.31435  -0.30283  -0.29396  -0.28358  -0.27736
  Beta  occ. eigenvalues --   -0.27375  -0.26114  -0.24933  -0.24607  -0.22757
  Beta  occ. eigenvalues --   -0.20911  -0.20224  -0.19305  -0.18207  -0.14734
  Beta virt. eigenvalues --    0.07165   0.07927   0.08263   0.08472   0.09777
  Beta virt. eigenvalues --    0.10273   0.10372   0.11002   0.11223   0.12496
  Beta virt. eigenvalues --    0.12810   0.13248   0.13591   0.14188   0.14628

 Mulliken charges and spin densities:
               1          2
     1  C    1.171390  -1.918664
     2  C    0.504425   0.099011
     3  C   -0.278058   0.342949
     4  C   -0.153756  -0.093244
     5  C    0.594480  -1.041257
     6  C   -0.118161  -0.212350
     7  C   -2.713615   2.009460
     8  C    2.112911  -2.703791
     9  O   -0.083491   0.031727
    10  C    0.884380  -1.164074
    11  H   -0.054812   0.217229
    12  H   -0.586531   0.741270
    13  H   -0.328706   0.472540
    14  H   -0.057031   0.245655
    15  H   -0.261611   0.466695
    16  H   -0.152436   0.305292
    17  H   -0.011952   0.119048
    18  H    0.029809   0.108806
    19  H   -0.095273   0.214399
    20  H    0.201219  -0.055138
    21  H   -0.148142   0.288972
    22  H   -0.071758   0.240302
    23  H   -0.234705   0.409218
    24  H   -0.043349   0.193140
    25  H   -0.135462   0.283483
    26  H   -0.508885   0.650579
    27  H   -0.341110   0.475971
    28  H   -0.119770   0.272772
 Sum of Mulliken charges =  -1.00000   1.00000

 Dipole moment (field-independent basis, Debye):
    X=             -2.5275    Y=             -2.0613    Z=             -3.4149  Tot=              4.7222
 Quadrupole moment (field-independent basis, Debye-Ang):
   XX=           -122.9277   YY=           -112.7113   ZZ=           -100.6410
   XY=              1.7422   XZ=             -2.1451   YZ=             -0.5174

 Summary of Natural Population Analysis:

                                       Natural Population
                Natural  -----------------------------------------------
    Atom  No    Charge         Core      Valence    Rydberg      Total
 -----------------------------------------------------------------------
      C    1   -0.28337      0.99965     2.27741    0.00631     3.28337
      C    2   -0.12606      0.99955     2.11479    0.01172     3.12606
      C    3   -0.10354      0.99959     2.09046    0.01349     3.10354
      C    4   -0.18805      0.99962     2.18049    0.00794     3.18805
      C    5   -0.18962      0.99965     2.18191    0.00806     3.18962
      C    6   -0.18962      0.99962     2.18167    0.00833     3.18962
      C    7    0.07232      0.99952     1.91336    0.01481     2.92768
      C    8   -0.30177      0.99964     2.29646    0.00567     3.30177
      O    9   -0.30688      0.99989     3.29701    0.00998     4.30688
      C   10   -0.10315      0.99960     2.09351    0.01004     3.10315
      H   11    0.09614      0.00000     0.40255    0.00131     0.40386
      H   12    0.10277      0.00000     0.39592    0.00131     0.39723
      H   13    0.10204      0.00000     0.39653    0.00143     0.39796
      H   14    0.09942      0.00000     0.39802    0.00255     0.40058
      H   15    0.09656      0.00000     0.40175    0.00169     0.40344
      H   16    0.09662      0.00000     0.40229    0.00109     0.40338
      H   17    0.09327      0.00000     0.40526    0.00147     0.40673
      H   18    0.09136      0.00000     0.40786    0.00078     0.40864
      H   19    0.09355      0.00000     0.40518    0.00127     0.40645
      H   20    0.10695      0.00000     0.39114    0.00191     0.39305
      H   21    0.09375      0.00000     0.40518    0.00107     0.40625
      H   22    0.08721      0.00000     0.41073    0.00206     0.41279
      H   23    0.10069      0.00000     0.39767    0.00164     0.39931
      H   24    0.10288      0.00000     0.39609    0.00102     0.39712
      H   25    0.10425      0.00000     0.39474    0.00101     0.39575
      H   26    0.08294      0.00000     0.41543    0.00164     0.41706
      H   27    0.08077      0.00000     0.41764    0.00158     0.41923
      H   28    0.08856      0.00000     0.41035    0.00109     0.41144
 =======================================================================
   * Total *    0.00000      9.99634    29.88139    0.12227    40.00000

 Normal termination of Gaussian 16 at Tue Dec  8 13:35:49 2020.
