 Gaussian 16, Revision A.03,

 -----------------------------------------------------------
 # opt freq B3LYP/6-31G(d) empiricaldispersion=gd3bj scf=xqc
 -----------------------------------------------------------

 -------------------------------
 CID_142949753_JID_7398_neutraal
 -------------------------------
 Symbolic Z-matrix:
 Charge =  0 Multiplicity = 1

 SCF Done:  E(RB3LYP) =  -656.279297098     A.U. after   14 cycles
 SCF Done:  E(RB3LYP) =  -656.284436202     A.U. after   13 cycles
 SCF Done:  E(RB3LYP) =  -656.283914127     A.U. after   12 cycles
 SCF Done:  E(RB3LYP) =  -656.285371480     A.U. after   11 cycles
 SCF Done:  E(RB3LYP) =  -656.285426395     A.U. after   10 cycles
 SCF Done:  E(RB3LYP) =  -656.285433453     A.U. after   10 cycles
 SCF Done:  E(RB3LYP) =  -656.285436271     A.U. after    9 cycles
 SCF Done:  E(RB3LYP) =  -656.285439399     A.U. after   10 cycles
 SCF Done:  E(RB3LYP) =  -656.285441978     A.U. after   10 cycles
 SCF Done:  E(RB3LYP) =  -656.285443754     A.U. after   10 cycles
 SCF Done:  E(RB3LYP) =  -656.285445820     A.U. after   10 cycles
 SCF Done:  E(RB3LYP) =  -656.285447409     A.U. after   10 cycles
 SCF Done:  E(RB3LYP) =  -656.285447961     A.U. after   10 cycles
 SCF Done:  E(RB3LYP) =  -656.285448037     A.U. after    8 cycles
 Optimization completed.
    -- Stationary point found.
 Normal termination of Gaussian 16 at Fri Dec 11 12:05:56 2020.

 --------------------------------------------------------------------
 #N Geom=AllCheck Guess=TCheck SCRF=Check GenChk RB3LYP/6-31G(d) Freq
 --------------------------------------------------------------------

 Structure from the checkpoint file:  "JID_7398.chk"
 -------------------------------
 CID_142949753_JID_7398_neutraal
 -------------------------------
 Charge =  0 Multiplicity = 1

 SCF Done:  E(RB3LYP) =  -656.285448037     A.U. after    1 cycles

  Exact polarizability: 258.552  25.772 223.305  -8.992  -2.105  80.022
 Approx polarizability: 453.854  83.942 407.435 -29.042  -8.996 135.016

                      1                      2                      3
                      A                      A                      A
 Frequencies --     16.7113                72.8483               104.4827
 Red. masses --      3.0990                 3.7652                 2.6802
 Frc consts  --      0.0005                 0.0118                 0.0172
 IR Inten    --      0.0491                 0.0300                 0.3456

                      4                      5                      6
                      A                      A                      A
 Frequencies --    131.2407               171.5106               175.1925
 Red. masses --      3.2966                 1.2814                 2.5424
 Frc consts  --      0.0335                 0.0222                 0.0460
 IR Inten    --      1.2667                 0.3575                 0.8564

                      7                      8                      9
                      A                      A                      A
 Frequencies --    223.8211               263.1789               287.2466
 Red. masses --      3.8058                 2.7686                 2.9997
 Frc consts  --      0.1123                 0.1130                 0.1458
 IR Inten    --      0.3734                 0.8566                 0.2761

                     10                     11                     12
                      A                      A                      A
 Frequencies --    294.5030               327.2415               359.5845
 Red. masses --      2.3591                 3.7614                 3.3195
 Frc consts  --      0.1206                 0.2373                 0.2529
 IR Inten    --      0.8874                 0.6405                 0.3217

                     13                     14                     15
                      A                      A                      A
 Frequencies --    384.9484               413.1456               459.1146
 Red. masses --      4.9196                 5.2544                 3.5775
 Frc consts  --      0.4295                 0.5284                 0.4443
 IR Inten    --      1.4322                 0.1765                 0.3450

                     16                     17                     18
                      A                      A                      A
 Frequencies --    461.5921               509.1799               531.4916
 Red. masses --      5.0526                 2.9221                 3.5255
 Frc consts  --      0.6343                 0.4464                 0.5868
 IR Inten    --      2.9349                 1.1829                 1.2783

                     19                     20                     21
                      A                      A                      A
 Frequencies --    538.8435               545.4031               549.8787
 Red. masses --      3.6925                 3.0010                 4.1540
 Frc consts  --      0.6317                 0.5260                 0.7400
 IR Inten    --      2.0556                 1.7793                 3.0770

                     22                     23                     24
                      A                      A                      A
 Frequencies --    575.6580               661.6524               667.5619
 Red. masses --      2.9634                 4.3586                 1.5268
 Frc consts  --      0.5786                 1.1242                 0.4009
 IR Inten    --      1.3174                 2.3801                 3.8490

                     25                     26                     27
                      A                      A                      A
 Frequencies --    686.1691               708.3046               737.7395
 Red. masses --      3.7762                 2.2640                 2.8362
 Frc consts  --      1.0475                 0.6692                 0.9095
 IR Inten    --      3.6486                 6.8226                 4.7225

                     28                     29                     30
                      A                      A                      A
 Frequencies --    759.8246               781.4344               806.9592
 Red. masses --      4.6416                 1.3766                 4.0945
 Frc consts  --      1.5789                 0.4953                 1.5709
 IR Inten    --      1.3071                11.1946                 1.5223

                     31                     32                     33
                      A                      A                      A
 Frequencies --    818.0191               838.2237               886.5045
 Red. masses --      2.7231                 1.8802                 1.4648
 Frc consts  --      1.0736                 0.7784                 0.6782
 IR Inten    --      2.3297                10.6904                10.5328

                     34                     35                     36
                      A                      A                      A
 Frequencies --    891.7438               899.4975               909.4628
 Red. masses --      1.5389                 3.8773                 1.4691
 Frc consts  --      0.7210                 1.8483                 0.7159
 IR Inten    --     62.6731                 2.2499                 0.9779

                     37                     38                     39
                      A                      A                      A
 Frequencies --    934.3099               947.8670               968.4586
 Red. masses --      2.9036                 1.3956                 1.2818
 Frc consts  --      1.4934                 0.7387                 0.7083
 IR Inten    --      2.1517                27.4549                 0.9311

                     40                     41                     42
                      A                      A                      A
 Frequencies --    984.1134              1001.6937              1033.4290
 Red. masses --      1.3000                 2.2523                 1.1142
 Frc consts  --      0.7418                 1.3315                 0.7011
 IR Inten    --      0.9351                 1.6877                 8.2124

                     43                     44                     45
                      A                      A                      A
 Frequencies --   1050.2220              1054.8266              1073.2056
 Red. masses --      1.4830                 2.1555                 1.8018
 Frc consts  --      0.9637                 1.4130                 1.2227
 IR Inten    --      3.1559                 3.2621                 2.2620

                     46                     47                     48
                      A                      A                      A
 Frequencies --   1081.9250              1112.0907              1177.7132
 Red. masses --      1.8602                 1.9157                 1.9744
 Frc consts  --      1.2829                 1.3959                 1.6135
 IR Inten    --      0.6512                 2.5805                 1.9557

                     49                     50                     51
                      A                      A                      A
 Frequencies --   1192.6818              1212.5888              1248.0328
 Red. masses --      1.3746                 1.3695                 1.6395
 Frc consts  --      1.1520                 1.1864                 1.5046
 IR Inten    --      2.0410                 6.4085                 0.5824

                     52                     53                     54
                      A                      A                      A
 Frequencies --   1265.2254              1278.4384              1320.6230
 Red. masses --      3.6928                 1.8219                 2.4875
 Frc consts  --      3.4829                 1.7544                 2.5560
 IR Inten    --      1.4964                 0.4059                 0.1738

                     55                     56                     57
                      A                      A                      A
 Frequencies --   1330.6785              1367.8461              1396.5916
 Red. masses --      1.3028                 3.4372                 3.4974
 Frc consts  --      1.3592                 3.7890                 4.0191
 IR Inten    --      5.4928                 1.9089                 2.6899

                     58                     59                     60
                      A                      A                      A
 Frequencies --   1418.7308              1439.1558              1445.5098
 Red. masses --      6.3835                 1.8974                 1.2376
 Frc consts  --      7.5702                 2.3154                 1.5236
 IR Inten    --      1.4515                 2.0873                 0.2381

                     61                     62                     63
                      A                      A                      A
 Frequencies --   1453.7280              1473.3386              1488.5029
 Red. masses --      1.8995                 1.6424                 2.1012
 Frc consts  --      2.3652                 2.1005                 2.7429
 IR Inten    --      2.8241                 2.4458                 6.0124

                     64                     65                     66
                      A                      A                      A
 Frequencies --   1503.7233              1510.5182              1514.0303
 Red. masses --      2.2878                 1.1772                 1.3073
 Frc consts  --      3.0480                 1.5825                 1.7656
 IR Inten    --      3.1848                 5.7579                 5.6549

                     67                     68                     69
                      A                      A                      A
 Frequencies --   1540.4993              1610.5314              1644.8600
 Red. masses --      1.9575                 6.0257                 4.8099
 Frc consts  --      2.7370                 9.2087                 7.6674
 IR Inten    --      7.3873                 1.8424                 2.3976

                     70                     71                     72
                      A                      A                      A
 Frequencies --   1659.7138              1666.5553              1705.5168
 Red. masses --      5.6164                 4.9196                 6.7045
 Frc consts  --      9.1154                 8.0505                11.4902
 IR Inten    --      9.3750                10.7056                 0.4172

                     73                     74                     75
                      A                      A                      A
 Frequencies --   1716.9464              3047.4299              3102.5086
 Red. masses --      4.7503                 1.0388                 1.0975
 Frc consts  --      8.2505                 5.6840                 6.2240
 IR Inten    --      4.9032                33.4188                14.4093

                     76                     77                     78
                      A                      A                      A
 Frequencies --   3117.9101              3131.6329              3162.8631
 Red. masses --      1.0853                 1.1023                 1.0619
 Frc consts  --      6.2161                 6.3690                 6.2590
 IR Inten    --     17.5869                17.3801                10.4456

                     79                     80                     81
                      A                      A                      A
 Frequencies --   3176.5190              3176.7081              3180.8811
 Red. masses --      1.0853                 1.0879                 1.0852
 Frc consts  --      6.4519                 6.4681                 6.4692
 IR Inten    --      3.6612                12.0688                 0.2504

                     82                     83                     84
                      A                      A                      A
 Frequencies --   3183.2502              3188.1912              3198.2852
 Red. masses --      1.0711                 1.0899                 1.0961
 Frc consts  --      6.3944                 6.5275                 6.6061
 IR Inten    --      7.3036                18.8997                41.9347

                     85                     86                     87
                      A                      A                      A
 Frequencies --   3206.9407              3244.0617              3302.7493
 Red. masses --      1.0966                 1.1171                 1.1061
 Frc consts  --      6.6449                 6.9265                 7.1088
 IR Inten    --     41.7203                16.7554                 6.0685

 - Thermochemistry -
 -------------------
 Temperature   298.150 Kelvin.  Pressure   1.00000 Atm.
 Atom     1 has atomic number  6 and mass  12.00000

 Molecular mass:   218.10955 amu.
 Principal axes and moments of inertia in atomic units:
                           1         2         3
     Eigenvalues --  2524.810753741.557886027.43252
           X            0.99991  -0.01315  -0.00050
           Y            0.01315   0.99991   0.00071
           Z            0.00049  -0.00072   1.00000
 This molecule is an asymmetric top.
 Rotational symmetry number  1.
 Warning -- assumption of classical behavior for rotation
           may cause significant error
 Rotational temperatures (Kelvin)      0.03431     0.02315     0.01437
 Rotational constants (GHZ):           0.71480     0.48235     0.29942
 Zero-point vibrational energy     668080.1 (Joules/Mol)
                                  159.67497 (Kcal/Mol)
 Warning -- explicit consideration of  22 degrees of freedom as
           vibrations may cause significant error
 Vibrational temperatures:     24.04   104.81   150.33   188.83   246.77
          (Kelvin)            252.06   322.03   378.66   413.28   423.72
                              470.83   517.36   553.85   594.42   660.56
                              664.13   732.60   764.70   775.28   784.71
                              791.15   828.24   951.97   960.47   987.24
                             1019.09  1061.44  1093.22  1124.31  1161.03
                             1176.95  1206.02  1275.48  1283.02  1294.18
                             1308.51  1344.26  1363.77  1393.40  1415.92
                             1441.21  1486.87  1511.04  1517.66  1544.10
                             1556.65  1600.05  1694.47  1716.00  1744.64
                             1795.64  1820.38  1839.39  1900.08  1914.55
                             1968.03  2009.38  2041.24  2070.62  2079.77
                             2091.59  2119.81  2141.62  2163.52  2173.30
                             2178.35  2216.43  2317.20  2366.59  2387.96
                             2397.80  2453.86  2470.30  4384.57  4463.82
                             4485.98  4505.72  4550.65  4570.30  4570.57
                             4576.58  4579.99  4587.10  4601.62  4614.07
                             4667.48  4751.92

 Zero-point correction=                           0.254458 (Hartree/Particle)
 Thermal correction to Energy=                    0.268262
 Thermal correction to Enthalpy=                  0.269206
 Thermal correction to Gibbs Free Energy=         0.213620
 Sum of electronic and zero-point Energies=           -656.030990
 Sum of electronic and thermal Energies=              -656.017186
 Sum of electronic and thermal Enthalpies=            -656.016242
 Sum of electronic and thermal Free Energies=         -656.071828

                     E (Thermal)             CV                S
                      KCal/Mol        Cal/Mol-Kelvin    Cal/Mol-Kelvin
 Total                  168.337             56.320            116.992
 Electronic               0.000              0.000              0.000
 Translational            0.889              2.981             42.043
 Rotational               0.889              2.981             32.410
 Vibrational            166.560             50.358             42.540
 Vibration     1          0.593              1.986              6.991
 Vibration     2          0.599              1.967              4.075
 Vibration     3          0.605              1.946              3.369
 Vibration     4          0.612              1.922              2.928
 Vibration     5          0.626              1.878              2.419
 Vibration     6          0.627              1.873              2.379
 Vibration     7          0.649              1.805              1.928
 Vibration     8          0.670              1.740              1.641
 Vibration     9          0.684              1.697              1.490
 Vibration    10          0.689              1.684              1.448
 Vibration    11          0.711              1.621              1.274
 Vibration    12          0.734              1.556              1.124
 Vibration    13          0.754              1.502              1.020
 Vibration    14          0.777              1.442              0.916
 Vibration    15          0.817              1.341              0.769
 Vibration    16          0.819              1.335              0.761
 Vibration    17          0.864              1.230              0.636
 Vibration    18          0.886              1.180              0.584
 Vibration    19          0.894              1.164              0.568
 Vibration    20          0.901              1.150              0.554
 Vibration    21          0.905              1.140              0.544
 Vibration    22          0.932              1.084              0.493

                           ! Non-Optimized Parameters !
 Normal termination of Gaussian 16 at Fri Dec 11 12:19:15 2020.

 ----------------------------------------------------------------------
 # B3LYP/6-311++G(d,p) empiricaldispersion=gd3bj scf=xqc pop=npa geom=c
 heck
 ----------------------------------------------------------------------

 ---------------------------------------
 CID_142949753_JID_7398_Energie_neutraal
 ---------------------------------------
 Structure from the checkpoint file:  "JID_7398.chk"
 Charge =  0 Multiplicity = 1

 SCF Done:  E(RB3LYP) =  -656.444717885     A.U. after   16 cycles
 Normal termination of Gaussian 16 at Fri Dec 11 12:25:59 2020.

 ----------------------------------------------------------------------
 # B3LYP/6-311++G(d,p) empiricaldispersion=gd3bj scf=xqc pop=npa geom=c
 heck
 ----------------------------------------------------------------------

 -------------------------------------
 CID_142949753_JID_7398_Energie_kation
 -------------------------------------
 Structure from the checkpoint file:  "JID_7398.chk"
 Charge =  1 Multiplicity = 2

 SCF Done:  E(UB3LYP) =  -656.193914864     A.U. after   21 cycles
 Normal termination of Gaussian 16 at Fri Dec 11 12:38:27 2020.
 Gaussian 16:  ES64L-G16RevA.03 25-Dec-2016

 ----------------------------------------------------------------------
 # B3LYP/6-311++G(d,p) empiricaldispersion=gd3bj scf=xqc pop=npa geom=c
 heck
 ----------------------------------------------------------------------

 ------------------------------------
 CID_142949753_JID_7398_Energie_anion
 ------------------------------------
 Structure from the checkpoint file:  "JID_7398.chk"
 Charge = -1 Multiplicity = 2

                         Standard orientation:
 ---------------------------------------------------------------------
 Center     Atomic      Atomic             Coordinates (Angstroms)
 Number     Number       Type             X           Y           Z
 ---------------------------------------------------------------------
      1          6           0        2.603977   -2.584690   -0.183542
      2          6           0        1.379917   -1.701523   -0.159154
      3          6           0        0.124215   -2.266140   -0.157549
      4          6           0       -1.041671   -1.474203   -0.073688
      5          6           0       -2.331367   -2.066990   -0.003336
      6          6           0       -3.457251   -1.286599    0.122097
      7          6           0       -3.335863    0.114942    0.187817
      8          6           0       -2.096724    0.733973    0.103351
      9          6           0       -0.909476   -0.054426   -0.046843
     10          6           0        0.390837    0.551333   -0.133445
     11          6           0        1.519980   -0.280302   -0.122599
     12          6           0        2.918269    0.226541   -0.039450
     13          6           0        3.508510    0.592293    1.098639
     14          6           0        0.450322    2.035985   -0.247259
     15          6           0        1.512191    2.753171   -0.682467
     16          6           0       -0.776464    2.774968    0.043537
     17          6           0       -1.970118    2.172994    0.194122
     18          1           0        3.247673   -2.363310   -1.043968
     19          1           0        2.318786   -3.639277   -0.239236
     20          1           0        3.219276   -2.439915    0.711057
     21          1           0        0.019101   -3.348063   -0.191367
     22          1           0       -2.407191   -3.150501   -0.039953
     23          1           0       -4.439816   -1.745814    0.181982
     24          1           0       -4.224110    0.729327    0.310386
     25          1           0        3.501351    0.227193   -0.963170
     26          1           0        4.544169    0.920235    1.122179
     27          1           0        2.967095    0.595348    2.041114
     28          1           0        1.435892    3.834648   -0.753180
     29          1           0        2.451367    2.317252   -0.986438
     30          1           0       -0.699059    3.858379    0.079414
     31          1           0       -2.870236    2.756531    0.369793
 ---------------------------------------------------------------------

 SCF Done:  E(UB3LYP) =  -656.467843622     A.U. after   25 cycles

 The electronic state is 2-A.
 Alpha  occ. eigenvalues --  -10.05720 -10.05194 -10.04651 -10.04452 -10.03931
 Alpha  occ. eigenvalues --  -10.03872 -10.03812 -10.03364 -10.03225 -10.03095
 Alpha  occ. eigenvalues --  -10.03048 -10.02370 -10.02301 -10.02248 -10.02203
 Alpha  occ. eigenvalues --  -10.02153  -9.99877  -0.74241  -0.70120  -0.68428
 Alpha  occ. eigenvalues --   -0.65139  -0.63247  -0.61651  -0.59944  -0.56182
 Alpha  occ. eigenvalues --   -0.55307  -0.50668  -0.47225  -0.46236  -0.44670
 Alpha  occ. eigenvalues --   -0.43466  -0.37741  -0.37065  -0.36649  -0.34846
 Alpha  occ. eigenvalues --   -0.34006  -0.31951  -0.30748  -0.30080  -0.29927
 Alpha  occ. eigenvalues --   -0.29009  -0.27284  -0.26384  -0.25906  -0.25640
 Alpha  occ. eigenvalues --   -0.24694  -0.24439  -0.23183  -0.21904  -0.20076
 Alpha  occ. eigenvalues --   -0.19227  -0.18956  -0.18136  -0.14560  -0.12900
 Alpha  occ. eigenvalues --   -0.11728  -0.10399  -0.05603   0.02982
 Alpha virt. eigenvalues --    0.08114   0.08931   0.09273   0.10051   0.10401
 Alpha virt. eigenvalues --    0.10632   0.11087   0.11873   0.11951   0.12292
 Alpha virt. eigenvalues --    0.12557   0.12612   0.13831   0.14041   0.14339

  Beta  occ. eigenvalues --  -10.05728 -10.05191 -10.04705 -10.04429 -10.03991
  Beta  occ. eigenvalues --  -10.03892 -10.03701 -10.03222 -10.03173 -10.03163
  Beta  occ. eigenvalues --  -10.02930 -10.02267 -10.02172 -10.02094 -10.02049
  Beta  occ. eigenvalues --  -10.01980  -9.99395  -0.74034  -0.69889  -0.68131
  Beta  occ. eigenvalues --   -0.64992  -0.63114  -0.61289  -0.59705  -0.55991
  Beta  occ. eigenvalues --   -0.54871  -0.50250  -0.46946  -0.46011  -0.44416
  Beta  occ. eigenvalues --   -0.43210  -0.37624  -0.36911  -0.36498  -0.34637
  Beta  occ. eigenvalues --   -0.33897  -0.31837  -0.30665  -0.30051  -0.29755
  Beta  occ. eigenvalues --   -0.28919  -0.27162  -0.26297  -0.25654  -0.25305
  Beta  occ. eigenvalues --   -0.24496  -0.24312  -0.23068  -0.21711  -0.19462
  Beta  occ. eigenvalues --   -0.18737  -0.18463  -0.17942  -0.14270  -0.11858
  Beta  occ. eigenvalues --   -0.10881  -0.09922  -0.03677
  Beta virt. eigenvalues --    0.07857   0.08271   0.08934   0.09285   0.10036
  Beta virt. eigenvalues --    0.10388   0.10613   0.11176   0.11902   0.12011
  Beta virt. eigenvalues --    0.12460   0.12584   0.13084   0.14141   0.14319

 Mulliken charges and spin densities:
               1          2
     1  C   -0.382236   0.004467
     2  C    0.788091  -0.048113
     3  C   -0.347116   0.172487
     4  C    0.494060  -0.057716
     5  C   -0.328995   0.156902
     6  C   -0.357862   0.012065
     7  C   -0.339376   0.107478
     8  C    0.238107   0.063832
     9  C   -0.008098  -0.017225
    10  C   -0.318803   0.092087
    11  C    0.137009   0.118839
    12  C   -0.283876   0.101314
    13  C   -0.692375  -0.111469
    14  C    0.976455  -0.137258
    15  C   -0.872310   0.468078
    16  C   -0.726686   0.122954
    17  C   -0.358724  -0.007154
    18  H    0.121636  -0.001832
    19  H    0.139495  -0.000336
    20  H    0.164400  -0.000602
    21  H    0.010510  -0.012911
    22  H    0.081738  -0.013176
    23  H    0.114400  -0.001070
    24  H    0.066984  -0.004796
    25  H    0.180943   0.016313
    26  H    0.049554   0.040571
    27  H    0.116121  -0.003322
    28  H    0.100574  -0.019358
    29  H    0.075157  -0.027083
    30  H    0.081260  -0.009854
    31  H    0.079965  -0.004110
 Sum of Mulliken charges =  -1.00000   1.00000

 Dipole moment (field-independent basis, Debye):
    X=              1.3885    Y=             -2.0740    Z=              0.3800  Tot=              2.5247
 Quadrupole moment (field-independent basis, Debye-Ang):
   XX=           -127.9656   YY=           -123.9439   ZZ=           -113.3092
   XY=             -5.3131   XZ=             -0.9879   YZ=              1.8112

 Summary of Natural Population Analysis:

                                       Natural Population
                Natural  -----------------------------------------------
    Atom  No    Charge         Core      Valence    Rydberg      Total
 -----------------------------------------------------------------------
      C    1   -0.28629      0.99960     2.28211    0.00458     3.28629
      C    2   -0.02839      0.99951     2.02128    0.00761     3.02839
      C    3   -0.05709      0.99941     2.04916    0.00852     3.05709
      C    4   -0.04357      0.99953     2.03541    0.00864     3.04357
      C    5   -0.05888      0.99943     2.04908    0.01036     3.05888
      C    6   -0.11415      0.99959     2.10467    0.00988     3.11415
      C    7   -0.08910      0.99954     2.08055    0.00902     3.08910
      C    8   -0.00837      0.99949     2.00053    0.00834     3.00837
      C    9   -0.00777      0.99940     2.00061    0.00776     3.00777
      C   10    0.01468      0.99940     1.97622    0.00970     2.98532
      C   11   -0.00403      0.99938     1.99316    0.01149     3.00403
      C   12   -0.08507      0.99958     2.07437    0.01111     3.08507
      C   13   -0.19180      0.99955     2.18596    0.00629     3.19180
      C   14   -0.06845      0.99951     2.05973    0.00921     3.06845
      C   15   -0.05990      0.99952     2.05317    0.00721     3.05990
      C   16   -0.05459      0.99952     2.04582    0.00925     3.05459
      C   17   -0.11013      0.99952     2.10116    0.00944     3.11013
      H   18    0.09585      0.00000     0.40285    0.00130     0.40415
      H   19    0.09449      0.00000     0.40437    0.00115     0.40551
      H   20    0.10154      0.00000     0.39717    0.00130     0.39846
      H   21    0.08527      0.00000     0.41274    0.00199     0.41473
      H   22    0.08983      0.00000     0.40959    0.00058     0.41017
      H   23    0.08907      0.00000     0.40981    0.00112     0.41093
      H   24    0.08768      0.00000     0.41066    0.00166     0.41232
      H   25    0.09597      0.00000     0.40353    0.00050     0.40403
      H   26    0.08405      0.00000     0.41432    0.00163     0.41595
      H   27    0.09150      0.00000     0.40738    0.00112     0.40850
      H   28    0.07628      0.00000     0.42243    0.00130     0.42372
      H   29    0.08474      0.00000     0.41418    0.00108     0.41526
      H   30    0.08634      0.00000     0.41191    0.00175     0.41366
      H   31    0.09178      0.00000     0.40739    0.00084     0.40822
 =======================================================================
   * Total *    0.00150     16.99147    40.84131    0.16571    57.99850

 Normal termination of Gaussian 16 at Fri Dec 11 12:53:28 2020.
