 Gaussian 16, Revision A.03,

 -----------------------------------------------------------
 # opt freq B3LYP/6-31G(d) empiricaldispersion=gd3bj scf=xqc
 -----------------------------------------------------------

 -------------------------------
 CID_149200477_JID_2567_neutraal
 -------------------------------
 Symbolic Z-matrix:
 Charge =  0 Multiplicity = 1

 SCF Done:  E(RB3LYP) =  -487.814930968     A.U. after   12 cycles
 SCF Done:  E(RB3LYP) =  -487.817637869     A.U. after   11 cycles
 SCF Done:  E(RB3LYP) =  -487.814555391     A.U. after   11 cycles
 SCF Done:  E(RB3LYP) =  -487.817855917     A.U. after   10 cycles
 SCF Done:  E(RB3LYP) =  -487.818764431     A.U. after   10 cycles
 SCF Done:  E(RB3LYP) =  -487.819133703     A.U. after   10 cycles
 SCF Done:  E(RB3LYP) =  -487.819239297     A.U. after   10 cycles
 SCF Done:  E(RB3LYP) =  -487.819396108     A.U. after    9 cycles
 SCF Done:  E(RB3LYP) =  -487.819530859     A.U. after    9 cycles
 SCF Done:  E(RB3LYP) =  -487.819466830     A.U. after   10 cycles
 SCF Done:  E(RB3LYP) =  -487.819711600     A.U. after    9 cycles
 SCF Done:  E(RB3LYP) =  -487.819718585     A.U. after    8 cycles
 SCF Done:  E(RB3LYP) =  -487.819719148     A.U. after    6 cycles
 SCF Done:  E(RB3LYP) =  -487.819720626     A.U. after    7 cycles
 SCF Done:  E(RB3LYP) =  -487.819721545     A.U. after    8 cycles
 SCF Done:  E(RB3LYP) =  -487.819721692     A.U. after    7 cycles
 Optimization completed.
    -- Stationary point found.
 Normal termination of Gaussian 16 at Wed Dec  9 17:47:06 2020.

 --------------------------------------------------------------------
 #N Geom=AllCheck Guess=TCheck SCRF=Check GenChk RB3LYP/6-31G(d) Freq
 --------------------------------------------------------------------

 Structure from the checkpoint file:  "JID_2567.chk"
 -------------------------------
 CID_149200477_JID_2567_neutraal
 -------------------------------
 Charge =  0 Multiplicity = 1

 SCF Done:  E(RB3LYP) =  -487.819721692     A.U. after    1 cycles

  Exact polarizability: 130.407  -1.705 118.400   1.678   2.767 108.845
 Approx polarizability: 168.944  -2.541 166.822   1.159   2.010 162.793

                      1                      2                      3
                      A                      A                      A
 Frequencies --     54.2163                97.5318               116.9399
 Red. masses --      1.9218                 2.7113                 2.0082
 Frc consts  --      0.0033                 0.0152                 0.0162
 IR Inten    --      0.3943                 0.1363                 0.0176

                      4                      5                      6
                      A                      A                      A
 Frequencies --    144.3947               162.0602               204.1830
 Red. masses --      2.4737                 1.5829                 1.3017
 Frc consts  --      0.0304                 0.0245                 0.0320
 IR Inten    --      0.4856                 0.0704                 0.0751

                      7                      8                      9
                      A                      A                      A
 Frequencies --    217.6176               242.9913               262.0504
 Red. masses --      1.6599                 1.9567                 2.1846
 Frc consts  --      0.0463                 0.0681                 0.0884
 IR Inten    --      0.4463                 2.0714                 0.0091

                     10                     11                     12
                      A                      A                      A
 Frequencies --    284.1639               302.6105               332.1171
 Red. masses --      2.9788                 1.3672                 1.1749
 Frc consts  --      0.1417                 0.0738                 0.0764
 IR Inten    --      0.2665                 0.0484                 0.6722

                     13                     14                     15
                      A                      A                      A
 Frequencies --    349.0053               362.9075               379.2070
 Red. masses --      2.1556                 2.5890                 2.0859
 Frc consts  --      0.1547                 0.2009                 0.1767
 IR Inten    --      1.9605                 1.4449                 0.6045

                     16                     17                     18
                      A                      A                      A
 Frequencies --    423.3831               443.5901               459.1293
 Red. masses --      1.9101                 1.9647                 2.2332
 Frc consts  --      0.2017                 0.2278                 0.2774
 IR Inten    --      1.2940                 0.7504                 0.8339

                     19                     20                     21
                      A                      A                      A
 Frequencies --    484.2452               506.4797               547.5482
 Red. masses --      2.2202                 3.0018                 3.2700
 Frc consts  --      0.3067                 0.4537                 0.5776
 IR Inten    --      0.1912                 4.0413                 2.2177

                     22                     23                     24
                      A                      A                      A
 Frequencies --    592.9123               725.4628               768.5048
 Red. masses --      2.8663                 1.9383                 1.3225
 Frc consts  --      0.5937                 0.6011                 0.4602
 IR Inten    --      2.6104                 7.1034                 5.3567

                     25                     26                     27
                      A                      A                      A
 Frequencies --    796.3309               814.3335               845.2574
 Red. masses --      1.4742                 2.2543                 2.1092
 Frc consts  --      0.5508                 0.8808                 0.8878
 IR Inten    --      2.2461                 2.8634                 5.5118

                     28                     29                     30
                      A                      A                      A
 Frequencies --    868.9533               896.3595               927.5104
 Red. masses --      2.2379                 2.1773                 2.0831
 Frc consts  --      0.9956                 1.0307                 1.0559
 IR Inten    --      1.7251                 0.1573                 4.9011

                     31                     32                     33
                      A                      A                      A
 Frequencies --    968.9909              1011.1541              1018.7594
 Red. masses --      1.8228                 2.0913                 1.6672
 Frc consts  --      1.0084                 1.2598                 1.0195
 IR Inten    --      2.1133                 7.6047                 0.7182

                     34                     35                     36
                      A                      A                      A
 Frequencies --   1048.4178              1049.4054              1054.1431
 Red. masses --      1.8163                 1.7294                 1.7553
 Frc consts  --      1.1762                 1.1221                 1.1492
 IR Inten    --      0.8237                19.1947                 0.9403

                     37                     38                     39
                      A                      A                      A
 Frequencies --   1070.6299              1080.4172              1098.1743
 Red. masses --      2.2457                 1.9359                 1.8003
 Frc consts  --      1.5166                 1.3314                 1.2792
 IR Inten    --      6.0736                11.2755                 3.1659

                     40                     41                     42
                      A                      A                      A
 Frequencies --   1113.4216              1125.4505              1151.0923
 Red. masses --      1.7101                 1.9005                 1.7189
 Frc consts  --      1.2491                 1.4183                 1.3419
 IR Inten    --      4.3071                20.8098                 2.8969

                     43                     44                     45
                      A                      A                      A
 Frequencies --   1163.8087              1175.3087              1205.9163
 Red. masses --      1.4550                 2.0567                 2.0819
 Frc consts  --      1.1611                 1.6739                 1.7838
 IR Inten    --     21.9056                 0.8408                 0.8593

                     46                     47                     48
                      A                      A                      A
 Frequencies --   1219.2651              1264.6563              1270.0304
 Red. masses --      1.9952                 1.8685                 1.5019
 Frc consts  --      1.7476                 1.7607                 1.4273
 IR Inten    --      2.1558                 1.4906                 1.1461

                     49                     50                     51
                      A                      A                      A
 Frequencies --   1311.6608              1323.5465              1343.1874
 Red. masses --      1.2984                 1.7535                 1.3236
 Frc consts  --      1.3161                 1.8098                 1.4069
 IR Inten    --      1.4598                10.5074                 6.8119

                     52                     53                     54
                      A                      A                      A
 Frequencies --   1365.9372              1378.7222              1385.9529
 Red. masses --      1.2996                 1.4507                 1.3506
 Frc consts  --      1.4286                 1.6247                 1.5286
 IR Inten    --      1.5536                 2.2706                 4.1197

                     55                     56                     57
                      A                      A                      A
 Frequencies --   1394.5646              1408.7870              1420.1675
 Red. masses --      1.2492                 1.3118                 1.3478
 Frc consts  --      1.4314                 1.5339                 1.6016
 IR Inten    --      5.1907                 6.5505                 2.6948

                     58                     59                     60
                      A                      A                      A
 Frequencies --   1425.3071              1434.3326              1441.7119
 Red. masses --      1.3583                 1.4378                 1.2372
 Frc consts  --      1.6258                 1.7428                 1.5151
 IR Inten    --      9.2927                13.5951                 2.9202

                     61                     62                     63
                      A                      A                      A
 Frequencies --   1442.6616              1449.3176              1482.7319
 Red. masses --      1.2321                 1.2204                 1.1358
 Frc consts  --      1.5109                 1.5103                 1.4712
 IR Inten    --      4.3572                 9.0116                 1.1329

                     64                     65                     66
                      A                      A                      A
 Frequencies --   1500.6810              1509.6761              1511.1032
 Red. masses --      1.0843                 1.0713                 1.0715
 Frc consts  --      1.4387                 1.4386                 1.4416
 IR Inten    --      4.6333                 1.2555                11.4695

                     67                     68                     69
                      A                      A                      A
 Frequencies --   1519.2117              1523.8668              1524.8795
 Red. masses --      1.0810                 1.0650                 1.0630
 Frc consts  --      1.4700                 1.4571                 1.4564
 IR Inten    --      3.0553                 7.0550                 2.9638

                     70                     71                     72
                      A                      A                      A
 Frequencies --   1525.9194              1535.8835              1540.5025
 Red. masses --      1.0703                 1.0541                 1.0521
 Frc consts  --      1.4683                 1.4650                 1.4711
 IR Inten    --      4.5870                 0.7918                 3.5125

                     73                     74                     75
                      A                      A                      A
 Frequencies --   1543.3790              1544.9372              1550.3481
 Red. masses --      1.0520                 1.0615                 1.0665
 Frc consts  --      1.4765                 1.4927                 1.5104
 IR Inten    --      7.7360                 5.9661                 4.2522

                     76                     77                     78
                      A                      A                      A
 Frequencies --   1552.1530              2989.0746              3005.9774
 Red. masses --      1.0540                 1.0524                 1.0666
 Frc consts  --      1.4962                 5.5402                 5.6783
 IR Inten    --      1.8728               108.9981                25.1966

                     79                     80                     81
                      A                      A                      A
 Frequencies --   3011.0247              3020.7198              3024.9924
 Red. masses --      1.0827                 1.0674                 1.0601
 Frc consts  --      5.7832                 5.7387                 5.7153
 IR Inten    --     21.6645                34.9167                20.9044

                     82                     83                     84
                      A                      A                      A
 Frequencies --   3039.4224              3045.0381              3048.5022
 Red. masses --      1.0689                 1.0415                 1.0435
 Frc consts  --      5.8179                 5.6896                 5.7139
 IR Inten    --     26.8806                42.2379                33.4034

                     85                     86                     87
                      A                      A                      A
 Frequencies --   3052.1968              3054.2931              3058.5284
 Red. masses --      1.0656                 1.0781                 1.0629
 Frc consts  --      5.8491                 5.9258                 5.8584
 IR Inten    --     56.3296                21.4230                34.0737

                     88                     89                     90
                      A                      A                      A
 Frequencies --   3060.3719              3072.0351              3077.4582
 Red. masses --      1.0800                 1.0955                 1.0952
 Frc consts  --      5.9595                 6.0912                 6.1110
 IR Inten    --     51.7032                39.3455                22.5169

                     91                     92                     93
                      A                      A                      A
 Frequencies --   3083.1407              3104.0421              3107.3116
 Red. masses --      1.0967                 1.0990                 1.1013
 Frc consts  --      6.1423                 6.2386                 6.2653
 IR Inten    --     39.9518                38.8135                49.4188

                     94                     95                     96
                      A                      A                      A
 Frequencies --   3108.4768              3110.8155              3130.3799
 Red. masses --      1.1013                 1.0988                 1.1011
 Frc consts  --      6.2699                 6.2652                 6.3575
 IR Inten    --     21.5783                73.1788                32.9137

                     97                     98                     99
                      A                      A                      A
 Frequencies --   3135.0637              3139.4307              3146.1203
 Red. masses --      1.0918                 1.0980                 1.0967
 Frc consts  --      6.3223                 6.3760                 6.3959
 IR Inten    --     22.8898                36.6340                43.2981

 - Thermochemistry -
 -------------------
 Temperature   298.150 Kelvin.  Pressure   1.00000 Atm.
 Atom     1 has atomic number  6 and mass  12.00000

 Molecular mass:   169.18305 amu.
 Principal axes and moments of inertia in atomic units:
                           1         2         3
     Eigenvalues --  1556.373012373.452922797.62431
           X            0.99975  -0.01726   0.01422
           Y            0.01712   0.99981   0.00981
           Z           -0.01439  -0.00956   0.99985
 This molecule is an asymmetric top.
 Rotational symmetry number  1.
 Warning -- assumption of classical behavior for rotation
           may cause significant error
 Rotational temperatures (Kelvin)      0.05565     0.03649     0.03096
 Rotational constants (GHZ):           1.15958     0.76039     0.64510
 Zero-point vibrational energy     868588.1 (Joules/Mol)
                                  207.59753 (Kcal/Mol)
 Warning -- explicit consideration of  22 degrees of freedom as
           vibrations may cause significant error
 Vibrational temperatures:     78.01   140.33   168.25   207.75   233.17
          (Kelvin)            293.77   313.10   349.61   377.03   408.85
                              435.39   477.84   502.14   522.14   545.59
                              609.15   638.23   660.58   696.72   728.71
                              787.80   853.07  1043.78  1105.71  1145.74
                             1171.64  1216.14  1250.23  1289.66  1334.48
                             1394.16  1454.83  1465.77  1508.44  1509.86
                             1516.68  1540.40  1554.48  1580.03  1601.97
                             1619.27  1656.17  1674.46  1691.01  1735.04
                             1754.25  1819.56  1827.29  1887.19  1904.29
                             1932.55  1965.28  1983.67  1994.08  2006.47
                             2026.93  2043.30  2050.70  2063.68  2074.30
                             2075.67  2085.24  2133.32  2159.15  2172.09
                             2174.14  2185.81  2192.50  2193.96  2195.46
                             2209.79  2216.44  2220.58  2222.82  2230.61
                             2233.20  4300.61  4324.93  4332.19  4346.14
                             4352.29  4373.05  4381.13  4386.11  4391.43
                             4394.45  4400.54  4403.19  4419.97  4427.78
                             4435.95  4466.02  4470.73  4472.40  4475.77
                             4503.92  4510.66  4516.94  4526.57

 Zero-point correction=                           0.330828 (Hartree/Particle)
 Thermal correction to Energy=                    0.344349
 Thermal correction to Enthalpy=                  0.345293
 Thermal correction to Gibbs Free Energy=         0.292353
 Sum of electronic and zero-point Energies=           -487.488894
 Sum of electronic and thermal Energies=              -487.475373
 Sum of electronic and thermal Enthalpies=            -487.474429
 Sum of electronic and thermal Free Energies=         -487.527369

                     E (Thermal)             CV                S
                      KCal/Mol        Cal/Mol-Kelvin    Cal/Mol-Kelvin
 Total                  216.082             53.541            111.422
 Electronic               0.000              0.000              0.000
 Translational            0.889              2.981             41.285
 Rotational               0.889              2.981             30.714
 Vibrational            214.305             47.579             39.422
 Vibration     1          0.596              1.976              4.657
 Vibration     2          0.603              1.951              3.503
 Vibration     3          0.608              1.935              3.150
 Vibration     4          0.616              1.909              2.745
 Vibration     5          0.622              1.889              2.526
 Vibration     6          0.640              1.834              2.095
 Vibration     7          0.646              1.814              1.979
 Vibration     8          0.659              1.774              1.781
 Vibration     9          0.669              1.742              1.648
 Vibration    10          0.683              1.703              1.508
 Vibration    11          0.694              1.669              1.402
 Vibration    12          0.714              1.611              1.250
 Vibration    13          0.726              1.577              1.171
 Vibration    14          0.737              1.549              1.110
 Vibration    15          0.749              1.514              1.042
 Vibration    16          0.786              1.419              0.881
 Vibration    17          0.803              1.375              0.815
 Vibration    18          0.817              1.341              0.769
 Vibration    19          0.840              1.285              0.699
 Vibration    20          0.862              1.236              0.642
 Vibration    21          0.903              1.145              0.549
 Vibration    22          0.950              1.047              0.462

                           ! Non-Optimized Parameters !
 Normal termination of Gaussian 16 at Wed Dec  9 17:58:38 2020.

 ----------------------------------------------------------------------
 # B3LYP/6-311++G(d,p) empiricaldispersion=gd3bj scf=xqc pop=npa geom=c
 heck
 ----------------------------------------------------------------------

 ---------------------------------------
 CID_149200477_JID_2567_Energie_neutraal
 ---------------------------------------
 Structure from the checkpoint file:  "JID_2567.chk"
 Charge =  0 Multiplicity = 1

 SCF Done:  E(RB3LYP) =  -487.952932966     A.U. after   13 cycles
 Normal termination of Gaussian 16 at Wed Dec  9 18:03:47 2020.

 ----------------------------------------------------------------------
 # B3LYP/6-311++G(d,p) empiricaldispersion=gd3bj scf=xqc pop=npa geom=c
 heck
 ----------------------------------------------------------------------

 -------------------------------------
 CID_149200477_JID_2567_Energie_kation
 -------------------------------------
 Structure from the checkpoint file:  "JID_2567.chk"
 Charge =  1 Multiplicity = 2

 SCF Done:  E(UB3LYP) =  -487.682156998     A.U. after   17 cycles
 Normal termination of Gaussian 16 at Wed Dec  9 18:14:27 2020.
 Gaussian 16:  ES64L-G16RevA.03 25-Dec-2016

 ----------------------------------------------------------------------
 # B3LYP/6-311++G(d,p) empiricaldispersion=gd3bj scf=xqc pop=npa geom=c
 heck
 ----------------------------------------------------------------------

 ------------------------------------
 CID_149200477_JID_2567_Energie_anion
 ------------------------------------
 Structure from the checkpoint file:  "JID_2567.chk"
 Charge = -1 Multiplicity = 2

                         Standard orientation:
 ---------------------------------------------------------------------
 Center     Atomic      Atomic             Coordinates (Angstroms)
 Number     Number       Type             X           Y           Z
 ---------------------------------------------------------------------
      1          6           0        3.446104   -0.419758   -0.265587
      2          6           0        2.058974   -1.044962   -0.084862
      3          6           0        0.884460   -0.174697   -0.611916
      4          6           0       -0.172499   -1.089943   -1.277605
      5          6           0       -0.949201   -1.903827   -0.233769
      6          7           0       -1.631669   -1.065919    0.745345
      7          6           0       -0.714266   -0.127445    1.371303
      8          6           0        0.217705    0.742597    0.469178
      9          6           0        1.254895    1.354057    1.435935
     10          6           0       -0.503169    1.988108   -0.154042
     11          6           0       -1.124970    1.961407   -1.555354
     12          6           0       -2.927765   -0.562018    0.336251
     13          1           0        3.633425   -0.197178   -1.323254
     14          1           0        4.232088   -1.104325    0.074021
     15          1           0        3.556876    0.514415    0.291673
     16          1           0        2.051043   -1.999785   -0.626103
     17          1           0        1.907099   -1.310265    0.967696
     18          1           0        1.301037    0.479932   -1.391116
     19          1           0       -0.880982   -0.503922   -1.866654
     20          1           0        0.330378   -1.767020   -1.980400
     21          1           0       -0.256314   -2.564525    0.307666
     22          1           0       -1.689573   -2.550142   -0.718799
     23          1           0       -0.057616   -0.724371    2.022042
     24          1           0       -1.287663    0.532247    2.033938
     25          1           0        1.989866    1.962770    0.899276
     26          1           0        0.748647    2.011626    2.154034
     27          1           0        1.794080    0.596587    2.012032
     28          1           0       -1.264783    2.322867    0.563701
     29          1           0        0.240270    2.795424   -0.180593
     30          1           0       -1.986493    1.295662   -1.641451
     31          1           0       -1.472615    2.970400   -1.806786
     32          1           0       -0.396107    1.672631   -2.319489
     33          1           0       -2.937544    0.067817   -0.568975
     34          1           0       -3.598836   -1.409548    0.149833
     35          1           0       -3.356216    0.029031    1.153108
 ---------------------------------------------------------------------

 SCF Done:  E(UB3LYP) =  -487.935390494     A.U. after   28 cycles

 The electronic state is 2-A.
 Alpha  occ. eigenvalues --  -14.19456 -10.08501 -10.08423 -10.08095 -10.07878
 Alpha  occ. eigenvalues --  -10.06848 -10.06192 -10.06180 -10.05582 -10.05542
 Alpha  occ. eigenvalues --  -10.05532 -10.05411  -0.82132  -0.72426  -0.67959
 Alpha  occ. eigenvalues --   -0.64655  -0.63400  -0.59402  -0.58340  -0.52647
 Alpha  occ. eigenvalues --   -0.52397  -0.49446  -0.47806  -0.41755  -0.38626
 Alpha  occ. eigenvalues --   -0.36431  -0.36244  -0.35370  -0.34856  -0.32877
 Alpha  occ. eigenvalues --   -0.32091  -0.30926  -0.30114  -0.29777  -0.29494
 Alpha  occ. eigenvalues --   -0.28217  -0.27013  -0.26354  -0.25541  -0.25491
 Alpha  occ. eigenvalues --   -0.24584  -0.23971  -0.23251  -0.22451  -0.21404
 Alpha  occ. eigenvalues --   -0.19967  -0.19348  -0.09837   0.04633
 Alpha virt. eigenvalues --    0.06668   0.07096   0.07460   0.08812   0.08948
 Alpha virt. eigenvalues --    0.09277   0.09779   0.10109   0.11238   0.11671
 Alpha virt. eigenvalues --    0.11901   0.12277   0.12332   0.12794   0.13984

  Beta  occ. eigenvalues --  -14.19456 -10.08488 -10.08407 -10.08064 -10.07878
  Beta  occ. eigenvalues --  -10.06838 -10.06174 -10.06165 -10.05553 -10.05529
  Beta  occ. eigenvalues --  -10.05512 -10.05384  -0.82122  -0.72406  -0.67931
  Beta  occ. eigenvalues --   -0.64622  -0.63363  -0.59357  -0.58300  -0.52584
  Beta  occ. eigenvalues --   -0.52346  -0.49389  -0.47757  -0.41716  -0.38589
  Beta  occ. eigenvalues --   -0.36410  -0.36220  -0.35345  -0.34823  -0.32842
  Beta  occ. eigenvalues --   -0.32061  -0.30896  -0.30080  -0.29742  -0.29465
  Beta  occ. eigenvalues --   -0.28184  -0.26989  -0.26314  -0.25514  -0.25450
  Beta  occ. eigenvalues --   -0.24546  -0.23942  -0.23221  -0.22422  -0.21380
  Beta  occ. eigenvalues --   -0.19934  -0.19322  -0.09824
  Beta virt. eigenvalues --    0.06718   0.07496   0.07840   0.08079   0.09320
  Beta virt. eigenvalues --    0.09468   0.09862   0.10162   0.10488   0.11646
  Beta virt. eigenvalues --    0.12129   0.12389   0.12583   0.12722   0.13175

 Mulliken charges and spin densities:
               1          2
     1  C    0.885147  -1.574290
     2  C   -0.429702   0.177581
     3  C   -0.369105   0.451602
     4  C    0.222635  -0.484202
     5  C   -0.638940   0.121344
     6  N   -0.137023   0.231384
     7  C    0.577948  -1.546510
     8  C    0.044874   0.867124
     9  C    0.477692  -1.021089
    10  C   -1.157892   0.714730
    11  C    1.025519  -1.554752
    12  C    0.625514  -0.946089
    13  H   -0.261067   0.395801
    14  H   -0.335906   0.472922
    15  H   -0.055449   0.185455
    16  H    0.011470   0.144039
    17  H    0.062202   0.084949
    18  H    0.423655  -0.191151
    19  H    0.353184  -0.236763
    20  H   -0.374222   0.539495
    21  H    0.016904   0.126386
    22  H   -0.342256   0.520902
    23  H    0.044010   0.131364
    24  H    0.126812   0.043914
    25  H    0.003684   0.146251
    26  H   -0.125412   0.272970
    27  H   -0.024575   0.163858
    28  H   -0.074194   0.224191
    29  H   -0.175522   0.334536
    30  H    0.062195   0.054199
    31  H   -0.417207   0.570114
    32  H   -0.378888   0.516588
    33  H   -0.145697   0.261720
    34  H   -0.292130   0.441003
    35  H   -0.228259   0.360422
 Sum of Mulliken charges =  -1.00000   1.00000

 Dipole moment (field-independent basis, Debye):
    X=              0.1914    Y=             -0.6483    Z=              1.6495  Tot=              1.7826
 Quadrupole moment (field-independent basis, Debye-Ang):
   XX=           -145.2311   YY=           -128.9397   ZZ=           -119.8365
   XY=              0.7706   XZ=              1.4432   YZ=              1.7540

 Summary of Natural Population Analysis:

                                       Natural Population
                Natural  -----------------------------------------------
    Atom  No    Charge         Core      Valence    Rydberg      Total
 -----------------------------------------------------------------------
      C    1   -0.28195      0.99966     2.27758    0.00470     3.28195
      C    2   -0.19275      0.99962     2.18385    0.00928     3.19275
      C    3   -0.10893      0.99956     2.09657    0.01280     3.10893
      C    4   -0.19863      0.99961     2.19011    0.00892     3.19863
      C    5   -0.08111      0.99961     2.07035    0.01115     3.08111
      N    6   -0.28387      0.99973     2.76944    0.01470     3.78387
      C    7   -0.07968      0.99956     2.06706    0.01306     3.07968
      C    8   -0.04561      0.99954     2.03265    0.01342     3.04561
      C    9   -0.28573      0.99963     2.27831    0.00779     3.28573
      C   10   -0.18695      0.99959     2.17662    0.01075     3.18695
      C   11   -0.28506      0.99965     2.28011    0.00529     3.28506
      C   12   -0.17086      0.99962     2.16310    0.00813     3.17086
      H   13    0.09597      0.00000     0.40283    0.00120     0.40403
      H   14    0.09696      0.00000     0.40207    0.00096     0.40304
      H   15    0.09701      0.00000     0.40182    0.00117     0.40299
      H   16    0.09577      0.00000     0.40289    0.00134     0.40423
      H   17    0.09513      0.00000     0.40346    0.00141     0.40487
      H   18    0.09875      0.00000     0.39928    0.00196     0.40125
      H   19    0.10036      0.00000     0.39787    0.00177     0.39964
      H   20    0.09751      0.00000     0.40123    0.00125     0.40249
      H   21    0.09050      0.00000     0.40807    0.00144     0.40950
      H   22    0.09668      0.00000     0.40227    0.00105     0.40332
      H   23    0.09167      0.00000     0.40676    0.00157     0.40833
      H   24    0.09706      0.00000     0.40181    0.00113     0.40294
      H   25    0.10110      0.00000     0.39775    0.00115     0.39890
      H   26    0.10007      0.00000     0.39896    0.00097     0.39993
      H   27    0.09928      0.00000     0.39980    0.00091     0.40072
      H   28    0.09562      0.00000     0.40312    0.00126     0.40438
      H   29    0.09606      0.00000     0.40250    0.00144     0.40394
      H   30    0.09376      0.00000     0.40475    0.00149     0.40624
      H   31    0.09987      0.00000     0.39912    0.00101     0.40013
      H   32    0.09714      0.00000     0.40165    0.00121     0.40286
      H   33    0.07767      0.00000     0.42068    0.00165     0.42233
      H   34    0.09278      0.00000     0.40590    0.00132     0.40722
      H   35    0.09442      0.00000     0.40445    0.00113     0.40558
 =======================================================================
   * Total *   -0.00000     11.99538    35.85481    0.14981    48.00000

 Normal termination of Gaussian 16 at Wed Dec  9 18:30:06 2020.
