 Gaussian 16, Revision A.03,

 -----------------------------------------------------------
 # opt freq B3LYP/6-31G(d) empiricaldispersion=gd3bj scf=xqc
 -----------------------------------------------------------

 ------------------------------
 CID_64287311_JID_3090_neutraal
 ------------------------------
 Symbolic Z-matrix:
 Charge =  0 Multiplicity = 1

 SCF Done:  E(RB3LYP) =  -602.654394316     A.U. after   15 cycles
 SCF Done:  E(RB3LYP) =  -602.658773784     A.U. after   12 cycles
 SCF Done:  E(RB3LYP) =  -602.659245810     A.U. after   11 cycles
 SCF Done:  E(RB3LYP) =  -602.659296855     A.U. after   10 cycles
 SCF Done:  E(RB3LYP) =  -602.659304231     A.U. after   10 cycles
 SCF Done:  E(RB3LYP) =  -602.659308492     A.U. after    9 cycles
 SCF Done:  E(RB3LYP) =  -602.659309903     A.U. after    9 cycles
 SCF Done:  E(RB3LYP) =  -602.659310476     A.U. after    9 cycles
 SCF Done:  E(RB3LYP) =  -602.659310879     A.U. after    9 cycles
 SCF Done:  E(RB3LYP) =  -602.659311308     A.U. after    9 cycles
 SCF Done:  E(RB3LYP) =  -602.659311624     A.U. after    9 cycles
 SCF Done:  E(RB3LYP) =  -602.659311745     A.U. after    8 cycles
 Optimization completed.
    -- Stationary point found.
 Normal termination of Gaussian 16 at Wed Dec  9 22:21:23 2020.

 --------------------------------------------------------------------
 #N Geom=AllCheck Guess=TCheck SCRF=Check GenChk RB3LYP/6-31G(d) Freq
 --------------------------------------------------------------------

 Structure from the checkpoint file:  "JID_3090.chk"
 ------------------------------
 CID_64287311_JID_3090_neutraal
 ------------------------------
 Charge =  0 Multiplicity = 1

 SCF Done:  E(RB3LYP) =  -602.659311745     A.U. after    1 cycles

  Exact polarizability: 177.557   8.491 112.707   0.000  -0.015  39.899
 Approx polarizability: 241.125  10.686 221.558  -0.006  -0.021  63.509

                      1                      2                      3
                      A                      A                      A
 Frequencies --     26.2571                88.9776               103.5934
 Red. masses --      5.7283                 6.3389                 4.5545
 Frc consts  --      0.0023                 0.0296                 0.0288
 IR Inten    --      0.6429                 4.0398                 3.8223

                      4                      5                      6
                      A                      A                      A
 Frequencies --    111.7811               204.1822               214.6157
 Red. masses --      3.1735                 3.4044                 4.4987
 Frc consts  --      0.0234                 0.0836                 0.1221
 IR Inten    --      0.3603                 0.1598                 0.9685

                      7                      8                      9
                      A                      A                      A
 Frequencies --    325.2657               348.3285               406.7824
 Red. masses --      4.0382                 8.0133                 4.1911
 Frc consts  --      0.2517                 0.5728                 0.4086
 IR Inten    --      0.5851                 0.4632                 0.0020

                     10                     11                     12
                      A                      A                      A
 Frequencies --    444.7524               508.6586               512.8137
 Red. masses --      4.9766                 7.0791                 3.3101
 Frc consts  --      0.5800                 1.0791                 0.5129
 IR Inten    --      1.8832                 1.0709                 0.0801

                     13                     14                     15
                      A                      A                      A
 Frequencies --    592.3479               644.5657               711.5584
 Red. masses --      2.1755                 7.9422                 3.9417
 Frc consts  --      0.4497                 1.9441                 1.1758
 IR Inten    --      0.5597                 8.8320                 1.1888

                     16                     17                     18
                      A                      A                      A
 Frequencies --    721.0128               768.4695               800.2661
 Red. masses --      5.3771                 6.3269                 4.4697
 Frc consts  --      1.6470                 2.2014                 1.6865
 IR Inten    --      8.8989                30.5042                33.6249

                     19                     20                     21
                      A                      A                      A
 Frequencies --    819.8174               845.4806               948.3001
 Red. masses --      1.6903                 3.9350                14.4382
 Frc consts  --      0.6693                 1.6573                 7.6499
 IR Inten    --      2.5599                 7.5997                34.8731

                     22                     23                     24
                      A                      A                      A
 Frequencies --    981.0999              1000.8334              1003.9210
 Red. masses --      1.3823                 1.3725                 1.4219
 Frc consts  --      0.7839                 0.8100                 0.8444
 IR Inten    --     24.1731                 0.0010                 0.0449

                     25                     26                     27
                      A                      A                      A
 Frequencies --   1004.2150              1011.9367              1022.4630
 Red. masses --      6.9623                 6.2545                 4.7720
 Frc consts  --      4.1367                 3.7736                 2.9393
 IR Inten    --      1.6538                 0.0582                24.7119

                     28                     29                     30
                      A                      A                      A
 Frequencies --   1025.4030              1096.7392              1111.1503
 Red. masses --      1.0724                 2.5494                 2.1894
 Frc consts  --      0.6644                 1.8067                 1.5927
 IR Inten    --     22.4327                 0.9536                 0.4453

                     31                     32                     33
                      A                      A                      A
 Frequencies --   1125.2895              1225.8141              1247.9365
 Red. masses --      1.4350                 4.4225                 4.5097
 Frc consts  --      1.0706                 3.9153                 4.1379
 IR Inten    --      1.7430                52.1167                61.5088

                     34                     35                     36
                      A                      A                      A
 Frequencies --   1269.5525              1303.8358              1343.4339
 Red. masses --      7.2646                 1.7460                 1.5225
 Frc consts  --      6.8986                 1.7488                 1.6190
 IR Inten    --      5.5879                 5.2754                 1.4380

                     37                     38                     39
                      A                      A                      A
 Frequencies --   1409.9881              1455.2456              1470.7655
 Red. masses --      3.2182                 1.9811                 1.5234
 Frc consts  --      3.7695                 2.4719                 1.9416
 IR Inten    --    107.8121                44.0688                19.8417

                     40                     41                     42
                      A                      A                      A
 Frequencies --   1487.0876              1551.0286              1609.9572
 Red. masses --      2.4238                 9.8656                 6.9568
 Frc consts  --      3.1580                13.9835                10.6240
 IR Inten    --     23.9111                12.2444                64.9340

                     43                     44                     45
                      A                      A                      A
 Frequencies --   1623.3820              1631.1596              1713.7661
 Red. masses --      7.9977                 5.3227                 4.5325
 Frc consts  --     12.4181                 8.3440                 7.8431
 IR Inten    --     43.1961               107.0201                 7.6122

                     46                     47                     48
                      A                      A                      A
 Frequencies --   3179.6385              3181.8866              3183.1419
 Red. masses --      1.0898                 1.0919                 1.0578
 Frc consts  --      6.4916                 6.5133                 6.3149
 IR Inten    --     18.3547                27.9396                 1.6335

                     49                     50                     51
                      A                      A                      A
 Frequencies --   3211.1300              3227.7552              3274.2609
 Red. masses --      1.0933                 1.0961                 1.1181
 Frc consts  --      6.6423                 6.7283                 7.0625
 IR Inten    --      4.2367                12.9341                 4.0434

 - Thermochemistry -
 -------------------
 Temperature   298.150 Kelvin.  Pressure   1.00000 Atm.
 Atom     1 has atomic number  6 and mass  12.00000

 Molecular mass:   174.05416 amu.
 Principal axes and moments of inertia in atomic units:
                           1         2         3
     Eigenvalues --   733.039954088.196394821.23600
           X            0.99996   0.00941   0.00000
           Y           -0.00941   0.99996  -0.00003
           Z           -0.00000   0.00003   1.00000
 This molecule is an asymmetric top.
 Rotational symmetry number  1.
 Warning -- assumption of classical behavior for rotation
           may cause significant error
 Rotational temperatures (Kelvin)      0.11816     0.02119     0.01797
 Rotational constants (GHZ):           2.46200     0.44145     0.37433
 Zero-point vibrational energy     359667.1 (Joules/Mol)
                                   85.96250 (Kcal/Mol)
 Warning -- explicit consideration of  13 degrees of freedom as
           vibrations may cause significant error
 Vibrational temperatures:     37.78   128.02   149.05   160.83   293.77
          (Kelvin)            308.78   467.98   501.17   585.27   639.90
                              731.85   737.82   852.26   927.39  1023.77
                             1037.38  1105.66  1151.40  1179.53  1216.46
                             1364.39  1411.58  1439.98  1444.42  1444.84
                             1455.95  1471.10  1475.33  1577.96  1598.70
                             1619.04  1763.67  1795.50  1826.60  1875.93
                             1932.90  2028.66  2093.77  2116.10  2139.59
                             2231.58  2316.37  2335.68  2346.87  2465.73
                             4574.79  4578.03  4579.83  4620.10  4644.02
                             4710.93

 Zero-point correction=                           0.136990 (Hartree/Particle)
 Thermal correction to Energy=                    0.147041
 Thermal correction to Enthalpy=                  0.147985
 Thermal correction to Gibbs Free Energy=         0.099623
 Sum of electronic and zero-point Energies=           -602.522322
 Sum of electronic and thermal Energies=              -602.512271
 Sum of electronic and thermal Enthalpies=            -602.511327
 Sum of electronic and thermal Free Energies=         -602.559689

                     E (Thermal)             CV                S
                      KCal/Mol        Cal/Mol-Kelvin    Cal/Mol-Kelvin
 Total                   92.269             37.296            101.786
 Electronic               0.000              0.000              0.000
 Translational            0.889              2.981             41.370
 Rotational               0.889              2.981             31.047
 Vibrational             90.492             31.335             29.369
 Vibration     1          0.593              1.985              6.094
 Vibration     2          0.602              1.957              3.682
 Vibration     3          0.605              1.946              3.386
 Vibration     4          0.607              1.940              3.238
 Vibration     5          0.640              1.834              2.095
 Vibration     6          0.645              1.819              2.004
 Vibration     7          0.709              1.625              1.283
 Vibration     8          0.726              1.579              1.174
 Vibration     9          0.772              1.455              0.938
 Vibration    10          0.804              1.372              0.812
 Vibration    11          0.864              1.231              0.637
 Vibration    12          0.868              1.222              0.627
 Vibration    13          0.950              1.048              0.463

                           ! Non-Optimized Parameters !
 Normal termination of Gaussian 16 at Wed Dec  9 22:24:50 2020.

 ----------------------------------------------------------------------
 # B3LYP/6-311++G(d,p) empiricaldispersion=gd3bj scf=xqc pop=npa geom=c
 heck
 ----------------------------------------------------------------------

 --------------------------------------
 CID_64287311_JID_3090_Energie_neutraal
 --------------------------------------
 Structure from the checkpoint file:  "JID_3090.chk"
 Charge =  0 Multiplicity = 1

 SCF Done:  E(RB3LYP) =  -602.814560212     A.U. after   15 cycles
 Normal termination of Gaussian 16 at Wed Dec  9 22:26:20 2020.

 ----------------------------------------------------------------------
 # B3LYP/6-311++G(d,p) empiricaldispersion=gd3bj scf=xqc pop=npa geom=c
 heck
 ----------------------------------------------------------------------

 ------------------------------------
 CID_64287311_JID_3090_Energie_kation
 ------------------------------------
 Structure from the checkpoint file:  "JID_3090.chk"
 Charge =  1 Multiplicity = 2

 SCF Done:  E(UB3LYP) =  -602.483564413     A.U. after   30 cycles
 Normal termination of Gaussian 16 at Wed Dec  9 22:30:15 2020.
 Gaussian 16:  ES64L-G16RevA.03 25-Dec-2016

 ----------------------------------------------------------------------
 # B3LYP/6-311++G(d,p) empiricaldispersion=gd3bj scf=xqc pop=npa geom=c
 heck
 ----------------------------------------------------------------------

 -----------------------------------
 CID_64287311_JID_3090_Energie_anion
 -----------------------------------
 Structure from the checkpoint file:  "JID_3090.chk"
 Charge = -1 Multiplicity = 2

                         Standard orientation:
 ---------------------------------------------------------------------
 Center     Atomic      Atomic             Coordinates (Angstroms)
 Number     Number       Type             X           Y           Z
 ---------------------------------------------------------------------
      1          6           0        4.069012    1.499985   -0.000191
      2          6           0        3.704084    0.213540    0.000711
      3          6           0        2.311045   -0.196290    0.000301
      4          7           0        1.229386    0.534350    0.000632
      5          6           0        0.232823   -0.411762   -0.000049
      6          7           0        0.655615   -1.661218   -0.000842
      7          8           0        2.045288   -1.522822   -0.000725
      8          6           0       -1.207689   -0.072463    0.000067
      9          7           0       -2.069944   -1.100271    0.000499
     10          6           0       -3.365005   -0.780126    0.000480
     11          6           0       -3.808849    0.541914    0.000060
     12          6           0       -2.820972    1.523671   -0.000394
     13          7           0       -1.517193    1.230658   -0.000420
     14          1           0        3.325229    2.290826   -0.001232
     15          1           0        5.115522    1.786351    0.000143
     16          1           0        4.432944   -0.591340    0.001709
     17          1           0       -4.067134   -1.611784    0.000838
     18          1           0       -4.864355    0.791326    0.000090
     19          1           0       -3.076261    2.581737   -0.000754
 ---------------------------------------------------------------------

 SCF Done:  E(UB3LYP) =  -602.837143373     A.U. after   25 cycles

 The electronic state is 2-A.
 Alpha  occ. eigenvalues --  -19.04247 -14.18635 -14.17936 -14.16933 -14.16023
 Alpha  occ. eigenvalues --  -10.10728 -10.09760 -10.09226 -10.08387 -10.07271
 Alpha  occ. eigenvalues --  -10.05125 -10.05114 -10.03637  -0.99952  -0.85146
 Alpha  occ. eigenvalues --   -0.77722  -0.75288  -0.71683  -0.66053  -0.63967
 Alpha  occ. eigenvalues --   -0.54319  -0.52870  -0.50214  -0.46139  -0.42761
 Alpha  occ. eigenvalues --   -0.40123  -0.37696  -0.36104  -0.33815  -0.32466
 Alpha  occ. eigenvalues --   -0.31240  -0.29539  -0.29203  -0.28444  -0.25553
 Alpha  occ. eigenvalues --   -0.24133  -0.19464  -0.19295  -0.18574  -0.18369
 Alpha  occ. eigenvalues --   -0.16254  -0.14302  -0.14201  -0.11356  -0.11171
 Alpha  occ. eigenvalues --    0.03590
 Alpha virt. eigenvalues --    0.07224   0.08031   0.08526   0.09043   0.10056
 Alpha virt. eigenvalues --    0.11602   0.11701   0.13470   0.15317   0.15551
 Alpha virt. eigenvalues --    0.16441   0.16960   0.17035   0.18017   0.18542

  Beta  occ. eigenvalues --  -19.03835 -14.18017 -14.18005 -14.16712 -14.16102
  Beta  occ. eigenvalues --  -10.10580 -10.09544 -10.09272 -10.08249 -10.07318
  Beta  occ. eigenvalues --  -10.05109 -10.04968 -10.03375  -0.99279  -0.84883
  Beta  occ. eigenvalues --   -0.77598  -0.75051  -0.71009  -0.65708  -0.63484
  Beta  occ. eigenvalues --   -0.53861  -0.52679  -0.49679  -0.45861  -0.42459
  Beta  occ. eigenvalues --   -0.39995  -0.37550  -0.35950  -0.32419  -0.32306
  Beta  occ. eigenvalues --   -0.31033  -0.29037  -0.28694  -0.28341  -0.25202
  Beta  occ. eigenvalues --   -0.23983  -0.18425  -0.17983  -0.17976  -0.17660
  Beta  occ. eigenvalues --   -0.16020  -0.13895  -0.13518  -0.11004  -0.09139
  Beta virt. eigenvalues --    0.08001   0.08535   0.09004   0.09322   0.09404
  Beta virt. eigenvalues --    0.10017   0.11566   0.11675   0.13418   0.15349
  Beta virt. eigenvalues --    0.15538   0.16952   0.17088   0.17861   0.17998

 Mulliken charges and spin densities:
               1          2
     1  C   -0.746306   0.259128
     2  C   -0.471564  -0.025383
     3  C   -0.082196   0.128469
     4  N   -0.096136  -0.037230
     5  C    0.727470  -0.049098
     6  N   -0.513809   0.299664
     7  O    0.173697   0.085852
     8  C   -0.722451   0.125576
     9  N   -0.028505   0.105765
    10  C    0.152050  -0.028678
    11  C   -0.339638   0.127540
    12  C    0.144837   0.092379
    13  N   -0.007143  -0.041925
    14  H    0.127860  -0.013197
    15  H    0.101877  -0.010644
    16  H    0.162476  -0.003339
    17  H    0.149672   0.001833
    18  H    0.119682  -0.008706
    19  H    0.148127  -0.008005
 Sum of Mulliken charges =  -1.00000   1.00000

 Dipole moment (field-independent basis, Debye):
    X=             -2.4175    Y=              1.4831    Z=              0.0009  Tot=              2.8362
 Quadrupole moment (field-independent basis, Debye-Ang):
   XX=            -96.0805   YY=            -94.0754   ZZ=            -81.5594
   XY=             -3.1311   XZ=              0.0033   YZ=             -0.0079

 Summary of Natural Population Analysis:

                                       Natural Population
                Natural  -----------------------------------------------
    Atom  No    Charge         Core      Valence    Rydberg      Total
 -----------------------------------------------------------------------
      C    1   -0.11858      0.99961     2.11141    0.00756     3.11858
      C    2   -0.13505      0.99954     2.12613    0.00937     3.13505
      C    3    0.26894      0.99961     1.71213    0.01932     2.73106
      N    4   -0.26996      0.99967     2.76179    0.00850     3.76996
      C    5    0.11559      0.99963     1.86546    0.01932     2.88441
      N    6    0.01702      0.99968     2.47106    0.01225     3.48298
      O    7   -0.14149      0.99986     3.13012    0.01151     4.14149
      C    8    0.23492      0.99945     1.74821    0.01742     2.76508
      N    9   -0.20453      0.99969     2.69394    0.01089     3.70453
      C   10    0.02742      0.99961     1.95800    0.01497     2.97258
      C   11   -0.13690      0.99956     2.12880    0.00854     3.13690
      C   12    0.05762      0.99961     1.92816    0.01461     2.94238
      N   13   -0.24427      0.99970     2.73403    0.01054     3.74427
      H   14    0.09559      0.00000     0.40317    0.00124     0.40441
      H   15    0.08066      0.00000     0.41832    0.00103     0.41934
      H   16    0.09634      0.00000     0.40254    0.00112     0.40366
      H   17    0.08202      0.00000     0.41669    0.00129     0.41798
      H   18    0.09457      0.00000     0.40421    0.00122     0.40543
      H   19    0.08008      0.00000     0.41864    0.00128     0.41992
 =======================================================================
   * Total *    0.00000     12.99521    31.83282    0.17197    45.00000

 Normal termination of Gaussian 16 at Wed Dec  9 22:33:30 2020.
