 Gaussian 16, Revision A.03,

 -----------------------------------------------------------
 # opt freq B3LYP/6-31G(d) empiricaldispersion=gd3bj scf=xqc
 -----------------------------------------------------------

 -------------------------------
 CID_105452217_JID_5713_neutraal
 -------------------------------
 Symbolic Z-matrix:
 Charge =  0 Multiplicity = 1

 SCF Done:  E(RB3LYP) =  -629.405726562     A.U. after   14 cycles
 SCF Done:  E(RB3LYP) =  -629.409138165     A.U. after   12 cycles
 SCF Done:  E(RB3LYP) =  -629.409668381     A.U. after   12 cycles
 SCF Done:  E(RB3LYP) =  -629.409939173     A.U. after   12 cycles
 SCF Done:  E(RB3LYP) =  -629.410004690     A.U. after   11 cycles
 SCF Done:  E(RB3LYP) =  -629.410068615     A.U. after   10 cycles
 SCF Done:  E(RB3LYP) =  -629.410082031     A.U. after   10 cycles
 SCF Done:  E(RB3LYP) =  -629.410084093     A.U. after    9 cycles
 SCF Done:  E(RB3LYP) =  -629.410085548     A.U. after    9 cycles
 SCF Done:  E(RB3LYP) =  -629.410086251     A.U. after    9 cycles
 SCF Done:  E(RB3LYP) =  -629.410086409     A.U. after    7 cycles
 SCF Done:  E(RB3LYP) =  -629.410086468     A.U. after    7 cycles
 Optimization completed.
    -- Stationary point found.
 Normal termination of Gaussian 16 at Thu Dec 10 16:36:16 2020.

 --------------------------------------------------------------------
 #N Geom=AllCheck Guess=TCheck SCRF=Check GenChk RB3LYP/6-31G(d) Freq
 --------------------------------------------------------------------

 Structure from the checkpoint file:  "JID_5713.chk"
 -------------------------------
 CID_105452217_JID_5713_neutraal
 -------------------------------
 Charge =  0 Multiplicity = 1

 SCF Done:  E(RB3LYP) =  -629.410086468     A.U. after    1 cycles

  Exact polarizability: 185.155  14.869 120.414  -5.474  20.416 107.999
 Approx polarizability: 283.610  25.893 187.509 -11.973  47.281 185.134

                      1                      2                      3
                      A                      A                      A
 Frequencies --     30.1424                49.3911                77.6611
 Red. masses --      3.8111                 3.8522                 4.7270
 Frc consts  --      0.0020                 0.0055                 0.0168
 IR Inten    --      0.8979                 0.0556                 0.5254

                      4                      5                      6
                      A                      A                      A
 Frequencies --     92.4191               107.4784               160.7120
 Red. masses --      5.2064                 3.7616                 2.5171
 Frc consts  --      0.0262                 0.0256                 0.0383
 IR Inten    --      1.3314                 1.0036                 8.1012

                      7                      8                      9
                      A                      A                      A
 Frequencies --    215.7289               265.4789               287.5957
 Red. masses --      3.3490                 1.2952                 3.8663
 Frc consts  --      0.0918                 0.0538                 0.1884
 IR Inten    --      4.6086                57.9008                 4.6114

                     10                     11                     12
                      A                      A                      A
 Frequencies --    318.6555               340.1939               408.1258
 Red. masses --      4.8276                 3.4328                 4.0225
 Frc consts  --      0.2888                 0.2341                 0.3948
 IR Inten    --      2.4425                 3.3208                 3.1880

                     13                     14                     15
                      A                      A                      A
 Frequencies --    414.8631               436.2851               503.4885
 Red. masses --      2.8807                 2.2780                 4.3736
 Frc consts  --      0.2921                 0.2555                 0.6532
 IR Inten    --      1.8544                 9.9851                 3.4659

                     16                     17                     18
                      A                      A                      A
 Frequencies --    550.5472               589.0860               621.6025
 Red. masses --      3.2364                 3.8417                 3.9756
 Frc consts  --      0.5780                 0.7855                 0.9051
 IR Inten    --      2.1775                 3.5432                 2.1041

                     19                     20                     21
                      A                      A                      A
 Frequencies --    635.9075               649.3417               715.7663
 Red. masses --      6.2900                 6.4908                 1.8092
 Frc consts  --      1.4986                 1.6125                 0.5461
 IR Inten    --      0.2850                18.4240                26.4907

                     22                     23                     24
                      A                      A                      A
 Frequencies --    734.0423               771.2045               826.6191
 Red. masses --      5.6054                 2.0094                 3.6718
 Frc consts  --      1.7795                 0.7041                 1.4782
 IR Inten    --      1.1294                36.0206                 4.2187

                     25                     26                     27
                      A                      A                      A
 Frequencies --    840.7980               863.4312               871.4477
 Red. masses --      4.5228                 1.2586                 1.7907
 Frc consts  --      1.8838                 0.5528                 0.8012
 IR Inten    --     21.3247                 0.6700                49.5671

                     28                     29                     30
                      A                      A                      A
 Frequencies --    890.2862               926.9641               938.3569
 Red. masses --      1.4001                 2.1940                 1.4195
 Frc consts  --      0.6538                 1.1107                 0.7364
 IR Inten    --     57.9195                 4.9338                 3.4883

                     31                     32                     33
                      A                      A                      A
 Frequencies --    949.6426               974.6636               998.4664
 Red. masses --      1.5375                 1.3431                 1.2573
 Frc consts  --      0.8170                 0.7517                 0.7385
 IR Inten    --      2.3050                 1.7125                 0.1905

                     34                     35                     36
                      A                      A                      A
 Frequencies --   1000.0880              1022.7826              1052.3089
 Red. masses --      1.4704                 6.0677                 3.2932
 Frc consts  --      0.8665                 3.7397                 2.1486
 IR Inten    --      0.2749                 1.1566                 7.9099

                     37                     38                     39
                      A                      A                      A
 Frequencies --   1062.4559              1085.8841              1112.7617
 Red. masses --      2.2165                 2.5804                 1.6613
 Frc consts  --      1.4742                 1.7927                 1.2120
 IR Inten    --     20.8583                 1.5379                 1.5395

                     40                     41                     42
                      A                      A                      A
 Frequencies --   1115.3146              1151.3086              1183.8691
 Red. masses --      2.0098                 3.4806                 1.3990
 Frc consts  --      1.4730                 2.7182                 1.1552
 IR Inten    --      8.4946                 2.8892                 4.9479

                     43                     44                     45
                      A                      A                      A
 Frequencies --   1195.0914              1209.4420              1216.5354
 Red. masses --      1.0994                 1.7261                 1.2261
 Frc consts  --      0.9251                 1.4876                 1.0691
 IR Inten    --      0.0153                 2.0441                 4.9269

                     46                     47                     48
                      A                      A                      A
 Frequencies --   1225.9920              1270.9239              1314.4542
 Red. masses --      2.7923                 2.2892                 1.9461
 Frc consts  --      2.4728                 2.1786                 1.9811
 IR Inten    --      8.2510                 2.8850                10.3242

                     49                     50                     51
                      A                      A                      A
 Frequencies --   1337.5936              1353.3211              1360.1467
 Red. masses --      2.8584                 2.2558                 1.3805
 Frc consts  --      3.0131                 2.4341                 1.5047
 IR Inten    --      1.5057                 2.6465                 1.2649

                     52                     53                     54
                      A                      A                      A
 Frequencies --   1368.3017              1381.1008              1437.1163
 Red. masses --      1.8201                 1.4033                 1.4575
 Frc consts  --      2.0077                 1.5771                 1.7736
 IR Inten    --      2.2406                 1.8551                25.0727

                     55                     56                     57
                      A                      A                      A
 Frequencies --   1446.5933              1485.2087              1494.3124
 Red. masses --      1.9090                 2.1404                 2.2587
 Frc consts  --      2.3536                 2.7818                 2.9717
 IR Inten    --     38.9410                50.1498                12.1098

                     58                     59                     60
                      A                      A                      A
 Frequencies --   1516.7274              1541.7884              1548.1627
 Red. masses --      1.1349                 1.0911                 2.3929
 Frc consts  --      1.5382                 1.5281                 3.3791
 IR Inten    --     15.4585                 3.6572                 2.7628

                     61                     62                     63
                      A                      A                      A
 Frequencies --   1588.2399              1624.8170              1642.1202
 Red. masses --      6.9763                 5.2930                 5.6408
 Frc consts  --     10.3683                 8.2330                 8.9620
 IR Inten    --     69.0773               115.0854                 1.6241

                     64                     65                     66
                      A                      A                      A
 Frequencies --   1666.3970              1696.4950              2984.9765
 Red. masses --      5.5993                 1.0895                 1.0715
 Frc consts  --      9.1609                 1.8474                 5.6251
 IR Inten    --      0.5976                32.3607                54.6349

                     67                     68                     69
                      A                      A                      A
 Frequencies --   3074.1617              3086.4062              3138.1884
 Red. masses --      1.0751                 1.0815                 1.0975
 Frc consts  --      5.9864                 6.0702                 6.3679
 IR Inten    --      9.6225                56.1985                18.5012

                     70                     71                     72
                      A                      A                      A
 Frequencies --   3172.7027              3186.2378              3187.9155
 Red. masses --      1.0905                 1.0851                 1.0914
 Frc consts  --      6.4678                 6.4904                 6.5349
 IR Inten    --     25.1270                 0.6746                34.3616

                     73                     74                     75
                      A                      A                      A
 Frequencies --   3195.2592              3205.3134              3213.5413
 Red. masses --      1.0883                 1.0920                 1.0950
 Frc consts  --      6.5464                 6.6100                 6.6624
 IR Inten    --      6.7059                27.9161                21.6298

                     76                     77                     78
                      A                      A                      A
 Frequencies --   3219.9165              3471.1795              3554.8486
 Red. masses --      1.0955                 1.0500                 1.0920
 Frc consts  --      6.6918                 7.4544                 8.1303
 IR Inten    --      6.7612                 0.7771                 0.3420

 - Thermochemistry -
 -------------------
 Temperature   298.150 Kelvin.  Pressure   1.00000 Atm.
 Atom     1 has atomic number  6 and mass  12.00000

 Molecular mass:   199.11095 amu.
 Principal axes and moments of inertia in atomic units:
                           1         2         3
     Eigenvalues --  1939.547753908.791074886.17649
           X            0.99988  -0.01545   0.00165
           Y            0.01543   0.99982   0.01063
           Z           -0.00182  -0.01061   0.99994
 This molecule is an asymmetric top.
 Rotational symmetry number  1.
 Warning -- assumption of classical behavior for rotation
           may cause significant error
 Rotational temperatures (Kelvin)      0.04466     0.02216     0.01773
 Rotational constants (GHZ):           0.93050     0.46171     0.36936
 Zero-point vibrational energy     612815.2 (Joules/Mol)
                                  146.46634 (Kcal/Mol)
 Warning -- explicit consideration of  17 degrees of freedom as
           vibrations may cause significant error
 Vibrational temperatures:     43.37    71.06   111.74   132.97   154.64
          (Kelvin)            231.23   310.39   381.96   413.79   458.47
                              489.46   587.20   596.90   627.72   724.41
                              792.11   847.56   894.35   914.93   934.26
                             1029.83  1056.12  1109.59  1189.32  1209.72
                             1242.28  1253.82  1280.92  1333.69  1350.09
                             1366.32  1402.32  1436.57  1438.90  1471.56
                             1514.04  1528.64  1562.35  1601.02  1604.69
                             1656.48  1703.32  1719.47  1740.12  1750.32
                             1763.93  1828.58  1891.21  1924.50  1947.13
                             1956.95  1968.68  1987.10  2067.69  2081.33
                             2136.88  2149.98  2182.23  2218.29  2227.46
                             2285.12  2337.75  2362.64  2397.57  2440.88
                             4294.72  4423.03  4440.65  4515.15  4564.81
                             4584.29  4586.70  4597.27  4611.73  4623.57
                             4632.74  4994.25  5114.63

 Zero-point correction=                           0.233409 (Hartree/Particle)
 Thermal correction to Energy=                    0.246158
 Thermal correction to Enthalpy=                  0.247102
 Thermal correction to Gibbs Free Energy=         0.192842
 Sum of electronic and zero-point Energies=           -629.176677
 Sum of electronic and thermal Energies=              -629.163929
 Sum of electronic and thermal Enthalpies=            -629.162985
 Sum of electronic and thermal Free Energies=         -629.217245

                     E (Thermal)             CV                S
                      KCal/Mol        Cal/Mol-Kelvin    Cal/Mol-Kelvin
 Total                  154.466             49.062            114.200
 Electronic               0.000              0.000              0.000
 Translational            0.889              2.981             41.771
 Rotational               0.889              2.981             31.983
 Vibrational            152.689             43.100             40.447
 Vibration     1          0.594              1.984              5.820
 Vibration     2          0.595              1.978              4.842
 Vibration     3          0.599              1.964              3.949
 Vibration     4          0.602              1.955              3.608
 Vibration     5          0.606              1.943              3.314
 Vibration     6          0.622              1.891              2.541
 Vibration     7          0.645              1.817              1.995
 Vibration     8          0.671              1.736              1.625
 Vibration     9          0.685              1.697              1.488
 Vibration    10          0.705              1.638              1.317
 Vibration    11          0.720              1.595              1.211
 Vibration    12          0.773              1.453              0.933
 Vibration    13          0.778              1.438              0.910
 Vibration    14          0.797              1.391              0.838
 Vibration    15          0.859              1.242              0.649
 Vibration    16          0.906              1.138              0.543
 Vibration    17          0.946              1.055              0.469

 Optimization completed.
    -- Stationary point found.
 Normal termination of Gaussian 16 at Thu Dec 10 16:46:14 2020.

 ----------------------------------------------------------------------
 # B3LYP/6-311++G(d,p) empiricaldispersion=gd3bj scf=xqc pop=npa geom=c
 heck
 ----------------------------------------------------------------------

 ---------------------------------------
 CID_105452217_JID_5713_Energie_neutraal
 ---------------------------------------
 Structure from the checkpoint file:  "JID_5713.chk"
 Charge =  0 Multiplicity = 1

 SCF Done:  E(RB3LYP) =  -629.579907656     A.U. after   15 cycles
 Normal termination of Gaussian 16 at Thu Dec 10 16:51:08 2020.

 ----------------------------------------------------------------------
 # B3LYP/6-311++G(d,p) empiricaldispersion=gd3bj scf=xqc pop=npa geom=c
 heck
 ----------------------------------------------------------------------

 -------------------------------------
 CID_105452217_JID_5713_Energie_kation
 -------------------------------------
 Structure from the checkpoint file:  "JID_5713.chk"
 Charge =  1 Multiplicity = 2

 SCF Done:  E(UB3LYP) =  -629.270885647     A.U. after   26 cycles
 Normal termination of Gaussian 16 at Thu Dec 10 17:02:16 2020.
 Gaussian 16:  ES64L-G16RevA.03 25-Dec-2016

 ----------------------------------------------------------------------
 # B3LYP/6-311++G(d,p) empiricaldispersion=gd3bj scf=xqc pop=npa geom=c
 heck
 ----------------------------------------------------------------------

 ------------------------------------
 CID_105452217_JID_5713_Energie_anion
 ------------------------------------
 Structure from the checkpoint file:  "JID_5713.chk"
 Charge = -1 Multiplicity = 2

                         Standard orientation:
 ---------------------------------------------------------------------
 Center     Atomic      Atomic             Coordinates (Angstroms)
 Number     Number       Type             X           Y           Z
 ---------------------------------------------------------------------
      1          6           0        3.824498    0.076874   -0.065205
      2          6           0        3.151436   -0.478633   -1.155064
      3          6           0        1.788564   -0.753120   -1.069143
      4          6           0        1.074790   -0.454187    0.099777
      5          6           0        1.761463    0.087767    1.194545
      6          6           0        3.128258    0.348783    1.113229
      7          6           0       -0.378564   -0.765968    0.157619
      8          7           0       -0.720962   -1.996598   -0.268721
      9          6           0       -2.013520   -2.320545   -0.230432
     10          7           0       -3.022307   -1.551634    0.188366
     11          6           0       -2.672141   -0.320794    0.577509
     12          6           0       -1.357219    0.156108    0.586749
     13          6           0       -1.092816    1.609403    0.904371
     14          6           0       -0.841184    2.434625   -0.369844
     15          7           0       -2.026950    2.411074   -1.230783
     16          1           0        4.888231    0.287090   -0.130433
     17          1           0        3.690442   -0.704457   -2.070762
     18          1           0        1.260983   -1.204685   -1.902871
     19          1           0        1.233098    0.271750    2.124534
     20          1           0        3.650396    0.757599    1.973548
     21          1           0       -2.272058   -3.319192   -0.577006
     22          1           0       -3.482093    0.337062    0.889363
     23          1           0       -1.969964    2.025386    1.411303
     24          1           0       -0.238378    1.729399    1.573218
     25          1           0       -0.659048    3.474808   -0.076358
     26          1           0        0.080085    2.068936   -0.853841
     27          1           0       -1.888679    3.036010   -2.022650
     28          1           0       -2.142870    1.478515   -1.624759
 ---------------------------------------------------------------------

 SCF Done:  E(UB3LYP) =  -629.587332782     A.U. after   31 cycles

 The electronic state is 2-A.
 Alpha  occ. eigenvalues --  -14.18159 -14.15140 -14.14539 -10.07971 -10.07683
 Alpha  occ. eigenvalues --  -10.05772 -10.04968 -10.04802 -10.04556 -10.04296
 Alpha  occ. eigenvalues --  -10.03926 -10.03705 -10.03598 -10.03468 -10.03385
 Alpha  occ. eigenvalues --   -0.82648  -0.77178  -0.73771  -0.71689  -0.66946
 Alpha  occ. eigenvalues --   -0.62023  -0.61501  -0.59053  -0.51808  -0.50642
 Alpha  occ. eigenvalues --   -0.47451  -0.46305  -0.45168  -0.39616  -0.38234
 Alpha  occ. eigenvalues --   -0.37540  -0.35707  -0.34106  -0.32050  -0.31820
 Alpha  occ. eigenvalues --   -0.31179  -0.29424  -0.27645  -0.27193  -0.26146
 Alpha  occ. eigenvalues --   -0.25727  -0.24708  -0.24287  -0.23437  -0.21493
 Alpha  occ. eigenvalues --   -0.21138  -0.17008  -0.14705  -0.13739  -0.13503
 Alpha  occ. eigenvalues --   -0.12741  -0.10862  -0.09820   0.04702
 Alpha virt. eigenvalues --    0.07689   0.08465   0.09248   0.10290   0.10319
 Alpha virt. eigenvalues --    0.10999   0.11333   0.11474   0.11632   0.12701
 Alpha virt. eigenvalues --    0.13000   0.13416   0.13644   0.14346   0.14765

  Beta  occ. eigenvalues --  -14.18143 -14.14988 -14.14126 -10.07996 -10.07676
  Beta  occ. eigenvalues --  -10.05681 -10.04802 -10.04603 -10.04546 -10.04317
  Beta  occ. eigenvalues --  -10.03937 -10.03584 -10.03378 -10.03367 -10.03286
  Beta  occ. eigenvalues --   -0.82162  -0.77146  -0.73193  -0.71340  -0.66701
  Beta  occ. eigenvalues --   -0.61656  -0.61306  -0.58843  -0.51419  -0.50270
  Beta  occ. eigenvalues --   -0.47342  -0.46153  -0.44888  -0.39479  -0.38186
  Beta  occ. eigenvalues --   -0.37366  -0.35495  -0.33982  -0.31934  -0.31575
  Beta  occ. eigenvalues --   -0.31057  -0.29355  -0.27098  -0.26883  -0.25978
  Beta  occ. eigenvalues --   -0.25305  -0.24611  -0.24088  -0.22884  -0.21356
  Beta  occ. eigenvalues --   -0.20883  -0.15164  -0.14299  -0.13491  -0.12680
  Beta  occ. eigenvalues --   -0.12258  -0.09894  -0.09371
  Beta virt. eigenvalues --    0.07632   0.08429   0.09198   0.10098   0.10265
  Beta virt. eigenvalues --    0.10403   0.10962   0.11308   0.11626   0.11929
  Beta virt. eigenvalues --    0.12930   0.13342   0.13499   0.14182   0.14446

 Mulliken charges and spin densities:
               1          2
     1  C   -0.378419   0.157930
     2  C   -0.348186  -0.036739
     3  C   -0.251085   0.139228
     4  C    1.380593  -0.000424
     5  C   -0.819046   0.141310
     6  C   -0.293544  -0.023875
     7  C   -0.755011   0.130909
     8  N   -0.025835   0.080957
     9  C    0.063207  -0.006943
    10  N   -0.166969   0.186164
    11  C   -0.515643   0.054743
    12  C    0.397997   0.034347
    13  C   -0.119772   0.112716
    14  C   -0.395710  -0.252081
    15  N   -0.416721   0.000672
    16  H    0.103629  -0.011416
    17  H    0.108903   0.016810
    18  H    0.141854   0.015164
    19  H    0.158394  -0.010604
    20  H    0.119587   0.007298
    21  H    0.148739  -0.001541
    22  H    0.123380  -0.004069
    23  H    0.179839  -0.009939
    24  H    0.026155   0.044383
    25  H    0.033628   0.101317
    26  H    0.137456   0.008804
    27  H    0.107875   0.118076
    28  H    0.254703   0.006803
 Sum of Mulliken charges =  -1.00000   1.00000

 Dipole moment (field-independent basis, Debye):
    X=              2.3782    Y=              2.9334    Z=             -0.0081  Tot=              3.7763
 Quadrupole moment (field-independent basis, Debye-Ang):
   XX=           -134.0467   YY=           -114.6756   ZZ=            -95.4078
   XY=             -1.8122   XZ=              0.7901   YZ=              2.5306

 Summary of Natural Population Analysis:

                                       Natural Population
                Natural  -----------------------------------------------
    Atom  No    Charge         Core      Valence    Rydberg      Total
 -----------------------------------------------------------------------
      C    1   -0.07079      0.99957     2.06196    0.00926     3.07079
      C    2   -0.11659      0.99957     2.10802    0.00900     3.11659
      C    3   -0.07003      0.99953     2.06166    0.00884     3.07003
      C    4   -0.01706      0.99950     2.00547    0.01209     3.01706
      C    5   -0.07517      0.99952     2.06808    0.00756     3.07517
      C    6   -0.12103      0.99957     2.11231    0.00915     3.12103
      C    7    0.17754      0.99946     1.80707    0.01592     2.82246
      N    8   -0.23544      0.99969     2.72467    0.01108     3.73544
      C    9    0.12402      0.99967     1.85709    0.01921     2.87598
      N   10   -0.20816      0.99971     2.69658    0.01187     3.70816
      C   11    0.04912      0.99955     1.93697    0.01436     2.95088
      C   12   -0.05908      0.99946     2.04781    0.01181     3.05908
      C   13   -0.20190      0.99961     2.19014    0.01215     3.20190
      C   14   -0.08805      0.99964     2.07709    0.01133     3.08805
      N   15   -0.42726      0.99977     2.91698    0.01050     3.92726
      H   16    0.08786      0.00000     0.41108    0.00106     0.41214
      H   17    0.09083      0.00000     0.40768    0.00148     0.40917
      H   18    0.10162      0.00000     0.39714    0.00124     0.39838
      H   19    0.09450      0.00000     0.40438    0.00113     0.40550
      H   20    0.09130      0.00000     0.40767    0.00103     0.40870
      H   21    0.07161      0.00000     0.42706    0.00133     0.42839
      H   22    0.08169      0.00000     0.41695    0.00136     0.41831
      H   23    0.09713      0.00000     0.40161    0.00126     0.40287
      H   24    0.10494      0.00000     0.39397    0.00109     0.39506
      H   25    0.08338      0.00000     0.41539    0.00123     0.41662
      H   26    0.08719      0.00000     0.41120    0.00161     0.41281
      H   27    0.16980      0.00000     0.32876    0.00144     0.33020
      H   28    0.17803      0.00000     0.32018    0.00178     0.32197
 =======================================================================
   * Total *   -0.00000     14.99382    37.81500    0.19119    53.00000

 Normal termination of Gaussian 16 at Thu Dec 10 17:15:09 2020.
