 Gaussian 16, Revision A.03,

 -----------------------------------------------------------
 # opt freq B3LYP/6-31G(d) empiricaldispersion=gd3bj scf=xqc
 -----------------------------------------------------------

 ------------------------------
 CID_20098834_JID_1132_neutraal
 ------------------------------
 Symbolic Z-matrix:
 Charge =  0 Multiplicity = 1

 SCF Done:  E(RB3LYP) =  -871.704777955     A.U. after   16 cycles
 SCF Done:  E(RB3LYP) =  -871.708955136     A.U. after   13 cycles
 SCF Done:  E(RB3LYP) =  -871.709449578     A.U. after   12 cycles
 SCF Done:  E(RB3LYP) =  -871.709656148     A.U. after   12 cycles
 SCF Done:  E(RB3LYP) =  -871.709851273     A.U. after   12 cycles
 SCF Done:  E(RB3LYP) =  -871.710162013     A.U. after   12 cycles
 SCF Done:  E(RB3LYP) =  -871.710838911     A.U. after   13 cycles
 SCF Done:  E(RB3LYP) =  -871.711490963     A.U. after   12 cycles
 SCF Done:  E(RB3LYP) =  -871.711793678     A.U. after   12 cycles
 SCF Done:  E(RB3LYP) =  -871.711907243     A.U. after   12 cycles
 SCF Done:  E(RB3LYP) =  -871.712066098     A.U. after    9 cycles
 SCF Done:  E(RB3LYP) =  -871.712066961     A.U. after    9 cycles
 SCF Done:  E(RB3LYP) =  -871.712067081     A.U. after    8 cycles
 SCF Done:  E(RB3LYP) =  -871.712067127     A.U. after    7 cycles
 SCF Done:  E(RB3LYP) =  -871.712067179     A.U. after    8 cycles
 SCF Done:  E(RB3LYP) =  -871.712067202     A.U. after    7 cycles
 Optimization completed.
    -- Stationary point found.
 Normal termination of Gaussian 16 at Tue Dec  8 19:16:15 2020.

 --------------------------------------------------------------------
 #N Geom=AllCheck Guess=TCheck SCRF=Check GenChk RB3LYP/6-31G(d) Freq
 --------------------------------------------------------------------

 Structure from the checkpoint file:  "JID_1132.chk"
 ------------------------------
 CID_20098834_JID_1132_neutraal
 ------------------------------
 Charge =  0 Multiplicity = 1

 SCF Done:  E(RB3LYP) =  -871.712067202     A.U. after    1 cycles

  Exact polarizability: 134.579   3.099 111.613  -3.295   1.019  54.384
 Approx polarizability: 196.980  11.080 201.680  -8.976   3.833  84.480

                      1                      2                      3
                      A                      A                      A
 Frequencies --     37.0046                60.2312               119.6748
 Red. masses --      5.3667                 3.2500                 4.5585
 Frc consts  --      0.0043                 0.0069                 0.0385
 IR Inten    --      1.1208                 2.6694                 0.9848

                      4                      5                      6
                      A                      A                      A
 Frequencies --    141.8796               157.2239               202.8029
 Red. masses --      4.3659                 3.9121                 3.0670
 Frc consts  --      0.0518                 0.0570                 0.0743
 IR Inten    --      3.3496                 0.7600                 8.0597

                      7                      8                      9
                      A                      A                      A
 Frequencies --    252.2087               256.0876               306.5305
 Red. masses --      3.4108                 4.7910                 1.6089
 Frc consts  --      0.1278                 0.1851                 0.0891
 IR Inten    --      5.8499                17.7868                41.9934

                     10                     11                     12
                      A                      A                      A
 Frequencies --    347.4697               356.0438               461.9992
 Red. masses --      2.8792                 1.3277                 4.5944
 Frc consts  --      0.2048                 0.0992                 0.5778
 IR Inten    --     12.3686                15.6607                 9.5079

                     13                     14                     15
                      A                      A                      A
 Frequencies --    489.8213               531.5645               575.4664
 Red. masses --      5.6820                 4.1509                 4.1429
 Frc consts  --      0.8032                 0.6910                 0.8083
 IR Inten    --      4.4887                23.9188                12.8922

                     16                     17                     18
                      A                      A                      A
 Frequencies --    597.0314               634.0794               670.0950
 Red. masses --      3.4814                 3.0799                 1.6101
 Frc consts  --      0.7311                 0.7296                 0.4260
 IR Inten    --     35.0855                 4.9192               131.6666

                     19                     20                     21
                      A                      A                      A
 Frequencies --    742.8198               751.3283               816.4034
 Red. masses --      6.4935                 5.8560                 1.2439
 Frc consts  --      2.1110                 1.9477                 0.4885
 IR Inten    --     17.4664                12.8477                35.3905

                     22                     23                     24
                      A                      A                      A
 Frequencies --    855.0184               873.5096               887.8208
 Red. masses --      1.3887                 1.9252                 1.9660
 Frc consts  --      0.5981                 0.8655                 0.9130
 IR Inten    --     49.4528                90.6415                11.0917

                     25                     26                     27
                      A                      A                      A
 Frequencies --    917.6752               962.3946              1022.0796
 Red. masses --      1.8494                 2.9772                 1.8030
 Frc consts  --      0.9176                 1.6246                 1.1097
 IR Inten    --    191.3345                53.3405                14.5436

                     28                     29                     30
                      A                      A                      A
 Frequencies --   1060.5912              1084.8914              1173.5564
 Red. masses --      3.4612                 2.5302                 1.6110
 Frc consts  --      2.2939                 1.7546                 1.3072
 IR Inten    --     26.1810                 4.2821                11.4548

                     31                     32                     33
                      A                      A                      A
 Frequencies --   1195.9669              1224.0030              1241.8045
 Red. masses --      1.2200                 2.0121                 1.8989
 Frc consts  --      1.0281                 1.7761                 1.7253
 IR Inten    --      1.6292                20.8964                 5.0035

                     34                     35                     36
                      A                      A                      A
 Frequencies --   1322.8707              1340.6895              1388.2867
 Red. masses --      1.3375                 1.2403                 3.0636
 Frc consts  --      1.3791                 1.3136                 3.4789
 IR Inten    --      8.5749                31.0471               109.9468

                     37                     38                     39
                      A                      A                      A
 Frequencies --   1401.3043              1458.3469              1465.6483
 Red. masses --      2.4649                 1.4532                 2.1077
 Frc consts  --      2.8518                 1.8209                 2.6676
 IR Inten    --    130.4790                50.7633                19.3568

                     40                     41                     42
                      A                      A                      A
 Frequencies --   1489.4612              1534.2061              1607.0407
 Red. masses --      5.1373                 1.1029                 5.1549
 Frc consts  --      6.7150                 1.5295                 7.8438
 IR Inten    --    104.2625                 1.0412                14.3989

                     43                     44                     45
                      A                      A                      A
 Frequencies --   1693.7732              1726.2434              1743.9034
 Red. masses --      1.1000                 1.0666                 8.2281
 Frc consts  --      1.8592                 1.8726                14.7433
 IR Inten    --     34.3669                33.6086               238.0544

                     46                     47                     48
                      A                      A                      A
 Frequencies --   2950.4676              3042.9351              3240.6113
 Red. masses --      1.0743                 1.0863                 1.0913
 Frc consts  --      5.5100                 5.9265                 6.7521
 IR Inten    --     72.7956                32.0439                 7.4149

                     49                     50                     51
                      A                      A                      A
 Frequencies --   3280.9942              3457.7946              3473.6480
 Red. masses --      1.0930                 1.0457                 1.0500
 Frc consts  --      6.9325                 7.3662                 7.4645
 IR Inten    --      2.7367                 1.8685                 0.7764

                     52                     53                     54
                      A                      A                      A
 Frequencies --   3548.8884              3562.4444              3586.0186
 Red. masses --      1.0978                 1.0928                 1.0768
 Frc consts  --      8.1464                 8.1710                 8.1582
 IR Inten    --      1.8000                 0.4466                39.2417

 - Thermochemistry -
 -------------------
 Temperature   298.150 Kelvin.  Pressure   1.00000 Atm.
 Atom     1 has atomic number  6 and mass  12.00000

 Molecular mass:   171.04663 amu.
 Principal axes and moments of inertia in atomic units:
                           1         2         3
     Eigenvalues --  1025.625503090.183184027.22491
           X            0.99999  -0.00011   0.00494
           Y            0.00011   1.00000  -0.00078
           Z           -0.00494   0.00078   0.99999
 This molecule is an asymmetric top.
 Rotational symmetry number  1.
 Warning -- assumption of classical behavior for rotation
           may cause significant error
 Rotational temperatures (Kelvin)      0.08445     0.02803     0.02151
 Rotational constants (GHZ):           1.75965     0.58402     0.44814
 Zero-point vibrational energy     414641.6 (Joules/Mol)
                                   99.10171 (Kcal/Mol)
 Warning -- explicit consideration of  16 degrees of freedom as
           vibrations may cause significant error
 Vibrational temperatures:     53.24    86.66   172.19   204.13   226.21
          (Kelvin)            291.79   362.87   368.45   441.03   499.93
                              512.27   664.71   704.74   764.80   827.97
                              859.00   912.30   964.12  1068.75  1080.99
                             1174.62  1230.18  1256.79  1277.38  1320.33
                             1384.67  1470.54  1525.95  1560.92  1688.49
                             1720.73  1761.07  1786.68  1903.32  1928.95
                             1997.43  2016.16  2098.24  2108.74  2143.00
                             2207.38  2312.17  2436.96  2483.68  2509.09
                             4245.06  4378.10  4662.52  4720.62  4975.00
                             4997.80  5106.06  5125.56  5159.48

 Zero-point correction=                           0.157929 (Hartree/Particle)
 Thermal correction to Energy=                    0.169119
 Thermal correction to Enthalpy=                  0.170063
 Thermal correction to Gibbs Free Energy=         0.119961
 Sum of electronic and zero-point Energies=           -871.554139
 Sum of electronic and thermal Energies=              -871.542949
 Sum of electronic and thermal Enthalpies=            -871.542004
 Sum of electronic and thermal Free Energies=         -871.592107

                     E (Thermal)             CV                S
                      KCal/Mol        Cal/Mol-Kelvin    Cal/Mol-Kelvin
 Total                  106.123             40.901            105.449
 Electronic               0.000              0.000              0.000
 Translational            0.889              2.981             41.318
 Rotational               0.889              2.981             30.924
 Vibrational            104.346             34.939             33.207
 Vibration     1          0.594              1.982              5.413
 Vibration     2          0.597              1.973              4.450
 Vibration     3          0.609              1.933              3.106
 Vibration     4          0.615              1.911              2.778
 Vibration     5          0.621              1.895              2.583
 Vibration     6          0.639              1.836              2.108
 Vibration     7          0.664              1.759              1.715
 Vibration     8          0.666              1.753              1.688
 Vibration     9          0.697              1.661              1.381
 Vibration    10          0.725              1.580              1.178
 Vibration    11          0.732              1.563              1.139
 Vibration    12          0.820              1.334              0.760
 Vibration    13          0.846              1.273              0.684
 Vibration    14          0.887              1.180              0.584
 Vibration    15          0.932              1.084              0.494
 Vibration    16          0.955              1.038              0.455

 Optimization completed.
    -- Stationary point found.
 Normal termination of Gaussian 16 at Tue Dec  8 19:19:52 2020.

 ----------------------------------------------------------------------
 # B3LYP/6-311++G(d,p) empiricaldispersion=gd3bj scf=xqc pop=npa geom=c
 heck
 ----------------------------------------------------------------------

 --------------------------------------
 CID_20098834_JID_1132_Energie_neutraal
 --------------------------------------
 Structure from the checkpoint file:  "JID_1132.chk"
 Charge =  0 Multiplicity = 1

 SCF Done:  E(RB3LYP) =  -871.890484375     A.U. after   15 cycles
 Normal termination of Gaussian 16 at Tue Dec  8 19:21:34 2020.

 ----------------------------------------------------------------------
 # B3LYP/6-311++G(d,p) empiricaldispersion=gd3bj scf=xqc pop=npa geom=c
 heck
 ----------------------------------------------------------------------

 ------------------------------------
 CID_20098834_JID_1132_Energie_kation
 ------------------------------------
 Structure from the checkpoint file:  "JID_1132.chk"
 Charge =  1 Multiplicity = 2

 SCF Done:  E(UB3LYP) =  -871.576719227     A.U. after   32 cycles
 Normal termination of Gaussian 16 at Tue Dec  8 19:26:33 2020.
 Gaussian 16:  ES64L-G16RevA.03 25-Dec-2016

 ----------------------------------------------------------------------
 # B3LYP/6-311++G(d,p) empiricaldispersion=gd3bj scf=xqc pop=npa geom=c
 heck
 ----------------------------------------------------------------------

 -----------------------------------
 CID_20098834_JID_1132_Energie_anion
 -----------------------------------
 Structure from the checkpoint file:  "JID_1132.chk"
 Charge = -1 Multiplicity = 2

                         Standard orientation:
 ---------------------------------------------------------------------
 Center     Atomic      Atomic             Coordinates (Angstroms)
 Number     Number       Type             X           Y           Z
 ---------------------------------------------------------------------
      1          6           0        0.266793    0.772320    0.093345
      2          6           0       -0.686902   -0.222732    0.033379
      3         16           0        0.063979   -1.781758   -0.205968
      4          6           0        1.632025   -1.065859   -0.245579
      5          6           0        1.600588    0.296012   -0.067871
      6          6           0        2.822938    1.180124   -0.060141
      7          7           0        4.023049    0.408327    0.269877
      8          6           0       -2.159045   -0.255826    0.189114
      9          8           0       -2.750553   -1.323452    0.333172
     10          7           0       -2.871620    0.925012    0.179835
     11          7           0       -2.465393    2.167554   -0.340936
     12          1           0        0.043093    1.815949    0.273302
     13          1           0        2.517419   -1.667237   -0.396685
     14          1           0        2.973412    1.605034   -1.062169
     15          1           0        2.633359    2.039022    0.609454
     16          1           0        4.847462    0.999781    0.190411
     17          1           0        3.973808    0.102289    1.240462
     18          1           0       -3.873093    0.774958    0.145339
     19          1           0       -1.932296    2.669947    0.365460
     20          1           0       -1.863054    2.025513   -1.150376
 ---------------------------------------------------------------------

 SCF Done:  E(UB3LYP) =  -871.893410285     A.U. after   32 cycles

 The electronic state is 2-A.
 Alpha  occ. eigenvalues --  -88.72611 -18.94511 -14.22909 -14.22888 -14.18475
 Alpha  occ. eigenvalues --  -10.13034 -10.08277 -10.05657 -10.04516 -10.04437
 Alpha  occ. eigenvalues --  -10.03779  -7.81249  -5.77540  -5.77171  -5.76875
 Alpha  occ. eigenvalues --   -0.90841  -0.85428  -0.77676  -0.73750  -0.67728
 Alpha  occ. eigenvalues --   -0.61899  -0.59905  -0.53517  -0.49746  -0.43568
 Alpha  occ. eigenvalues --   -0.40739  -0.40164  -0.39213  -0.38351  -0.36037
 Alpha  occ. eigenvalues --   -0.33504  -0.30394  -0.28928  -0.27927  -0.26732
 Alpha  occ. eigenvalues --   -0.25306  -0.24255  -0.22725  -0.20397  -0.18074
 Alpha  occ. eigenvalues --   -0.13905  -0.13541  -0.12561  -0.11828  -0.10143
 Alpha  occ. eigenvalues --    0.04489
 Alpha virt. eigenvalues --    0.06639   0.08055   0.09683   0.09944   0.10670
 Alpha virt. eigenvalues --    0.11564   0.11781   0.13136   0.14448   0.15152
 Alpha virt. eigenvalues --    0.15614   0.15825   0.16581   0.16750   0.17727

  Beta  occ. eigenvalues --  -88.72556 -18.94333 -14.22880 -14.22858 -14.18450
  Beta  occ. eigenvalues --  -10.12861 -10.08249 -10.05533 -10.04550 -10.04198
  Beta  occ. eigenvalues --  -10.03592  -7.81200  -5.77512  -5.77148  -5.76697
  Beta  occ. eigenvalues --   -0.90562  -0.85268  -0.77617  -0.73484  -0.67604
  Beta  occ. eigenvalues --   -0.61741  -0.59407  -0.53269  -0.49321  -0.43358
  Beta  occ. eigenvalues --   -0.40546  -0.40063  -0.39085  -0.38275  -0.35869
  Beta  occ. eigenvalues --   -0.33360  -0.30230  -0.28712  -0.27032  -0.26582
  Beta  occ. eigenvalues --   -0.25130  -0.24128  -0.21979  -0.20141  -0.17944
  Beta  occ. eigenvalues --   -0.13808  -0.12975  -0.12354  -0.10729  -0.09084
  Beta virt. eigenvalues --    0.07199   0.08254   0.09415   0.09955   0.10110
  Beta virt. eigenvalues --    0.10658   0.11769   0.11863   0.13334   0.14479
  Beta virt. eigenvalues --    0.15239   0.15622   0.16266   0.16711   0.16884

 Mulliken charges and spin densities:
               1          2
     1  C    0.017252   0.674272
     2  C    0.419383  -0.440346
     3  S   -0.597620   0.057530
     4  C    0.137668   0.619272
     5  C   -0.942651   0.115055
     6  C    0.880999  -1.654438
     7  N   -0.474536   0.135972
     8  C    0.234483   0.013558
     9  O   -0.394416   0.064724
    10  N   -0.315353   0.038140
    11  N   -0.352978  -0.053529
    12  H    0.033124   0.044452
    13  H    0.193886   0.044379
    14  H    0.017439   0.130238
    15  H   -0.485808   0.644710
    16  H   -0.084217   0.309182
    17  H    0.084238   0.116627
    18  H    0.300758  -0.000105
    19  H    0.135389   0.103756
    20  H    0.192957   0.036550
 Sum of Mulliken charges =  -1.00000   1.00000

 Dipole moment (field-independent basis, Debye):
    X=             -1.0355    Y=              1.4175    Z=             -1.1103  Tot=              2.0771
 Quadrupole moment (field-independent basis, Debye-Ang):
   XX=           -127.0752   YY=            -98.5495   ZZ=            -86.0894
   XY=            -10.8708   XZ=              1.3934   YZ=             -1.8570

 Summary of Natural Population Analysis:

                                       Natural Population
                Natural  -----------------------------------------------
    Atom  No    Charge         Core      Valence    Rydberg      Total
 -----------------------------------------------------------------------
      C    1   -0.08505      0.99946     2.07328    0.01231     3.08505
      C    2   -0.13617      0.99948     2.12281    0.01389     3.13617
      S    3    0.23856      4.99943     2.74007    0.02195     7.76144
      C    4   -0.13475      0.99947     2.12461    0.01067     3.13475
      C    5   -0.08212      0.99948     2.06974    0.01290     3.08212
      C    6   -0.08820      0.99959     2.07654    0.01207     3.08820
      N    7   -0.42137      0.99978     2.91069    0.01090     3.92137
      C    8    0.33754      0.99957     1.64025    0.02264     2.66246
      O    9   -0.31476      0.99988     3.30946    0.00541     4.31476
      N   10   -0.23567      0.99967     2.72248    0.01353     3.73567
      N   11   -0.32277      0.99978     2.81210    0.01090     3.82277
      H   12    0.09498      0.00000     0.40347    0.00155     0.40502
      H   13    0.10785      0.00000     0.39094    0.00122     0.39215
      H   14    0.09008      0.00000     0.40862    0.00129     0.40992
      H   15    0.08143      0.00000     0.41635    0.00222     0.41857
      H   16    0.17326      0.00000     0.32461    0.00213     0.32674
      H   17    0.17262      0.00000     0.32539    0.00199     0.32738
      H   18    0.18099      0.00000     0.31614    0.00286     0.31901
      H   19    0.16953      0.00000     0.32791    0.00256     0.33047
      H   20    0.17402      0.00000     0.32359    0.00239     0.32598
 =======================================================================
   * Total *   -0.00000     14.99558    29.83904    0.16538    45.00000

 Normal termination of Gaussian 16 at Tue Dec  8 19:31:36 2020.
