 Gaussian 16, Revision A.03,

 -----------------------------------------------------------
 # opt freq B3LYP/6-31G(d) empiricaldispersion=gd3bj scf=xqc
 -----------------------------------------------------------

 ------------------------------
 CID_67393867_JID_7993_neutraal
 ------------------------------
 Symbolic Z-matrix:
 Charge =  0 Multiplicity = 1

 SCF Done:  E(RB3LYP) =  -750.124811412     A.U. after   14 cycles
 SCF Done:  E(RB3LYP) =  -750.127579677     A.U. after   12 cycles
 SCF Done:  E(RB3LYP) =  -750.127047214     A.U. after   12 cycles
 SCF Done:  E(RB3LYP) =  -750.128872501     A.U. after   12 cycles
 SCF Done:  E(RB3LYP) =  -750.129839409     A.U. after   12 cycles
 SCF Done:  E(RB3LYP) =  -750.130204082     A.U. after   11 cycles
 SCF Done:  E(RB3LYP) =  -750.130273133     A.U. after   11 cycles
 SCF Done:  E(RB3LYP) =  -750.130308706     A.U. after   11 cycles
 SCF Done:  E(RB3LYP) =  -750.130320567     A.U. after   10 cycles
 SCF Done:  E(RB3LYP) =  -750.130324367     A.U. after    8 cycles
 SCF Done:  E(RB3LYP) =  -750.130325086     A.U. after    7 cycles
 SCF Done:  E(RB3LYP) =  -750.130325377     A.U. after    7 cycles
 SCF Done:  E(RB3LYP) =  -750.130325431     A.U. after    6 cycles
 Optimization completed.
    -- Stationary point found.
 Normal termination of Gaussian 16 at Fri Dec 11 13:31:47 2020.

 --------------------------------------------------------------------
 #N Geom=AllCheck Guess=TCheck SCRF=Check GenChk RB3LYP/6-31G(d) Freq
 --------------------------------------------------------------------

 Structure from the checkpoint file:  "JID_7993.chk"
 ------------------------------
 CID_67393867_JID_7993_neutraal
 ------------------------------
 Charge =  0 Multiplicity = 1

 SCF Done:  E(RB3LYP) =  -750.130325431     A.U. after    1 cycles

  Exact polarizability: 186.010 -24.325 131.006   5.133   6.516 137.574
 Approx polarizability: 254.621 -43.028 191.430  10.081  21.404 237.186

                      1                      2                      3
                      A                      A                      A
 Frequencies --     30.7603                37.0278                56.0875
 Red. masses --      4.0601                 4.0590                 3.7277
 Frc consts  --      0.0023                 0.0033                 0.0069
 IR Inten    --      0.0807                 0.2711                 0.1449

                      4                      5                      6
                      A                      A                      A
 Frequencies --     80.2613               103.6858               128.5572
 Red. masses --      2.4602                 3.9289                 3.7132
 Frc consts  --      0.0093                 0.0249                 0.0362
 IR Inten    --      1.3966                 4.5831                 0.9511

                      7                      8                      9
                      A                      A                      A
 Frequencies --    162.6523               197.8058               241.0047
 Red. masses --      4.0063                 3.1759                 2.9852
 Frc consts  --      0.0624                 0.0732                 0.1022
 IR Inten    --      0.2978                 2.0078                 1.6345

                     10                     11                     12
                      A                      A                      A
 Frequencies --    251.8408               281.2003               304.4601
 Red. masses --      1.3124                 2.1795                 2.5199
 Frc consts  --      0.0490                 0.1015                 0.1376
 IR Inten    --      1.7984                 0.4806                 0.9223

                     13                     14                     15
                      A                      A                      A
 Frequencies --    328.3710               349.2162               406.2123
 Red. masses --      2.5001                 3.3475                 4.1696
 Frc consts  --      0.1588                 0.2405                 0.4054
 IR Inten    --      4.2675                 0.2789                 2.8477

                     16                     17                     18
                      A                      A                      A
 Frequencies --    415.9740               425.1826               465.5777
 Red. masses --      3.3324                 2.3145                 3.5083
 Frc consts  --      0.3397                 0.2465                 0.4481
 IR Inten    --      1.7451                 1.5662                 0.8835

                     19                     20                     21
                      A                      A                      A
 Frequencies --    472.3660               478.3613               492.6863
 Red. masses --      3.4842                 2.4115                 4.5543
 Frc consts  --      0.4580                 0.3251                 0.6514
 IR Inten    --      0.9346                 5.6838                 3.6455

                     22                     23                     24
                      A                      A                      A
 Frequencies --    538.6739               555.6571               629.9022
 Red. masses --      3.7508                 3.4920                 3.4710
 Frc consts  --      0.6412                 0.6352                 0.8114
 IR Inten    --      4.9721                 2.1909                 2.7899

                     25                     26                     27
                      A                      A                      A
 Frequencies --    656.0287               705.3583               716.0339
 Red. masses --      2.6793                 2.2425                 4.5434
 Frc consts  --      0.6794                 0.6574                 1.3725
 IR Inten    --      7.2417                 1.7759                 1.7874

                     28                     29                     30
                      A                      A                      A
 Frequencies --    736.5318               770.7334               787.9807
 Red. masses --      3.3009                 5.3039                 1.1966
 Frc consts  --      1.0550                 1.8563                 0.4377
 IR Inten    --      7.5201                 6.6180                 5.3448

                     31                     32                     33
                      A                      A                      A
 Frequencies --    809.4848               822.4391               856.5425
 Red. masses --      1.3004                 1.4012                 1.8485
 Frc consts  --      0.5020                 0.5584                 0.7990
 IR Inten    --     26.8523                14.0028                 5.0160

                     34                     35                     36
                      A                      A                      A
 Frequencies --    887.5886               898.8405               911.5650
 Red. masses --      1.6855                 3.0947                 2.5925
 Frc consts  --      0.7824                 1.4731                 1.2693
 IR Inten    --      5.5265                10.7802                26.7391

                     37                     38                     39
                      A                      A                      A
 Frequencies --    926.6350               935.0516               956.4453
 Red. masses --      3.2324                 1.3017                 2.5873
 Frc consts  --      1.6353                 0.6706                 1.3945
 IR Inten    --     31.5442                 0.6341                11.9060

                     40                     41                     42
                      A                      A                      A
 Frequencies --    959.9158               989.4234              1031.4264
 Red. masses --      2.4318                 2.2753                 1.8011
 Frc consts  --      1.3202                 1.3123                 1.1289
 IR Inten    --      9.4560                11.1204                 8.6906

                     43                     44                     45
                      A                      A                      A
 Frequencies --   1058.7221              1067.1838              1073.0233
 Red. masses --      1.8719                 1.5172                 1.5786
 Frc consts  --      1.2362                 1.0181                 1.0709
 IR Inten    --      8.8258                13.1249                15.7652

                     46                     47                     48
                      A                      A                      A
 Frequencies --   1087.8759              1100.5090              1114.7957
 Red. masses --      3.4544                 3.2599                 1.9014
 Frc consts  --      2.4087                 2.3262                 1.3923
 IR Inten    --     13.0289                75.2206                35.8999

                     49                     50                     51
                      A                      A                      A
 Frequencies --   1133.6379              1138.4474              1159.1331
 Red. masses --      1.1268                 1.9902                 1.5550
 Frc consts  --      0.8532                 1.5198                 1.2310
 IR Inten    --      1.8088                 2.4149                 9.2646

                     52                     53                     54
                      A                      A                      A
 Frequencies --   1162.2478              1184.5217              1197.8281
 Red. masses --      1.3530                 2.3670                 1.4572
 Frc consts  --      1.0768                 1.9568                 1.2319
 IR Inten    --      9.5971                35.0116                 7.1076

                     55                     56                     57
                      A                      A                      A
 Frequencies --   1203.8615              1229.0395              1239.1467
 Red. masses --      1.3794                 1.7817                 1.9926
 Frc consts  --      1.1778                 1.5857                 1.8027
 IR Inten    --      4.2350                10.3769                20.5328

                     58                     59                     60
                      A                      A                      A
 Frequencies --   1265.3292              1276.7214              1282.6479
 Red. masses --      1.5483                 1.2901                 2.2307
 Frc consts  --      1.4605                 1.2389                 2.1622
 IR Inten    --     13.9614                18.5236                13.1500

                     61                     62                     63
                      A                      A                      A
 Frequencies --   1301.7148              1313.1089              1333.2460
 Red. masses --      1.4805                 1.4119                 3.1847
 Frc consts  --      1.4781                 1.4343                 3.3353
 IR Inten    --     42.8347                 1.7449               234.4157

                     64                     65                     66
                      A                      A                      A
 Frequencies --   1352.8575              1373.7906              1409.8186
 Red. masses --      2.0409                 2.8491                 1.4455
 Frc consts  --      2.2008                 3.1681                 1.6927
 IR Inten    --     43.1874                40.9941                10.2987

                     67                     68                     69
                      A                      A                      A
 Frequencies --   1410.9519              1416.3219              1429.0105
 Red. masses --      1.3629                 1.3253                 1.4373
 Frc consts  --      1.5986                 1.5663                 1.7293
 IR Inten    --     23.6060                28.6161                13.3053

                     70                     71                     72
                      A                      A                      A
 Frequencies --   1443.3796              1480.8121              1483.8304
 Red. masses --      1.2844                 1.4078                 1.8961
 Frc consts  --      1.5765                 1.8188                 2.4598
 IR Inten    --     10.9526                 8.2132                20.0232

                     73                     74                     75
                      A                      A                      A
 Frequencies --   1490.5422              1506.1387              1516.3968
 Red. masses --      1.1379                 1.1151                 1.1137
 Frc consts  --      1.4895                 1.4903                 1.5089
 IR Inten    --      2.6071                 8.4185                 2.8574

                     76                     77                     78
                      A                      A                      A
 Frequencies --   1521.7050              1522.9232              1527.3379
 Red. masses --      1.1029                 1.1084                 1.1675
 Frc consts  --      1.5047                 1.5146                 1.6047
 IR Inten    --      2.3189                20.5839                 4.9110

                     79                     80                     81
                      A                      A                      A
 Frequencies --   1538.4503              1552.0596              1559.8450
 Red. masses --      1.3554                 1.0917                 2.8879
 Frc consts  --      1.8902                 1.5494                 4.1400
 IR Inten    --     11.3326                 5.4089               176.7654

                     82                     83                     84
                      A                      A                      A
 Frequencies --   1643.0904              1678.9582              2962.1050
 Red. masses --      7.4728                 6.6032                 1.0605
 Frc consts  --     11.8866                10.9669                 5.4821
 IR Inten    --     38.2150                 3.0846                59.4122

                     85                     86                     87
                      A                      A                      A
 Frequencies --   3021.5628              3033.3361              3034.5193
 Red. masses --      1.0656                 1.0702                 1.0664
 Frc consts  --      5.7320                 5.8015                 5.7855
 IR Inten    --     14.5005                78.2182                62.4830

                     88                     89                     90
                      A                      A                      A
 Frequencies --   3044.9110              3072.1099              3077.2265
 Red. masses --      1.0651                 1.0977                 1.0736
 Frc consts  --      5.8184                 6.1037                 5.9899
 IR Inten    --     59.6498                 3.3266                55.0545

                     91                     92                     93
                      A                      A                      A
 Frequencies --   3091.4429              3123.2247              3129.7727
 Red. masses --      1.0969                 1.1000                 1.1004
 Frc consts  --      6.1762                 6.3221                 6.3509
 IR Inten    --     43.8046                20.5493                28.3571

                     94                     95                     96
                      A                      A                      A
 Frequencies --   3130.7248              3147.7826              3157.3403
 Red. masses --      1.0972                 1.0553                 1.0570
 Frc consts  --      6.3362                 6.1606                 6.2080
 IR Inten    --     45.7693                32.5483                 9.7444

                     97                     98                     99
                      A                      A                      A
 Frequencies --   3166.6678              3185.2774              3197.2641
 Red. masses --      1.0884                 1.0880                 1.0903
 Frc consts  --      6.4306                 6.5039                 6.5665
 IR Inten    --     10.3198                12.5485                 7.1894

                    100                    101                    102
                      A                      A                      A
 Frequencies --   3211.9355              3221.3898              3240.5688
 Red. masses --      1.0934                 1.1171                 1.1148
 Frc consts  --      6.6460                 6.8304                 6.8974
 IR Inten    --      8.2280                 6.3851                17.2886

 - Thermochemistry -
 -------------------
 Temperature   298.150 Kelvin.  Pressure   1.00000 Atm.
 Atom     1 has atomic number  6 and mass  12.00000

 Molecular mass:   233.14158 amu.
 Principal axes and moments of inertia in atomic units:
                           1         2         3
     Eigenvalues --  2097.650766047.208966469.43847
           X            0.99997  -0.00673   0.00380
           Y            0.00674   0.99997  -0.00260
           Z           -0.00378   0.00263   0.99999
 This molecule is an asymmetric top.
 Rotational symmetry number  1.
 Warning -- assumption of classical behavior for rotation
           may cause significant error
 Rotational temperatures (Kelvin)      0.04129     0.01432     0.01339
 Rotational constants (GHZ):           0.86036     0.29844     0.27896
 Zero-point vibrational energy     818375.3 (Joules/Mol)
                                  195.59640 (Kcal/Mol)
 Warning -- explicit consideration of  23 degrees of freedom as
           vibrations may cause significant error
 Vibrational temperatures:     44.26    53.27    80.70   115.48   149.18
          (Kelvin)            184.97   234.02   284.60   346.75   362.34
                              404.58   438.05   472.45   502.44   584.45
                              598.49   611.74   669.86   679.63   688.26
                              708.87   775.03   799.47   906.29   943.88
                             1014.85  1030.21  1059.71  1108.91  1133.73
                             1164.67  1183.31  1232.37  1277.04  1293.23
                             1311.54  1333.22  1345.33  1376.11  1381.10
                             1423.56  1483.99  1523.26  1535.44  1543.84
                             1565.21  1583.39  1603.94  1631.05  1637.97
                             1667.73  1672.22  1704.26  1723.41  1732.09
                             1768.31  1782.86  1820.53  1836.92  1845.44
                             1872.88  1889.27  1918.24  1946.46  1976.58
                             2028.41  2030.05  2037.77  2056.03  2076.70
                             2130.56  2134.90  2144.56  2167.00  2181.76
                             2189.39  2191.15  2197.50  2213.49  2233.07
                             2244.27  2364.04  2415.65  4261.81  4347.35
                             4364.29  4366.00  4380.95  4420.08  4427.44
                             4447.90  4493.62  4503.04  4504.41  4528.96
                             4542.71  4556.13  4582.90  4600.15  4621.26
                             4634.86  4662.46

 Zero-point correction=                           0.311703 (Hartree/Particle)
 Thermal correction to Energy=                    0.327173
 Thermal correction to Enthalpy=                  0.328117
 Thermal correction to Gibbs Free Energy=         0.268162
 Sum of electronic and zero-point Energies=           -749.818623
 Sum of electronic and thermal Energies=              -749.803153
 Sum of electronic and thermal Enthalpies=            -749.802208
 Sum of electronic and thermal Free Energies=         -749.862163

                     E (Thermal)             CV                S
                      KCal/Mol        Cal/Mol-Kelvin    Cal/Mol-Kelvin
 Total                  205.304             61.049            126.186
 Electronic               0.000              0.000              0.000
 Translational            0.889              2.981             42.241
 Rotational               0.889              2.981             32.773
 Vibrational            203.527             55.088             51.172
 Vibration     1          0.594              1.984              5.780
 Vibration     2          0.594              1.982              5.412
 Vibration     3          0.596              1.975              4.590
 Vibration     4          0.600              1.963              3.884
 Vibration     5          0.605              1.946              3.384
 Vibration     6          0.611              1.925              2.968
 Vibration     7          0.623              1.888              2.519
 Vibration     8          0.637              1.843              2.153
 Vibration     9          0.658              1.778              1.795
 Vibration    10          0.664              1.760              1.718
 Vibration    11          0.681              1.708              1.526
 Vibration    12          0.695              1.665              1.392
 Vibration    13          0.712              1.619              1.268
 Vibration    14          0.726              1.577              1.170
 Vibration    15          0.771              1.457              0.940
 Vibration    16          0.779              1.436              0.906
 Vibration    17          0.787              1.415              0.875
 Vibration    18          0.823              1.326              0.750
 Vibration    19          0.829              1.311              0.731
 Vibration    20          0.835              1.298              0.714
 Vibration    21          0.848              1.266              0.677
 Vibration    22          0.894              1.165              0.568
 Vibration    23          0.911              1.127              0.533

 Optimization completed.
    -- Stationary point found.
 Normal termination of Gaussian 16 at Fri Dec 11 13:48:01 2020.

 ----------------------------------------------------------------------
 # B3LYP/6-311++G(d,p) empiricaldispersion=gd3bj scf=xqc pop=npa geom=c
 heck
 ----------------------------------------------------------------------

 --------------------------------------
 CID_67393867_JID_7993_Energie_neutraal
 --------------------------------------
 Structure from the checkpoint file:  "JID_7993.chk"
 Charge =  0 Multiplicity = 1

 SCF Done:  E(RB3LYP) =  -750.331699800     A.U. after   15 cycles
 Normal termination of Gaussian 16 at Fri Dec 11 13:55:45 2020.

 ----------------------------------------------------------------------
 # B3LYP/6-311++G(d,p) empiricaldispersion=gd3bj scf=xqc pop=npa geom=c
 heck
 ----------------------------------------------------------------------

 ------------------------------------
 CID_67393867_JID_7993_Energie_kation
 ------------------------------------
 Structure from the checkpoint file:  "JID_7993.chk"
 Charge =  1 Multiplicity = 2

 SCF Done:  E(UB3LYP) =  -750.079053837     A.U. after   20 cycles
 Normal termination of Gaussian 16 at Fri Dec 11 14:10:29 2020.
 Gaussian 16:  ES64L-G16RevA.03 25-Dec-2016

 ----------------------------------------------------------------------
 # B3LYP/6-311++G(d,p) empiricaldispersion=gd3bj scf=xqc pop=npa geom=c
 heck
 ----------------------------------------------------------------------

 -----------------------------------
 CID_67393867_JID_7993_Energie_anion
 -----------------------------------
 Structure from the checkpoint file:  "JID_7993.chk"
 Charge = -1 Multiplicity = 2

                         Standard orientation:
 ---------------------------------------------------------------------
 Center     Atomic      Atomic             Coordinates (Angstroms)
 Number     Number       Type             X           Y           Z
 ---------------------------------------------------------------------
      1          6           0        3.414732    0.637039    1.343582
      2          7           0        3.209458    0.184664   -0.017623
      3          6           0        3.013829   -1.254648   -0.133886
      4          6           0        1.823678   -1.902093    0.618442
      5          6           0        0.459821   -1.430551    0.173691
      6          6           0       -0.382889   -0.756191    1.057728
      7          6           0       -1.626664   -0.278879    0.647826
      8          6           0       -2.043948   -0.466718   -0.678275
      9          6           0       -1.219402   -1.161726   -1.562841
     10          6           0        0.014053   -1.645561   -1.138497
     11          8           0       -3.252239    0.006982   -1.136274
     12          6           0       -3.827071    0.995921   -0.285508
     13          6           0       -3.763189    0.538378    1.162477
     14          8           0       -2.405048    0.382250    1.568730
     15          6           0        2.330680    0.984571   -0.841152
     16          6           0        1.154788    1.799554   -0.356243
     17          6           0        2.396616    2.486606   -0.896009
     18          1           0        4.186036    0.014933    1.811369
     19          1           0        2.513950    0.592107    1.981896
     20          1           0        3.777083    1.669281    1.347875
     21          1           0        2.931354   -1.490260   -1.201577
     22          1           0        3.932436   -1.740366    0.224147
     23          1           0        1.909843   -2.988370    0.472457
     24          1           0        1.936540   -1.730318    1.694920
     25          1           0       -0.083701   -0.578691    2.086741
     26          1           0       -1.566840   -1.308639   -2.580775
     27          1           0        0.643206   -2.185282   -1.841180
     28          1           0       -4.859920    1.127827   -0.617398
     29          1           0       -3.286583    1.946166   -0.399062
     30          1           0       -4.203646    1.278357    1.835471
     31          1           0       -4.297879   -0.414990    1.274324
     32          1           0        2.182059    0.502775   -1.804019
     33          1           0        0.242697    1.786462   -0.945874
     34          1           0        0.983681    1.863257    0.713313
     35          1           0        3.022567    3.015292   -0.183154
     36          1           0        2.359004    2.959735   -1.873772
 ---------------------------------------------------------------------

 SCF Done:  E(UB3LYP) =  -750.317979928     A.U. after   33 cycles
 SCF Done:  E(UB3LYP) =  -750.317979928     a.u. after    1 cycles

 The electronic state is 2-A.
 Alpha  occ. eigenvalues --  -19.06111 -19.06053 -14.21381 -10.13733 -10.13551
 Alpha  occ. eigenvalues --  -10.13545 -10.13504 -10.10903 -10.10208 -10.09599
 Alpha  occ. eigenvalues --  -10.08286 -10.08120 -10.07708 -10.07618 -10.07587
 Alpha  occ. eigenvalues --  -10.07480 -10.07022  -0.99531  -0.95958  -0.83879
 Alpha  occ. eigenvalues --   -0.76671  -0.74604  -0.69655  -0.66809  -0.64967
 Alpha  occ. eigenvalues --   -0.61629  -0.59530  -0.57260  -0.53458  -0.51988
 Alpha  occ. eigenvalues --   -0.50947  -0.47436  -0.46286  -0.44623  -0.42455
 Alpha  occ. eigenvalues --   -0.42071  -0.41006  -0.39932  -0.36942  -0.36649
 Alpha  occ. eigenvalues --   -0.35894  -0.34749  -0.34552  -0.33899  -0.33467
 Alpha  occ. eigenvalues --   -0.31693  -0.31087  -0.30519  -0.29580  -0.29333
 Alpha  occ. eigenvalues --   -0.27796  -0.27602  -0.27044  -0.25901  -0.25033
 Alpha  occ. eigenvalues --   -0.24087  -0.22759  -0.21938  -0.21333  -0.20336
 Alpha  occ. eigenvalues --   -0.14687  -0.12415  -0.10270   0.04167
 Alpha virt. eigenvalues --    0.05572   0.06707   0.06993   0.08016   0.08286
 Alpha virt. eigenvalues --    0.08461   0.08691   0.08856   0.09103   0.09718
 Alpha virt. eigenvalues --    0.10371   0.10556   0.11210   0.11836   0.12201

  Beta  occ. eigenvalues --  -19.06112 -19.06054 -14.21381 -10.13723 -10.13532
  Beta  occ. eigenvalues --  -10.13510 -10.13466 -10.10900 -10.10190 -10.09572
  Beta  occ. eigenvalues --  -10.08270 -10.08122 -10.07702 -10.07605 -10.07585
  Beta  occ. eigenvalues --  -10.07461 -10.07016  -0.99520  -0.95950  -0.83872
  Beta  occ. eigenvalues --   -0.76642  -0.74596  -0.69608  -0.66776  -0.64934
  Beta  occ. eigenvalues --   -0.61590  -0.59489  -0.57205  -0.53431  -0.51956
  Beta  occ. eigenvalues --   -0.50927  -0.47389  -0.46247  -0.44597  -0.42423
  Beta  occ. eigenvalues --   -0.42043  -0.40982  -0.39909  -0.36908  -0.36618
  Beta  occ. eigenvalues --   -0.35845  -0.34714  -0.34509  -0.33873  -0.33433
  Beta  occ. eigenvalues --   -0.31663  -0.31049  -0.30510  -0.29553  -0.29292
  Beta  occ. eigenvalues --   -0.27772  -0.27583  -0.27032  -0.25875  -0.25007
  Beta  occ. eigenvalues --   -0.24056  -0.22745  -0.21899  -0.21303  -0.20323
  Beta  occ. eigenvalues --   -0.14658  -0.12358  -0.10245
  Beta virt. eigenvalues --    0.06143   0.07023   0.07150   0.07238   0.08033
  Beta virt. eigenvalues --    0.08577   0.08898   0.09076   0.09228   0.09494
  Beta virt. eigenvalues --    0.10215   0.10737   0.10917   0.11422   0.11907

 Mulliken charges and spin densities:
               1          2
     1  C    0.394740  -0.797770
     2  N    0.125087   0.076237
     3  C    0.226568  -0.543122
     4  C    0.647113  -1.193033
     5  C    0.660933   0.381163
     6  C   -0.551287   0.160562
     7  C   -0.224265   0.090276
     8  C    0.262061  -0.372284
     9  C   -0.193306  -0.126787
    10  C   -0.330971  -0.105640
    11  O   -0.161868   0.055015
    12  C    0.647217  -0.919548
    13  C    0.331531  -0.535209
    14  O   -0.138647   0.045678
    15  C   -0.715843   0.517341
    16  C   -0.372172   0.108912
    17  C    0.447092  -0.905117
    18  H   -0.251464   0.397467
    19  H   -0.005846   0.136104
    20  H   -0.047064   0.159108
    21  H    0.020880   0.111531
    22  H   -0.305308   0.474314
    23  H   -0.316274   0.490240
    24  H    0.132138   0.026108
    25  H   -0.138535   0.328696
    26  H   -0.060673   0.241171
    27  H   -0.088475   0.235738
    28  H   -0.939762   1.138439
    29  H    0.150310   0.010753
    30  H   -0.867882   1.058414
    31  H    0.151411   0.014884
    32  H    0.116140   0.067190
    33  H    0.166006  -0.012393
    34  H    0.110547   0.055018
    35  H    0.055404   0.063268
    36  H    0.064467   0.067275
 Sum of Mulliken charges =  -1.00000   1.00000

 Dipole moment (field-independent basis, Debye):
    X=              3.9043    Y=             -0.4123    Z=             -2.2027  Tot=              4.5017
 Quadrupole moment (field-independent basis, Debye-Ang):
   XX=           -211.3039   YY=           -146.2598   ZZ=           -136.3596
   XY=             20.1969   XZ=             -0.5928   YZ=             -3.1997

 Summary of Natural Population Analysis:

                                       Natural Population
                Natural  -----------------------------------------------
    Atom  No    Charge         Core      Valence    Rydberg      Total
 -----------------------------------------------------------------------
      C    1   -0.18124      0.99964     2.17249    0.00911     3.18124
      N    2   -0.27644      0.99971     2.76255    0.01419     3.77644
      C    3   -0.07383      0.99960     2.06185    0.01238     3.07383
      C    4   -0.20763      0.99959     2.19823    0.00981     3.20763
      C    5   -0.01752      0.99951     2.00753    0.01048     3.01752
      C    6   -0.11301      0.99948     2.10430    0.00923     3.11301
      C    7    0.12949      0.99933     1.85785    0.01333     2.87051
      C    8    0.12220      0.99933     1.86519    0.01327     2.87780
      C    9   -0.11257      0.99953     2.10443    0.00861     3.11257
      C   10   -0.10694      0.99951     2.09826    0.00917     3.10694
      O   11   -0.27599      0.99987     3.26680    0.00932     4.27599
      C   12   -0.02407      0.99958     2.01197    0.01253     3.02407
      C   13   -0.02336      0.99957     2.01147    0.01232     3.02336
      O   14   -0.27433      0.99987     3.26524    0.00923     4.27433
      C   15   -0.00553      0.99956     1.99331    0.01266     3.00553
      C   16   -0.21230      0.99963     2.20530    0.00738     3.21230
      C   17   -0.20687      0.99963     2.20056    0.00668     3.20687
      H   18    0.09804      0.00000     0.40089    0.00107     0.40196
      H   19    0.08212      0.00000     0.41636    0.00152     0.41788
      H   20    0.09452      0.00000     0.40415    0.00133     0.40548
      H   21    0.09259      0.00000     0.40607    0.00134     0.40741
      H   22    0.09488      0.00000     0.40377    0.00135     0.40512
      H   23    0.10505      0.00000     0.39343    0.00152     0.39495
      H   24    0.09996      0.00000     0.39875    0.00129     0.40004
      H   25    0.10479      0.00000     0.39344    0.00178     0.39521
      H   26    0.10444      0.00000     0.39421    0.00135     0.39556
      H   27    0.09927      0.00000     0.39965    0.00107     0.40073
      H   28    0.10095      0.00000     0.39571    0.00333     0.39905
      H   29    0.08612      0.00000     0.41199    0.00188     0.41388
      H   30    0.10082      0.00000     0.39627    0.00291     0.39918
      H   31    0.08596      0.00000     0.41252    0.00152     0.41404
      H   32    0.10040      0.00000     0.39816    0.00144     0.39960
      H   33    0.10532      0.00000     0.39335    0.00132     0.39468
      H   34    0.10516      0.00000     0.39376    0.00108     0.39484
      H   35    0.10027      0.00000     0.39871    0.00102     0.39973
      H   36    0.09927      0.00000     0.39986    0.00088     0.40073
 =======================================================================
   * Total *   -0.00000     16.99294    45.79838    0.20868    63.00000

 Normal termination of Gaussian 16 at Fri Dec 11 14:34:42 2020.
