 Gaussian 16, Revision A.03,

 -----------------------------------------------------------
 # opt freq B3LYP/6-31G(d) empiricaldispersion=gd3bj scf=xqc
 -----------------------------------------------------------

 ------------------------------
 CID_12676515_JID_1815_neutraal
 ------------------------------
 Symbolic Z-matrix:
 Charge =  0 Multiplicity = 1

 SCF Done:  E(RB3LYP) =  -503.075642185     A.U. after   14 cycles
 SCF Done:  E(RB3LYP) =  -503.077880231     A.U. after   12 cycles
 SCF Done:  E(RB3LYP) =  -503.077996037     A.U. after   12 cycles
 SCF Done:  E(RB3LYP) =  -503.078297832     A.U. after   12 cycles
 SCF Done:  E(RB3LYP) =  -503.078307626     A.U. after   12 cycles
 SCF Done:  E(RB3LYP) =  -503.078473810     A.U. after   10 cycles
 SCF Done:  E(RB3LYP) =  -503.078661955     A.U. after   12 cycles
 SCF Done:  E(RB3LYP) =  -503.078656406     A.U. after   12 cycles
 SCF Done:  E(RB3LYP) =  -503.078831989     A.U. after   12 cycles
 SCF Done:  E(RB3LYP) =  -503.078811600     A.U. after   12 cycles
 SCF Done:  E(RB3LYP) =  -503.079320891     A.U. after   10 cycles
 SCF Done:  E(RB3LYP) =  -503.079321187     A.U. after    7 cycles
 SCF Done:  E(RB3LYP) =  -503.079321328     A.U. after    7 cycles
 SCF Done:  E(RB3LYP) =  -503.079321373     A.U. after    7 cycles
 SCF Done:  E(RB3LYP) =  -503.079321383     A.U. after    6 cycles
 SCF Done:  E(RB3LYP) =  -503.079321388     A.U. after    6 cycles
 Optimization completed.
    -- Stationary point found.

 1\1\GINC-NODE201\FOpt\RB3LYP\6-31G(d)\C9H16O2\VSC10255\08-Dec-2020\0\\
 # opt freq B3LYP/6-31G(d) empiricaldispersion=gd3bj scf=xqc\\CID_12676
 515_JID_1815_neutraal\\0,1\C,1.253211627,0.1541496217,-0.0008494785\C,
 0.4599978594,0.7517010724,1.1674117484\C,0.6746435465,2.2773547212,1.3
 367056902\C,0.288070561,3.135677704,0.1462445649\C,-0.9527245262,3.612
 4994288,-0.0001892445\C,1.3755341272,3.4563408876,-0.8489370058\C,-1.0
 313522275,0.4140610415,1.0477869359\C,-1.3195714201,-1.0655938512,1.18
 77496198\O,-0.5968414641,-1.8844158724,1.7159097779\O,-2.529349619,-1.

 Normal termination of Gaussian 16 at Tue Dec  8 21:22:31 2020.

 --------------------------------------------------------------------
 #N Geom=AllCheck Guess=TCheck SCRF=Check GenChk RB3LYP/6-31G(d) Freq
 --------------------------------------------------------------------

 Structure from the checkpoint file:  "JID_1815.chk"
 ------------------------------
 CID_12676515_JID_1815_neutraal
 ------------------------------
 Charge =  0 Multiplicity = 1

 SCF Done:  E(RB3LYP) =  -503.079321388     A.U. after    1 cycles

  Exact polarizability: 111.871  -1.878 104.447   2.706   1.430  79.288
 Approx polarizability: 128.962  -1.239 167.197   4.843   6.503 115.880

                      1                      2                      3
                      A                      A                      A
 Frequencies --     26.9407                48.6933                64.1997
 Red. masses --      4.1086                 3.1133                 3.1832
 Frc consts  --      0.0018                 0.0043                 0.0077
 IR Inten    --      1.4531                 0.0651                 0.4573

                      4                      5                      6
                      A                      A                      A
 Frequencies --     85.8435               134.0031               156.8803
 Red. masses --      3.1607                 1.1430                 2.6988
 Frc consts  --      0.0137                 0.0121                 0.0391
 IR Inten    --      0.8914                 0.4099                 1.1397

                      7                      8                      9
                      A                      A                      A
 Frequencies --    175.9302               188.2823               201.5222
 Red. masses --      2.0056                 1.4558                 3.0631
 Frc consts  --      0.0366                 0.0304                 0.0733
 IR Inten    --      1.4433                 0.7866                 3.9020

                     10                     11                     12
                      A                      A                      A
 Frequencies --    265.8175               294.4108               305.8476
 Red. masses --      3.3661                 1.4675                 1.6936
 Frc consts  --      0.1401                 0.0749                 0.0933
 IR Inten    --      0.8113                 6.2406                 8.0659

                     13                     14                     15
                      A                      A                      A
 Frequencies --    364.9011               396.9834               419.9742
 Red. masses --      2.7880                 2.5991                 2.2511
 Frc consts  --      0.2187                 0.2413                 0.2339
 IR Inten    --      6.0280                 1.4898                 3.9562

                     16                     17                     18
                      A                      A                      A
 Frequencies --    429.7971               467.3555               598.5246
 Red. masses --      2.0564                 2.7022                 3.0157
 Frc consts  --      0.2238                 0.3478                 0.6365
 IR Inten    --      1.4892                 1.0089                 6.5091

                     19                     20                     21
                      A                      A                      A
 Frequencies --    601.0960               711.5229               747.2712
 Red. masses --      2.3019                 1.8725                 2.0984
 Frc consts  --      0.4900                 0.5585                 0.6904
 IR Inten    --      3.9116                 2.6152                 7.0969

                     22                     23                     24
                      A                      A                      A
 Frequencies --    805.9444               859.3647               897.3654
 Red. masses --      2.4979                 2.4920                 2.1055
 Frc consts  --      0.9559                 1.0843                 0.9990
 IR Inten    --      0.5975                 1.6440                 2.5664

                     25                     26                     27
                      A                      A                      A
 Frequencies --    911.5571               921.7314               942.5564
 Red. masses --      2.3750                 1.3629                 1.7993
 Frc consts  --      1.1628                 0.6822                 0.9418
 IR Inten    --     10.0015                41.6883                 0.3088

                     28                     29                     30
                      A                      A                      A
 Frequencies --    966.8407               997.8496              1032.6821
 Red. masses --      1.9339                 1.8184                 2.0597
 Frc consts  --      1.0651                 1.0668                 1.2941
 IR Inten    --      1.5203                 0.8172                14.7078

                     31                     32                     33
                      A                      A                      A
 Frequencies --   1043.1595              1074.9414              1105.6177
 Red. masses --      1.9372                 1.4576                 1.9090
 Frc consts  --      1.2420                 0.9923                 1.3749
 IR Inten    --      5.3288                12.2263                15.9912

                     34                     35                     36
                      A                      A                      A
 Frequencies --   1126.7925              1151.1959              1186.1607
 Red. masses --      1.9983                 1.5942                 1.2786
 Frc consts  --      1.4949                 1.2448                 1.0599
 IR Inten    --      3.0593                 4.4821                 1.4355

                     37                     38                     39
                      A                      A                      A
 Frequencies --   1207.1299              1224.6651              1255.2188
 Red. masses --      1.9302                 1.6429                 1.4332
 Frc consts  --      1.6571                 1.4518                 1.3304
 IR Inten    --    152.0643                79.9166                56.1291

                     40                     41                     42
                      A                      A                      A
 Frequencies --   1274.8949              1307.6700              1317.4938
 Red. masses --      1.4757                 2.0032                 1.5400
 Frc consts  --      1.4132                 2.0182                 1.5750
 IR Inten    --     38.2228                68.6944                 5.9489

                     43                     44                     45
                      A                      A                      A
 Frequencies --   1376.8115              1399.5773              1421.8377
 Red. masses --      1.6770                 1.3803                 1.5760
 Frc consts  --      1.8730                 1.5930                 1.8772
 IR Inten    --     61.2216                 2.0353                49.4871

                     46                     47                     48
                      A                      A                      A
 Frequencies --   1438.4737              1442.4752              1473.1196
 Red. masses --      1.2494                 1.2758                 1.2025
 Frc consts  --      1.5232                 1.5640                 1.5375
 IR Inten    --      8.4979                 7.5763                 1.6792

                     49                     50                     51
                      A                      A                      A
 Frequencies --   1491.8955              1494.5193              1508.5527
 Red. masses --      1.1303                 1.1726                 1.0511
 Frc consts  --      1.4822                 1.5431                 1.4094
 IR Inten    --      1.4803                22.9764                 2.0507

                     52                     53                     54
                      A                      A                      A
 Frequencies --   1512.8523              1517.7732              1525.4154
 Red. masses --      1.0481                 1.0840                 1.0481
 Frc consts  --      1.4133                 1.4713                 1.4369
 IR Inten    --      6.0768                 6.4457                 7.7457

                     55                     56                     57
                      A                      A                      A
 Frequencies --   1527.5988              1534.1702              1546.6332
 Red. masses --      1.0654                 1.0516                 1.0510
 Frc consts  --      1.4649                 1.4583                 1.4812
 IR Inten    --     13.3935                 7.2522                 3.7441

                     58                     59                     60
                      A                      A                      A
 Frequencies --   1734.1613              1820.2159              3033.1242
 Red. masses --      4.8145                10.8712                 1.0574
 Frc consts  --      8.5306                21.2215                 5.7313
 IR Inten    --     11.9207               177.0268                15.2404

                     61                     62                     63
                      A                      A                      A
 Frequencies --   3038.7400              3039.1431              3051.2117
 Red. masses --      1.0542                 1.0603                 1.0391
 Frc consts  --      5.7352                 5.7702                 5.6999
 IR Inten    --     32.6542                10.9504                19.0596

                     64                     65                     66
                      A                      A                      A
 Frequencies --   3059.2602              3074.5973              3075.7611
 Red. masses --      1.0815                 1.0306                 1.1025
 Frc consts  --      5.9636                 5.7403                 6.1453
 IR Inten    --     22.0779                35.7314                29.0752

                     67                     68                     69
                      A                      A                      A
 Frequencies --   3095.4599              3111.2942              3115.6373
 Red. masses --      1.0921                 1.0952                 1.0981
 Frc consts  --      6.1655                 6.2463                 6.2802
 IR Inten    --     18.9860                 5.1032                41.3872

                     70                     71                     72
                      A                      A                      A
 Frequencies --   3129.5316              3137.0036              3148.0710
 Red. masses --      1.1022                 1.1004                 1.1073
 Frc consts  --      6.3604                 6.3800                 6.4658
 IR Inten    --     29.8609                16.4801                22.4985

                     73                     74                     75
                      A                      A                      A
 Frequencies --   3156.7620              3181.3923              3232.2663
 Red. masses --      1.0599                 1.1070                 1.1159
 Frc consts  --      6.2230                 6.6015                 6.8687
 IR Inten    --      9.0117                18.6342                23.0468

 - Thermochemistry -
 -------------------
 Temperature   298.150 Kelvin.  Pressure   1.00000 Atm.
 Atom     1 has atomic number  6 and mass  12.00000

 Molecular mass:   156.11503 amu.
 Principal axes and moments of inertia in atomic units:
                           1         2         3
     Eigenvalues --   808.674893603.492853951.67987
           X            0.99997  -0.00803   0.00166
           Y            0.00808   0.99944  -0.03245
           Z           -0.00140   0.03246   0.99947
 This molecule is an asymmetric top.
 Rotational symmetry number  1.
 Warning -- assumption of classical behavior for rotation
           may cause significant error
 Rotational temperatures (Kelvin)      0.10711     0.02404     0.02192
 Rotational constants (GHZ):           2.23173     0.50083     0.45670
 Zero-point vibrational energy     626496.1 (Joules/Mol)
                                  149.73616 (Kcal/Mol)
 Warning -- explicit consideration of  19 degrees of freedom as
           vibrations may cause significant error
 Vibrational temperatures:     38.76    70.06    92.37   123.51   192.80
          (Kelvin)            225.72   253.12   270.90   289.95   382.45
                              423.59   440.05   525.01   571.17   604.25
                              618.38   672.42   861.14   864.84  1023.72
                             1075.16  1159.57  1236.43  1291.11  1311.53
                             1326.17  1356.13  1391.07  1435.68  1485.80
                             1500.87  1546.60  1590.74  1621.20  1656.31
                             1706.62  1736.79  1762.02  1805.98  1834.29
                             1881.45  1895.58  1980.92  2013.68  2045.71
                             2069.64  2075.40  2119.49  2146.50  2150.28
                             2170.47  2176.66  2183.74  2194.73  2197.87
                             2207.33  2225.26  2495.07  2618.88  4363.99
                             4372.07  4372.65  4390.01  4401.59  4423.66
                             4425.33  4453.68  4476.46  4482.71  4502.70
                             4513.45  4529.37  4541.88  4577.31  4650.51

 Zero-point correction=                           0.238620 (Hartree/Particle)
 Thermal correction to Energy=                    0.251848
 Thermal correction to Enthalpy=                  0.252793
 Thermal correction to Gibbs Free Energy=         0.197931
 Sum of electronic and zero-point Energies=           -502.840702
 Sum of electronic and thermal Energies=              -502.827473
 Sum of electronic and thermal Enthalpies=            -502.826529
 Sum of electronic and thermal Free Energies=         -502.881391

                     E (Thermal)             CV                S
                      KCal/Mol        Cal/Mol-Kelvin    Cal/Mol-Kelvin
 Total                  158.037             47.250            115.466
 Electronic               0.000              0.000              0.000
 Translational            0.889              2.981             41.046
 Rotational               0.889              2.981             30.822
 Vibrational            156.260             41.288             43.599
 Vibration     1          0.593              1.984              6.043
 Vibration     2          0.595              1.978              4.870
 Vibration     3          0.597              1.971              4.324
 Vibration     4          0.601              1.959              3.753
 Vibration     5          0.613              1.919              2.888
 Vibration     6          0.621              1.895              2.587
 Vibration     7          0.628              1.872              2.371
 Vibration     8          0.633              1.856              2.245
 Vibration     9          0.638              1.838              2.119
 Vibration    10          0.672              1.736              1.623
 Vibration    11          0.689              1.684              1.448
 Vibration    12          0.696              1.663              1.385
 Vibration    13          0.738              1.544              1.101
 Vibration    14          0.763              1.477              0.974
 Vibration    15          0.783              1.427              0.892
 Vibration    16          0.791              1.405              0.859
 Vibration    17          0.825              1.322              0.745
 Vibration    18          0.957              1.035              0.452
 Vibration    19          0.959              1.029              0.448

 Optimization completed.
    -- Stationary point found.

 1\1\GINC-NODE201\Freq\RB3LYP\6-31G(d)\C9H16O2\VSC10255\08-Dec-2020\0\\
 #N Geom=AllCheck Guess=TCheck SCRF=Check GenChk RB3LYP/6-31G(d) Freq\\
 CID_12676515_JID_1815_neutraal\\0,1\C,1.253211627,0.1541496217,-0.0008
 494785\C,0.4599978594,0.7517010724,1.1674117484\C,0.6746435465,2.27735
 47212,1.3367056902\C,0.288070561,3.135677704,0.1462445649\C,-0.9527245
 262,3.6124994288,-0.0001892445\C,1.3755341272,3.4563408876,-0.84893700
 58\C,-1.0313522275,0.4140610415,1.0477869359\C,-1.3195714201,-1.065593
 8512,1.1877496198\O,-0.5968414641,-1.8844158724,1.7159097779\O,-2.5293

 Normal termination of Gaussian 16 at Tue Dec  8 21:27:49 2020.

 ----------------------------------------------------------------------
 # B3LYP/6-311++G(d,p) empiricaldispersion=gd3bj scf=xqc pop=npa geom=c
 heck
 ----------------------------------------------------------------------

 --------------------------------------
 CID_12676515_JID_1815_Energie_neutraal
 --------------------------------------
 Structure from the checkpoint file:  "JID_1815.chk"
 Charge =  0 Multiplicity = 1

 SCF Done:  E(RB3LYP) =  -503.227801795     A.U. after   14 cycles
 Normal termination of Gaussian 16 at Tue Dec  8 21:30:57 2020.

 ----------------------------------------------------------------------
 # B3LYP/6-311++G(d,p) empiricaldispersion=gd3bj scf=xqc pop=npa geom=c
 heck
 ----------------------------------------------------------------------

 ------------------------------------
 CID_12676515_JID_1815_Energie_kation
 ------------------------------------
 Structure from the checkpoint file:  "JID_1815.chk"
 Charge =  1 Multiplicity = 2

 SCF Done:  E(UB3LYP) =  -502.900579622     A.U. after   23 cycles
 Normal termination of Gaussian 16 at Tue Dec  8 21:37:02 2020.
 Gaussian 16:  ES64L-G16RevA.03 25-Dec-2016

 -----------------------------------
 CID_12676515_JID_1815_Energie_anion
 -----------------------------------
 Structure from the checkpoint file:  "JID_1815.chk"
 Charge = -1 Multiplicity = 2

                         Standard orientation:
 ---------------------------------------------------------------------
 Center     Atomic      Atomic             Coordinates (Angstroms)
 Number     Number       Type             X           Y           Z
 ---------------------------------------------------------------------
      1          6           0       -0.548864    1.630723   -0.782746
      2          6           0       -0.483104    0.831152    0.523950
      3          6           0       -1.873534    0.370609    1.030858
      4          6           0       -2.659195   -0.521507    0.087343
      5          6           0       -2.525234   -1.851939    0.106846
      6          6           0       -3.625007    0.157213   -0.851984
      7          6           0        0.477793   -0.357052    0.392479
      8          6           0        1.919725    0.062221    0.199916
      9          8           0        2.392785    1.139804    0.494519
     10          8           0        2.650764   -0.946843   -0.326010
     11          6           0        4.047789   -0.662784   -0.497861
     12          1           0       -0.856008    0.995363   -1.621526
     13          1           0        0.430804    2.055643   -1.018752
     14          1           0       -1.263683    2.457637   -0.703903
     15          1           0       -0.072363    1.491894    1.297164
     16          1           0       -1.727627   -0.153091    1.983947
     17          1           0       -2.464453    1.268606    1.254441
     18          1           0       -3.080942   -2.492767   -0.573064
     19          1           0       -1.861719   -2.350491    0.809020
     20          1           0       -4.396235    0.695357   -0.283844
     21          1           0       -3.126694    0.903525   -1.480810
     22          1           0       -4.125740   -0.563092   -1.506117
     23          1           0        0.449665   -0.972469    1.303225
     24          1           0        0.183569   -1.021043   -0.426082
     25          1           0        4.186206    0.185223   -1.173737
     26          1           0        4.513806   -0.427550    0.462771
     27          1           0        4.480806   -1.568256   -0.923599
 ---------------------------------------------------------------------

 SCF Done:  E(UB3LYP) =  -503.212493548     A.U. after   32 cycles

 The electronic state is 2-A.
 Alpha  occ. eigenvalues --  -19.07025 -19.01330 -10.20168 -10.12314 -10.08138
 Alpha  occ. eigenvalues --  -10.08016 -10.07898 -10.06899 -10.06447 -10.05713
 Alpha  occ. eigenvalues --  -10.05491  -1.00969  -0.92206  -0.73171  -0.69086
 Alpha  occ. eigenvalues --   -0.64746  -0.59544  -0.59179  -0.57884  -0.49137
 Alpha  occ. eigenvalues --   -0.45857  -0.42145  -0.41127  -0.39343  -0.38070
 Alpha  occ. eigenvalues --   -0.36407  -0.35580  -0.34405  -0.34136  -0.31690
 Alpha  occ. eigenvalues --   -0.31244  -0.30150  -0.28470  -0.27479  -0.26714
 Alpha  occ. eigenvalues --   -0.26382  -0.25418  -0.24290  -0.23401  -0.21979
 Alpha  occ. eigenvalues --   -0.21068  -0.18289  -0.15027   0.04452
 Alpha virt. eigenvalues --    0.06031   0.07440   0.07990   0.08688   0.09437
 Alpha virt. eigenvalues --    0.09609   0.09771   0.10264   0.10701   0.10752
 Alpha virt. eigenvalues --    0.11411   0.12093   0.12869   0.13414   0.13723

  Beta  occ. eigenvalues --  -19.07018 -19.01319 -10.20164 -10.12266 -10.08123
  Beta  occ. eigenvalues --  -10.08011 -10.07885 -10.06877 -10.06413 -10.05690
  Beta  occ. eigenvalues --  -10.05458  -1.00953  -0.92188  -0.73136  -0.69048
  Beta  occ. eigenvalues --   -0.64700  -0.59488  -0.59118  -0.57823  -0.49078
  Beta  occ. eigenvalues --   -0.45812  -0.42067  -0.41102  -0.39302  -0.38036
  Beta  occ. eigenvalues --   -0.36361  -0.35542  -0.34366  -0.34095  -0.31653
  Beta  occ. eigenvalues --   -0.31209  -0.30113  -0.28433  -0.27442  -0.26681
  Beta  occ. eigenvalues --   -0.26348  -0.25384  -0.24250  -0.23366  -0.21946
  Beta  occ. eigenvalues --   -0.21042  -0.18275  -0.14917
  Beta virt. eigenvalues --    0.06614   0.07226   0.07990   0.08464   0.09118
  Beta virt. eigenvalues --    0.09775   0.10068   0.10264   0.10664   0.11086
  Beta virt. eigenvalues --    0.11168   0.11787   0.12393   0.13124   0.13650

 Mulliken charges and spin densities:
               1          2
     1  C    0.103110  -0.832400
     2  C    0.140524   0.450319
     3  C   -0.336514  -0.240523
     4  C   -1.103387   1.876469
     5  C    0.183087  -0.826680
     6  C    1.482552  -2.211470
     7  C    1.383118  -1.942869
     8  C   -1.242994   1.012527
     9  O   -0.253719   0.017583
    10  O   -0.139496   0.079418
    11  C    1.059236  -1.286204
    12  H   -0.066332   0.203078
    13  H    0.049302   0.098055
    14  H   -0.096676   0.241072
    15  H    0.088148   0.153759
    16  H   -0.437216   0.613964
    17  H   -0.096642   0.262439
    18  H   -0.136388   0.248869
    19  H   -0.007632   0.140897
    20  H   -0.382973   0.542811
    21  H    0.002291   0.146207
    22  H   -0.192761   0.323091
    23  H   -0.045586   0.225194
    24  H    0.225849   0.023139
    25  H   -0.295964   0.469381
    26  H   -0.333239   0.506573
    27  H   -0.549699   0.705304
 Sum of Mulliken charges =  -1.00000   1.00000

 Dipole moment (field-independent basis, Debye):
    X=             -0.6542    Y=              0.2865    Z=             -0.3409  Tot=              0.7914
 Quadrupole moment (field-independent basis, Debye-Ang):
   XX=           -160.4195   YY=           -105.7202   ZZ=           -100.8712
   XY=              5.4734   XZ=              3.5606   YZ=             -0.4324

 Summary of Natural Population Analysis:

                                       Natural Population
                Natural  -----------------------------------------------
    Atom  No    Charge         Core      Valence    Rydberg      Total
 -----------------------------------------------------------------------
      C    1   -0.28880      0.99964     2.28396    0.00519     3.28880
      C    2   -0.10749      0.99960     2.09728    0.01061     3.10749
      C    3   -0.20146      0.99956     2.19067    0.01122     3.20146
      C    4   -0.00079      0.99953     1.98841    0.01286     3.00079
      C    5   -0.19836      0.99947     2.19133    0.00755     3.19836
      C    6   -0.29923      0.99961     2.29324    0.00638     3.29923
      C    7   -0.23984      0.99955     2.23064    0.00964     3.23984
      C    8    0.41555      0.99969     1.56068    0.02408     2.58445
      O    9   -0.30991      0.99987     3.30431    0.00574     4.30991
      O   10   -0.27911      0.99986     3.26989    0.00935     4.27911
      C   11   -0.10488      0.99959     2.09600    0.00929     3.10488
      H   12    0.09591      0.00000     0.40295    0.00114     0.40409
      H   13    0.10622      0.00000     0.39273    0.00105     0.39378
      H   14    0.09962      0.00000     0.39928    0.00111     0.40038
      H   15    0.10329      0.00000     0.39497    0.00174     0.39671
      H   16    0.10489      0.00000     0.39349    0.00162     0.39511
      H   17    0.10214      0.00000     0.39626    0.00160     0.39786
      H   18    0.09177      0.00000     0.40730    0.00093     0.40823
      H   19    0.09374      0.00000     0.40509    0.00116     0.40626
      H   20    0.10474      0.00000     0.39349    0.00177     0.39526
      H   21    0.10329      0.00000     0.39539    0.00132     0.39671
      H   22    0.10046      0.00000     0.39851    0.00103     0.39954
      H   23    0.11635      0.00000     0.38220    0.00145     0.38365
      H   24    0.11493      0.00000     0.38317    0.00189     0.38507
      H   25    0.09206      0.00000     0.40642    0.00153     0.40794
      H   26    0.09157      0.00000     0.40692    0.00151     0.40843
      H   27    0.09334      0.00000     0.40475    0.00191     0.40666
 =======================================================================
   * Total *    0.00000     10.99599    31.86935    0.13466    43.00000

 Normal termination of Gaussian 16 at Tue Dec  8 21:45:59 2020.
