 Gaussian 16, Revision A.03,

 -----------------------------------------------------------
 # opt freq B3LYP/6-31G(d) empiricaldispersion=gd3bj scf=xqc
 -----------------------------------------------------------

 ------------------------------
 CID_64382110_JID_6321_neutraal
 ------------------------------
 Symbolic Z-matrix:
 Charge =  0 Multiplicity = 1

 SCF Done:  E(RB3LYP) =  -692.192730485     A.U. after   13 cycles
 SCF Done:  E(RB3LYP) =  -692.199120086     A.U. after   12 cycles
 SCF Done:  E(RB3LYP) =  -692.201233933     A.U. after   12 cycles
 SCF Done:  E(RB3LYP) =  -692.203050921     A.U. after   12 cycles
 SCF Done:  E(RB3LYP) =  -692.203352150     A.U. after   11 cycles
 SCF Done:  E(RB3LYP) =  -692.203486162     A.U. after   11 cycles
 SCF Done:  E(RB3LYP) =  -692.203587359     A.U. after   11 cycles
 SCF Done:  E(RB3LYP) =  -692.203692198     A.U. after   11 cycles
 SCF Done:  E(RB3LYP) =  -692.203699230     A.U. after   11 cycles
 SCF Done:  E(RB3LYP) =  -692.203748626     A.U. after   11 cycles
 SCF Done:  E(RB3LYP) =  -692.203749561     A.U. after    8 cycles
 SCF Done:  E(RB3LYP) =  -692.203751404     A.U. after    9 cycles
 SCF Done:  E(RB3LYP) =  -692.203751311     A.U. after    8 cycles
 SCF Done:  E(RB3LYP) =  -692.203751485     A.U. after    7 cycles
 Optimization completed.
    -- Stationary point found.
 Normal termination of Gaussian 16 at Thu Dec 10 22:11:53 2020.

 --------------------------------------------------------------------
 #N Geom=AllCheck Guess=TCheck SCRF=Check GenChk RB3LYP/6-31G(d) Freq
 --------------------------------------------------------------------

 Structure from the checkpoint file:  "JID_6321.chk"
 ------------------------------
 CID_64382110_JID_6321_neutraal
 ------------------------------
 Charge =  0 Multiplicity = 1

 SCF Done:  E(RB3LYP) =  -692.203751485     A.U. after    1 cycles

  Exact polarizability: 196.258  -1.942 146.927  -9.667  -0.737 101.177
 Approx polarizability: 253.830  -3.462 241.293 -18.815  -0.816 154.752

                      1                      2                      3
                      A                      A                      A
 Frequencies --     33.0939                45.1068                65.8447
 Red. masses --      4.4615                 3.8233                 3.7377
 Frc consts  --      0.0029                 0.0046                 0.0095
 IR Inten    --      2.0032                 0.8746                 2.1098

                      4                      5                      6
                      A                      A                      A
 Frequencies --    107.8994               131.7423               138.4838
 Red. masses --      4.3125                 2.9806                 3.5738
 Frc consts  --      0.0296                 0.0305                 0.0404
 IR Inten    --      1.6293                 0.0078                 1.1791

                      7                      8                      9
                      A                      A                      A
 Frequencies --    202.6938               224.5002               260.5509
 Red. masses --      2.9940                 2.6406                 4.2315
 Frc consts  --      0.0725                 0.0784                 0.1693
 IR Inten    --      7.8503                 0.3872                 1.4862

                     10                     11                     12
                      A                      A                      A
 Frequencies --    281.2135               315.5447               329.2018
 Red. masses --      3.0570                 2.2379                 2.9414
 Frc consts  --      0.1424                 0.1313                 0.1878
 IR Inten    --      0.1530                11.6956                 4.9936

                     13                     14                     15
                      A                      A                      A
 Frequencies --    333.9813               345.4928               393.3096
 Red. masses --      2.4653                 1.2016                 2.0966
 Frc consts  --      0.1620                 0.0845                 0.1911
 IR Inten    --      0.1434                20.0885                 1.2281

                     16                     17                     18
                      A                      A                      A
 Frequencies --    399.0266               438.4081               468.4878
 Red. masses --      3.2553                 2.2343                 2.7444
 Frc consts  --      0.3054                 0.2530                 0.3549
 IR Inten    --      1.8549                 1.2161                 3.1676

                     19                     20                     21
                      A                      A                      A
 Frequencies --    500.8042               510.4088               591.8335
 Red. masses --      3.5492                 3.6818                 3.4560
 Frc consts  --      0.5245                 0.5651                 0.7132
 IR Inten    --      2.1949                 0.6371                12.5083

                     22                     23                     24
                      A                      A                      A
 Frequencies --    593.9259               596.7138               607.2311
 Red. masses --      2.5298                 1.3034                 2.3353
 Frc consts  --      0.5258                 0.2734                 0.5073
 IR Inten    --     18.6521                97.3788                 9.0845

                     25                     26                     27
                      A                      A                      A
 Frequencies --    660.4498               729.4104               763.8709
 Red. masses --      2.4034                 4.0636                 3.9155
 Frc consts  --      0.6177                 1.2738                 1.3461
 IR Inten    --     22.7342                 1.8254                 0.1988

                     28                     29                     30
                      A                      A                      A
 Frequencies --    769.7503               803.8618               817.9989
 Red. masses --      1.2325                 3.1291                 2.7807
 Frc consts  --      0.4303                 1.1913                 1.0962
 IR Inten    --     38.2223                 4.0645                 1.9142

                     31                     32                     33
                      A                      A                      A
 Frequencies --    824.8637               878.4451               885.1008
 Red. masses --      2.9581                 1.5138                 1.3512
 Frc consts  --      1.1858                 0.6882                 0.6237
 IR Inten    --      0.4233                64.0259                 1.7320

                     34                     35                     36
                      A                      A                      A
 Frequencies --    902.2425               941.7047               971.2658
 Red. masses --      2.0747                 1.3581                 2.1615
 Frc consts  --      0.9951                 0.7096                 1.2014
 IR Inten    --      5.0884                 0.4984                87.3577

                     37                     38                     39
                      A                      A                      A
 Frequencies --    979.3527               981.6399               986.8161
 Red. masses --      1.9773                 1.2617                 2.0086
 Frc consts  --      1.1174                 0.7163                 1.1524
 IR Inten    --     14.7151                 0.1809                 2.4433

                     40                     41                     42
                      A                      A                      A
 Frequencies --   1000.7881              1010.3611              1055.4273
 Red. masses --      1.8046                 2.7403                 2.1121
 Frc consts  --      1.0649                 1.6482                 1.3862
 IR Inten    --      9.5180                 8.1516                 9.3031

                     43                     44                     45
                      A                      A                      A
 Frequencies --   1079.9061              1082.4031              1084.1447
 Red. masses --      2.5102                 2.1010                 2.2300
 Frc consts  --      1.7248                 1.4503                 1.5443
 IR Inten    --     10.6492                28.4138                 7.5523

                     46                     47                     48
                      A                      A                      A
 Frequencies --   1088.9493              1124.4588              1132.5021
 Red. masses --      2.3336                 2.3807                 2.3159
 Frc consts  --      1.6304                 1.7735                 1.7500
 IR Inten    --     36.7075                 2.1797                15.3528

                     49                     50                     51
                      A                      A                      A
 Frequencies --   1158.1179              1180.1763              1196.6235
 Red. masses --      2.4137                 2.0236                 1.0990
 Frc consts  --      1.9074                 1.6606                 0.9272
 IR Inten    --     77.0983                 7.0685                 0.1447

                     52                     53                     54
                      A                      A                      A
 Frequencies --   1208.4231              1219.5343              1225.3753
 Red. masses --      1.4141                 2.1743                 1.2308
 Frc consts  --      1.2167                 1.9053                 1.0889
 IR Inten    --      2.9441                 0.8032                 0.3711

                     55                     56                     57
                      A                      A                      A
 Frequencies --   1235.2434              1256.8827              1275.8244
 Red. masses --      1.3729                 1.9711                 1.1812
 Frc consts  --      1.2342                 1.8346                 1.1328
 IR Inten    --      1.1520                 4.0512                 9.7289

                     58                     59                     60
                      A                      A                      A
 Frequencies --   1294.4996              1312.0929              1342.8205
 Red. masses --      1.3284                 1.4965                 1.7773
 Frc consts  --      1.3116                 1.5179                 1.8882
 IR Inten    --     22.1428                11.0282                 0.9620

                     61                     62                     63
                      A                      A                      A
 Frequencies --   1351.7457              1363.6420              1376.3681
 Red. masses --      1.4844                 1.3020                 1.5432
 Frc consts  --      1.5981                 1.4264                 1.7224
 IR Inten    --     19.0080                16.2036                13.7405

                     64                     65                     66
                      A                      A                      A
 Frequencies --   1381.5352              1388.8776              1396.0371
 Red. masses --      1.6244                 1.4430                 1.4789
 Frc consts  --      1.8267                 1.6400                 1.6982
 IR Inten    --     19.8331                 6.3801                 8.8178

                     67                     68                     69
                      A                      A                      A
 Frequencies --   1399.7944              1427.1324              1435.2242
 Red. masses --      1.3285                 1.3657                 1.3426
 Frc consts  --      1.5337                 1.6389                 1.6294
 IR Inten    --      3.9388                 4.8682                26.7499

                     70                     71                     72
                      A                      A                      A
 Frequencies --   1454.3854              1470.6791              1495.7355
 Red. masses --      1.3788                 1.2761                 1.3315
 Frc consts  --      1.7183                 1.6262                 1.7551
 IR Inten    --     16.7763                62.1736                 0.0298

                     73                     74                     75
                      A                      A                      A
 Frequencies --   1507.2524              1513.2593              1514.8877
 Red. masses --      1.7227                 1.1224                 1.0870
 Frc consts  --      2.3058                 1.5143                 1.4698
 IR Inten    --      7.9594                 6.3799                 1.5642

                     76                     77                     78
                      A                      A                      A
 Frequencies --   1515.5897              1526.4318              1538.4476
 Red. masses --      1.0896                 1.0945                 1.2018
 Frc consts  --      1.4746                 1.5026                 1.6758
 IR Inten    --     11.0703                 4.9466                 7.1383

                     79                     80                     81
                      A                      A                      A
 Frequencies --   1547.5521              1643.3881              1668.1450
 Red. masses --      2.0578                 6.0405                 5.8970
 Frc consts  --      2.9037                 9.6118                 9.6683
 IR Inten    --     16.2107                 0.4270                 0.1594

                     82                     83                     84
                      A                      A                      A
 Frequencies --   1691.9006              2940.8447              2945.2741
 Red. masses --      1.0874                 1.0737                 1.0724
 Frc consts  --      1.8340                 5.4711                 5.4808
 IR Inten    --     34.8823                19.3164                55.2540

                     85                     86                     87
                      A                      A                      A
 Frequencies --   2964.6196              3031.9117              3033.9728
 Red. masses --      1.0729                 1.0653                 1.0638
 Frc consts  --      5.5558                 5.7696                 5.7695
 IR Inten    --    106.7087                41.3166                12.9130

                     88                     89                     90
                      A                      A                      A
 Frequencies --   3035.6718              3069.5514              3072.9444
 Red. masses --      1.0636                 1.0864                 1.0914
 Frc consts  --      5.7746                 6.0308                 6.0723
 IR Inten    --     37.3021                35.9288                 6.0364

                     91                     92                     93
                      A                      A                      A
 Frequencies --   3084.5872              3086.4418              3092.4706
 Red. masses --      1.0989                 1.0970                 1.0890
 Frc consts  --      6.1605                 6.1571                 6.1362
 IR Inten    --     27.7962                19.1269                66.2733

                     94                     95                     96
                      A                      A                      A
 Frequencies --   3098.8206              3107.4978              3172.9910
 Red. masses --      1.0982                 1.0871                 1.0860
 Frc consts  --      6.2134                 6.1850                 6.4419
 IR Inten    --     46.0000                48.4525                15.2709

                     97                     98                     99
                      A                      A                      A
 Frequencies --   3177.1668              3192.4656              3207.7651
 Red. masses --      1.0887                 1.0914                 1.0974
 Frc consts  --      6.4748                 6.5538                 6.6530
 IR Inten    --      2.1338                30.5225                32.0028

                    100                    101                    102
                      A                      A                      A
 Frequencies --   3479.5820              3566.4281              3626.6373
 Red. masses --      1.0503                 1.0924                 1.0647
 Frc consts  --      7.4926                 8.1866                 8.2507
 IR Inten    --      2.1428                 1.1699                46.9676

 - Thermochemistry -
 -------------------
 Temperature   298.150 Kelvin.  Pressure   1.00000 Atm.
 Atom     1 has atomic number  6 and mass  12.00000

 Molecular mass:   220.15756 amu.
 Principal axes and moments of inertia in atomic units:
                           1         2         3
     Eigenvalues --  1259.977727479.833237873.10534
           X            0.99998  -0.00031  -0.00664
           Y            0.00022   0.99990  -0.01397
           Z            0.00665   0.01396   0.99988
 This molecule is an asymmetric top.
 Rotational symmetry number  1.
 Warning -- assumption of classical behavior for rotation
           may cause significant error
 Rotational temperatures (Kelvin)      0.06874     0.01158     0.01100
 Rotational constants (GHZ):           1.43236     0.24128     0.22923
 Zero-point vibrational energy     843202.7 (Joules/Mol)
                                  201.53028 (Kcal/Mol)
 Warning -- explicit consideration of  24 degrees of freedom as
           vibrations may cause significant error
 Vibrational temperatures:     47.61    64.90    94.74   155.24   189.55
          (Kelvin)            199.25   291.63   323.01   374.87   404.60
                              454.00   473.65   480.52   497.09   565.88
                              574.11   630.77   674.05   720.55   734.36
                              851.52   854.53   858.54   873.67   950.24
                             1049.46  1099.04  1107.50  1156.58  1176.92
                             1186.79  1263.89  1273.46  1298.13  1354.90
                             1397.43  1409.07  1412.36  1419.81  1439.91
                             1453.68  1518.52  1553.74  1557.34  1559.84
                             1566.76  1617.85  1629.42  1666.27  1698.01
                             1721.67  1738.65  1754.64  1763.04  1777.24
                             1808.37  1835.63  1862.50  1887.81  1932.02
                             1944.86  1961.98  1980.29  1987.72  1998.29
                             2008.59  2013.99  2053.33  2064.97  2092.54
                             2115.98  2152.03  2168.60  2177.24  2179.59
                             2180.60  2196.19  2213.48  2226.58  2364.47
                             2400.09  2434.27  4231.22  4237.59  4265.43
                             4362.24  4365.21  4367.65  4416.40  4421.28
                             4438.03  4440.70  4449.38  4458.51  4471.00
                             4565.23  4571.23  4593.25  4615.26  5006.34
                             5131.29  5217.92

 Zero-point correction=                           0.321159 (Hartree/Particle)
 Thermal correction to Energy=                    0.335886
 Thermal correction to Enthalpy=                  0.336830
 Thermal correction to Gibbs Free Energy=         0.279050
 Sum of electronic and zero-point Energies=           -691.882593
 Sum of electronic and thermal Energies=              -691.867865
 Sum of electronic and thermal Enthalpies=            -691.866921
 Sum of electronic and thermal Free Energies=         -691.924702

                     E (Thermal)             CV                S
                      KCal/Mol        Cal/Mol-Kelvin    Cal/Mol-Kelvin
 Total                  210.772             58.841            121.609
 Electronic               0.000              0.000              0.000
 Translational            0.889              2.981             42.070
 Rotational               0.889              2.981             32.673
 Vibrational            208.994             52.880             46.866
 Vibration     1          0.594              1.983              5.635
 Vibration     2          0.595              1.979              5.021
 Vibration     3          0.597              1.971              4.274
 Vibration     4          0.606              1.943              3.306
 Vibration     5          0.612              1.922              2.920
 Vibration     6          0.614              1.915              2.825
 Vibration     7          0.639              1.836              2.109
 Vibration     8          0.649              1.804              1.922
 Vibration     9          0.669              1.745              1.658
 Vibration    10          0.681              1.708              1.526
 Vibration    11          0.703              1.644              1.333
 Vibration    12          0.712              1.617              1.264
 Vibration    13          0.716              1.608              1.241
 Vibration    14          0.724              1.584              1.187
 Vibration    15          0.761              1.484              0.988
 Vibration    16          0.765              1.472              0.966
 Vibration    17          0.799              1.386              0.832
 Vibration    18          0.826              1.320              0.742
 Vibration    19          0.856              1.248              0.656
 Vibration    20          0.866              1.227              0.633
 Vibration    21          0.949              1.049              0.464
 Vibration    22          0.952              1.045              0.460
 Vibration    23          0.955              1.039              0.455
 Vibration    24          0.966              1.016              0.437

 Optimization completed.
    -- Stationary point found.
 Normal termination of Gaussian 16 at Thu Dec 10 22:24:38 2020.

 ----------------------------------------------------------------------
 # B3LYP/6-311++G(d,p) empiricaldispersion=gd3bj scf=xqc pop=npa geom=c
 heck
 ----------------------------------------------------------------------

 --------------------------------------
 CID_64382110_JID_6321_Energie_neutraal
 --------------------------------------
 Structure from the checkpoint file:  "JID_6321.chk"
 Charge =  0 Multiplicity = 1

 SCF Done:  E(RB3LYP) =  -692.406641908     A.U. after   14 cycles
 Normal termination of Gaussian 16 at Thu Dec 10 22:31:28 2020.

 ----------------------------------------------------------------------
 # B3LYP/6-311++G(d,p) empiricaldispersion=gd3bj scf=xqc pop=npa geom=c
 heck
 ----------------------------------------------------------------------

 ------------------------------------
 CID_64382110_JID_6321_Energie_kation
 ------------------------------------
 Structure from the checkpoint file:  "JID_6321.chk"
 Charge =  1 Multiplicity = 2

 SCF Done:  E(UB3LYP) =  -692.114013536     A.U. after   25 cycles
 Normal termination of Gaussian 16 at Thu Dec 10 22:47:00 2020.
 Gaussian 16:  ES64L-G16RevA.03 25-Dec-2016

 ----------------------------------------------------------------------
 # B3LYP/6-311++G(d,p) empiricaldispersion=gd3bj scf=xqc pop=npa geom=c
 heck
 ----------------------------------------------------------------------

 -----------------------------------
 CID_64382110_JID_6321_Energie_anion
 -----------------------------------
 Structure from the checkpoint file:  "JID_6321.chk"
 Charge = -1 Multiplicity = 2

                         Standard orientation:
 ---------------------------------------------------------------------
 Center     Atomic      Atomic             Coordinates (Angstroms)
 Number     Number       Type             X           Y           Z
 ---------------------------------------------------------------------
      1          6           0        0.804777   -1.342370    0.613938
      2          6           0       -0.295084   -1.068627   -0.426258
      3          7           0       -0.965300    0.223536   -0.262488
      4          6           0       -0.106616    1.367720   -0.574459
      5          6           0        1.029479    1.591598    0.438764
      6          6           0        2.242286    0.713541    0.245047
      7          6           0        3.486959    1.285108   -0.035226
      8          6           0        4.620260    0.495690   -0.231872
      9          6           0        4.513818   -0.890870   -0.149756
     10          6           0        3.275491   -1.470180    0.128075
     11          6           0        2.134744   -0.687133    0.328097
     12          6           0       -2.209814    0.277959   -1.035318
     13          6           0       -3.332883   -0.638447   -0.505572
     14          6           0       -3.444775   -0.598836    1.022117
     15          7           0       -3.750100    0.783955    1.421108
     16          8           0       -4.563185   -0.225616   -1.085404
     17          1           0        0.419596   -1.027992    1.593847
     18          1           0        0.955011   -2.426467    0.668656
     19          1           0       -1.055993   -1.845441   -0.312825
     20          1           0        0.124856   -1.178341   -1.444617
     21          1           0        0.321450    1.296049   -1.592763
     22          1           0       -0.748707    2.255344   -0.561199
     23          1           0        0.607521    1.455272    1.444196
     24          1           0        1.342286    2.639501    0.368001
     25          1           0        3.567185    2.367792   -0.100122
     26          1           0        5.576991    0.962439   -0.448902
     27          1           0        5.386420   -1.519911   -0.301941
     28          1           0        3.189572   -2.552521    0.191369
     29          1           0       -2.590882    1.302488   -0.972307
     30          1           0       -2.054457    0.067162   -2.109332
     31          1           0       -3.177386   -1.673480   -0.829147
     32          1           0       -4.288615   -1.234192    1.311268
     33          1           0       -2.534770   -1.001072    1.488077
     34          1           0       -4.136220    0.805421    2.361727
     35          1           0       -2.877113    1.308681    1.451928
     36          1           0       -4.825323    0.540847   -0.538497
 ---------------------------------------------------------------------

 SCF Done:  E(UB3LYP) =  -692.394836674     A.U. after   33 cycles
 SCF Done:  E(UB3LYP) =  -692.394836674     a.u. after    1 cycles

 The electronic state is 2-A.
 Alpha  occ. eigenvalues --  -19.02111 -14.21688 -14.20086 -10.12425 -10.10575
 Alpha  occ. eigenvalues --  -10.10369 -10.09833 -10.09452 -10.08772 -10.08692
 Alpha  occ. eigenvalues --  -10.08199 -10.08145 -10.08101 -10.08009 -10.07948
 Alpha  occ. eigenvalues --  -10.07832  -0.92887  -0.83909  -0.78651  -0.77082
 Alpha  occ. eigenvalues --   -0.69709  -0.69295  -0.65170  -0.64484  -0.60674
 Alpha  occ. eigenvalues --   -0.56786  -0.56121  -0.51586  -0.50147  -0.47786
 Alpha  occ. eigenvalues --   -0.47329  -0.42474  -0.41550  -0.40327  -0.38849
 Alpha  occ. eigenvalues --   -0.37876  -0.37180  -0.36491  -0.36027  -0.35384
 Alpha  occ. eigenvalues --   -0.33593  -0.33141  -0.32316  -0.31052  -0.30817
 Alpha  occ. eigenvalues --   -0.29945  -0.27945  -0.27340  -0.26972  -0.26561
 Alpha  occ. eigenvalues --   -0.25687  -0.25118  -0.24524  -0.23320  -0.22963
 Alpha  occ. eigenvalues --   -0.18598  -0.16095  -0.15824  -0.15112  -0.13334
 Alpha  occ. eigenvalues --    0.04098
 Alpha virt. eigenvalues --    0.05707   0.06303   0.07272   0.07470   0.07578
 Alpha virt. eigenvalues --    0.08041   0.08247   0.09456   0.09539   0.10036
 Alpha virt. eigenvalues --    0.10134   0.10476   0.11771   0.12179   0.12579

  Beta  occ. eigenvalues --  -19.02105 -14.21677 -14.20035 -10.12422 -10.10570
  Beta  occ. eigenvalues --  -10.10358 -10.09825 -10.09432 -10.08772 -10.08690
  Beta  occ. eigenvalues --  -10.08188 -10.08133 -10.08085 -10.07985 -10.07921
  Beta  occ. eigenvalues --  -10.07813  -0.92872  -0.83890  -0.78574  -0.77050
  Beta  occ. eigenvalues --   -0.69677  -0.69264  -0.65134  -0.64444  -0.60629
  Beta  occ. eigenvalues --   -0.56742  -0.56081  -0.51531  -0.50107  -0.47749
  Beta  occ. eigenvalues --   -0.47296  -0.42434  -0.41498  -0.40295  -0.38823
  Beta  occ. eigenvalues --   -0.37840  -0.37141  -0.36449  -0.35993  -0.35351
  Beta  occ. eigenvalues --   -0.33558  -0.33108  -0.32276  -0.31021  -0.30780
  Beta  occ. eigenvalues --   -0.29912  -0.27917  -0.27313  -0.26939  -0.26531
  Beta  occ. eigenvalues --   -0.25645  -0.25087  -0.24490  -0.23292  -0.22942
  Beta  occ. eigenvalues --   -0.18578  -0.15996  -0.15771  -0.15075  -0.13284
  Beta virt. eigenvalues --    0.06111   0.06768   0.06925   0.07606   0.07746
  Beta virt. eigenvalues --    0.07972   0.08333   0.08455   0.09890   0.10002
  Beta virt. eigenvalues --    0.10223   0.10356   0.10664   0.11993   0.12329

 Mulliken charges and spin densities:
               1          2
     1  C    0.681076  -1.146548
     2  C   -0.418023  -0.411457
     3  N    0.194053   0.123039
     4  C   -0.130170  -0.430491
     5  C    0.797175  -1.167822
     6  C   -1.381904   2.302605
     7  C    0.211156  -0.652621
     8  C    0.760185  -1.235601
     9  C    0.848207  -1.312456
    10  C    0.082876  -0.530383
    11  C   -1.341483   2.216215
    12  C    0.552742  -0.805552
    13  C   -0.709819   0.568140
    14  C    1.088155  -1.436403
    15  N   -0.515610   0.030523
    16  O   -0.235665   0.011240
    17  H   -0.010679   0.184366
    18  H   -0.360772   0.536496
    19  H    0.348197  -0.238798
    20  H    0.026872   0.085085
    21  H    0.134528  -0.016886
    22  H   -0.128733   0.295348
    23  H   -0.154855   0.338801
    24  H   -0.312349   0.489057
    25  H   -0.203906   0.340890
    26  H   -0.288541   0.445214
    27  H   -0.286973   0.442582
    28  H   -0.146604   0.282746
    29  H    0.034687   0.128556
    30  H    0.120298  -0.016886
    31  H   -0.003503   0.212230
    32  H   -0.112692   0.316632
    33  H   -0.163891   0.284846
    34  H   -0.346095   0.613390
    35  H    0.101238   0.158980
    36  H    0.270820  -0.005077
 Sum of Mulliken charges =  -1.00000   1.00000

 Dipole moment (field-independent basis, Debye):
    X=              1.2598    Y=             -1.4557    Z=             -3.7585  Tot=              4.2228
 Quadrupole moment (field-independent basis, Debye-Ang):
   XX=           -200.9379   YY=           -138.3829   ZZ=           -138.4147
   XY=              2.4825   XZ=              8.6949   YZ=             -3.4045

 Summary of Natural Population Analysis:

                                       Natural Population
                Natural  -----------------------------------------------
    Atom  No    Charge         Core      Valence    Rydberg      Total
 -----------------------------------------------------------------------
      C    1   -0.20507      0.99959     2.19579    0.00969     3.20507
      C    2   -0.07913      0.99960     2.06894    0.01059     3.07913
      N    3   -0.28735      0.99970     2.77584    0.01181     3.78735
      C    4   -0.07737      0.99960     2.06657    0.01120     3.07737
      C    5   -0.20582      0.99959     2.19575    0.01047     3.20582
      C    6   -0.01232      0.99946     2.00300    0.00986     3.01232
      C    7   -0.10785      0.99953     2.09361    0.01472     3.10785
      C    8   -0.07265      0.99957     2.06589    0.00719     3.07265
      C    9   -0.11629      0.99958     2.10172    0.01499     3.11629
      C   10   -0.09552      0.99951     2.08688    0.00912     3.09552
      C   11   -0.01328      0.99946     2.00400    0.00982     3.01328
      C   12   -0.09475      0.99959     2.08415    0.01101     3.09475
      C   13    0.05653      0.99957     1.92951    0.01439     2.94347
      C   14   -0.10302      0.99961     2.09105    0.01236     3.10302
      N   15   -0.43989      0.99977     2.92849    0.01163     3.93989
      O   16   -0.37833      0.99990     3.37174    0.00669     4.37833
      H   17    0.10925      0.00000     0.38886    0.00189     0.39075
      H   18    0.10276      0.00000     0.39609    0.00115     0.39724
      H   19    0.09602      0.00000     0.40235    0.00163     0.40398
      H   20    0.08167      0.00000     0.41700    0.00133     0.41833
      H   21    0.08016      0.00000     0.41848    0.00136     0.41984
      H   22    0.09808      0.00000     0.40054    0.00138     0.40192
      H   23    0.10924      0.00000     0.38855    0.00221     0.39076
      H   24    0.10401      0.00000     0.39468    0.00131     0.39599
      H   25    0.09944      0.00000     0.39946    0.00110     0.40056
      H   26    0.09641      0.00000     0.40226    0.00132     0.40359
      H   27    0.09994      0.00000     0.39908    0.00098     0.40006
      H   28    0.09882      0.00000     0.40008    0.00110     0.40118
      H   29    0.09969      0.00000     0.39877    0.00154     0.40031
      H   30    0.08586      0.00000     0.41286    0.00128     0.41414
      H   31    0.08481      0.00000     0.41388    0.00130     0.41519
      H   32    0.09353      0.00000     0.40532    0.00114     0.40647
      H   33    0.09134      0.00000     0.40648    0.00217     0.40866
      H   34    0.18365      0.00000     0.31241    0.00395     0.31635
      H   35    0.18172      0.00000     0.31496    0.00332     0.31828
      H   36    0.23609      0.00000     0.26072    0.00319     0.26391
 =======================================================================
   * Total *    0.00040     15.99364    43.79577    0.21018    59.99960

 Normal termination of Gaussian 16 at Thu Dec 10 23:07:42 2020.
