 Gaussian 16, Revision A.03,

 -----------------------------------------------------------
 # opt freq B3LYP/6-31G(d) empiricaldispersion=gd3bj scf=xqc
 -----------------------------------------------------------

 -------------------------------
 CID_137469965_JID_1489_neutraal
 -------------------------------
 Symbolic Z-matrix:
 Charge =  0 Multiplicity = 1

 SCF Done:  E(RB3LYP) =  -479.500535760     A.U. after   15 cycles
 SCF Done:  E(RB3LYP) =  -479.505220583     A.U. after   13 cycles
 SCF Done:  E(RB3LYP) =  -479.505959342     A.U. after   14 cycles
 SCF Done:  E(RB3LYP) =  -479.507053638     A.U. after   13 cycles
 SCF Done:  E(RB3LYP) =  -479.507727769     A.U. after   15 cycles
 SCF Done:  E(RB3LYP) =  -479.508252780     A.U. after   13 cycles
 SCF Done:  E(RB3LYP) =  -479.508315111     A.U. after   12 cycles
 SCF Done:  E(RB3LYP) =  -479.508371570     A.U. after   13 cycles
 SCF Done:  E(RB3LYP) =  -479.508393822     A.U. after   11 cycles
 SCF Done:  E(RB3LYP) =  -479.508403398     A.U. after   12 cycles
 SCF Done:  E(RB3LYP) =  -479.508405175     A.U. after    9 cycles
 SCF Done:  E(RB3LYP) =  -479.508405554     A.U. after    9 cycles
 SCF Done:  E(RB3LYP) =  -479.508405635     A.U. after    8 cycles
 Optimization completed.
    -- Stationary point found.
 Normal termination of Gaussian 16 at Tue Dec  8 20:11:01 2020.

 --------------------------------------------------------------------
 #N Geom=AllCheck Guess=TCheck SCRF=Check GenChk RB3LYP/6-31G(d) Freq
 --------------------------------------------------------------------

 Structure from the checkpoint file:  "JID_1489.chk"
 -------------------------------
 CID_137469965_JID_1489_neutraal
 -------------------------------
 Charge =  0 Multiplicity = 1

 SCF Done:  E(RB3LYP) =  -479.508405635     A.U. after    1 cycles

  Exact polarizability: 247.773   9.527  90.618  -0.457  -8.822  56.425
 Approx polarizability: 420.182  28.111 132.184  -2.860 -21.008  89.940

                      1                      2                      3
                      A                      A                      A
 Frequencies --     33.0611                69.0506               101.7095
 Red. masses --      4.0603                 3.7047                 2.6344
 Frc consts  --      0.0026                 0.0104                 0.0161
 IR Inten    --      0.6842                 1.6703                 0.0738

                      4                      5                      6
                      A                      A                      A
 Frequencies --    105.6398               126.5497               158.6148
 Red. masses --      3.1077                 1.1122                 3.6488
 Frc consts  --      0.0204                 0.0105                 0.0541
 IR Inten    --      0.4698                 0.2410                 5.0548

                      7                      8                      9
                      A                      A                      A
 Frequencies --    175.6737               187.7719               217.2786
 Red. masses --      2.5684                 2.6525                 3.3481
 Frc consts  --      0.0467                 0.0551                 0.0931
 IR Inten    --      0.3236                 1.1567                 3.2625

                     10                     11                     12
                      A                      A                      A
 Frequencies --    255.7149               342.5684               358.7780
 Red. masses --      3.8004                 3.2072                 4.1265
 Frc consts  --      0.1464                 0.2218                 0.3130
 IR Inten    --      8.8797                 2.2103                 1.9336

                     13                     14                     15
                      A                      A                      A
 Frequencies --    386.1569               475.5884               522.7760
 Red. masses --      2.5099                 3.3172                 3.1866
 Frc consts  --      0.2205                 0.4421                 0.5131
 IR Inten    --      3.7714                 7.7762                 4.0499

                     16                     17                     18
                      A                      A                      A
 Frequencies --    608.2739               618.7771               687.5556
 Red. masses --      2.6747                 1.8685                 2.9439
 Frc consts  --      0.5831                 0.4215                 0.8200
 IR Inten    --      1.0179                 8.6471                10.2282

                     19                     20                     21
                      A                      A                      A
 Frequencies --    724.6529               754.0135               756.5167
 Red. masses --      2.3193                 3.2372                 1.9231
 Frc consts  --      0.7176                 1.0844                 0.6485
 IR Inten    --      2.4837                 3.6735                 0.2961

                     22                     23                     24
                      A                      A                      A
 Frequencies --    851.7100               933.4083               936.4290
 Red. masses --      1.5555                 1.3874                 1.7256
 Frc consts  --      0.6648                 0.7122                 0.8915
 IR Inten    --     14.2079                35.7063                 5.9787

                     25                     26                     27
                      A                      A                      A
 Frequencies --    944.4807               970.6250               995.6713
 Red. masses --      1.3946                 2.1025                 1.8158
 Frc consts  --      0.7330                 1.1670                 1.0606
 IR Inten    --     41.9583                13.7314                 0.4005

                     28                     29                     30
                      A                      A                      A
 Frequencies --   1001.9924              1011.6416              1048.1357
 Red. masses --      1.3506                 1.1932                 1.4546
 Frc consts  --      0.7989                 0.7195                 0.9415
 IR Inten    --      3.6182                14.8209                12.1859

                     31                     32                     33
                      A                      A                      A
 Frequencies --   1055.9236              1122.7360              1176.3819
 Red. masses --      1.3282                 2.0883                 2.1442
 Frc consts  --      0.8725                 1.5509                 1.7483
 IR Inten    --      2.2483                12.3171                31.5566

                     34                     35                     36
                      A                      A                      A
 Frequencies --   1197.9891              1279.4723              1329.9864
 Red. masses --      2.8372                 1.8002                 1.8977
 Frc consts  --      2.3991                 1.7364                 1.9777
 IR Inten    --     25.1106                 8.4865                21.0208

                     37                     38                     39
                      A                      A                      A
 Frequencies --   1355.1764              1361.1511              1407.2744
 Red. masses --      1.3426                 1.2960                 1.2945
 Frc consts  --      1.4527                 1.4147                 1.5105
 IR Inten    --      0.8923                10.3260                40.7500

                     40                     41                     42
                      A                      A                      A
 Frequencies --   1413.9234              1455.7771              1490.2514
 Red. masses --      1.4223                 1.2245                 1.0562
 Frc consts  --      1.6753                 1.5290                 1.3821
 IR Inten    --      0.4296                 0.8804                15.3559

                     43                     44                     45
                      A                      A                      A
 Frequencies --   1491.5360              1496.6863              1608.3531
 Red. masses --      1.3348                 1.1011                 9.1934
 Frc consts  --      1.7495                 1.4533                14.0116
 IR Inten    --      6.3909                 3.2591                33.1323

                     46                     47                     48
                      A                      A                      A
 Frequencies --   1647.7529              1696.0582              1708.8344
 Red. masses --      4.8745                 3.9344                 4.4495
 Frc consts  --      7.7976                 6.6683                 7.6552
 IR Inten    --     19.2898                 1.9000                 2.9423

                     49                     50                     51
                      A                      A                      A
 Frequencies --   1796.1227              3052.2814              3119.8637
 Red. masses --     10.9066                 1.0385                 1.0954
 Frc consts  --     20.7306                 5.7007                 6.2822
 IR Inten    --    121.4607                 0.8474                 3.4704

                     52                     53                     54
                      A                      A                      A
 Frequencies --   3134.3946              3156.7781              3166.0302
 Red. masses --      1.0862                 1.0852                 1.0612
 Frc consts  --      6.2873                 6.3718                 6.2674
 IR Inten    --     29.2770                 4.5025                10.1696

                     55                     56                     57
                      A                      A                      A
 Frequencies --   3166.7564              3183.0547              3191.2889
 Red. masses --      1.1046                 1.0620                 1.0911
 Frc consts  --      6.5263                 6.3394                 6.5470
 IR Inten    --      7.2635                 7.1426                 9.2604

                     58                     59                     60
                      A                      A                      A
 Frequencies --   3210.7042              3254.1535              3273.2866
 Red. masses --      1.0899                 1.1151                 1.1181
 Frc consts  --      6.6199                 6.9573                 7.0582
 IR Inten    --      2.9879                11.6350                 7.5295

 - Thermochemistry -
 -------------------
 Temperature   298.150 Kelvin.  Pressure   1.00000 Atm.
 Atom     1 has atomic number  6 and mass  12.00000

 Molecular mass:   149.08406 amu.
 Principal axes and moments of inertia in atomic units:
                           1         2         3
     Eigenvalues --   825.754502917.118533380.10162
           X            1.00000   0.00007   0.00007
           Y           -0.00007   0.99941   0.03435
           Z           -0.00006  -0.03435   0.99941
 This molecule is an asymmetric top.
 Rotational symmetry number  1.
 Warning -- assumption of classical behavior for rotation
           may cause significant error
 Rotational temperatures (Kelvin)      0.10489     0.02969     0.02562
 Rotational constants (GHZ):           2.18557     0.61867     0.53393
 Zero-point vibrational energy     468701.6 (Joules/Mol)
                                  112.02238 (Kcal/Mol)
 Warning -- explicit consideration of  17 degrees of freedom as
           vibrations may cause significant error
 Vibrational temperatures:     47.57    99.35   146.34   151.99   182.08
          (Kelvin)            228.21   252.76   270.16   312.62   367.92
                              492.88   516.20   555.59   684.27   752.16
                              875.17   890.28   989.24  1042.61  1084.86
                             1088.46  1225.42  1342.97  1347.31  1358.90
                             1396.51  1432.55  1441.64  1455.53  1508.03
                             1519.24  1615.37  1692.55  1723.64  1840.88
                             1913.55  1949.80  1958.39  2024.75  2034.32
                             2094.54  2144.14  2145.99  2153.40  2314.06
                             2370.75  2440.25  2458.63  2584.22  4391.55
                             4488.79  4509.69  4541.90  4555.21  4556.26
                             4579.71  4591.55  4619.49  4682.00  4709.53

 Zero-point correction=                           0.178519 (Hartree/Particle)
 Thermal correction to Energy=                    0.190746
 Thermal correction to Enthalpy=                  0.191690
 Thermal correction to Gibbs Free Energy=         0.139490
 Sum of electronic and zero-point Energies=           -479.329887
 Sum of electronic and thermal Energies=              -479.317660
 Sum of electronic and thermal Enthalpies=            -479.316716
 Sum of electronic and thermal Free Energies=         -479.368915

                     E (Thermal)             CV                S
                      KCal/Mol        Cal/Mol-Kelvin    Cal/Mol-Kelvin
 Total                  119.695             43.211            109.863
 Electronic               0.000              0.000              0.000
 Translational            0.889              2.981             40.908
 Rotational               0.889              2.981             30.477
 Vibrational            117.917             37.249             38.477
 Vibration     1          0.594              1.983              5.637
 Vibration     2          0.598              1.969              4.180
 Vibration     3          0.604              1.948              3.421
 Vibration     4          0.605              1.945              3.347
 Vibration     5          0.611              1.927              2.998
 Vibration     6          0.621              1.893              2.566
 Vibration     7          0.628              1.872              2.374
 Vibration     8          0.632              1.857              2.250
 Vibration     9          0.646              1.815              1.982
 Vibration    10          0.666              1.753              1.691
 Vibration    11          0.722              1.590              1.200
 Vibration    12          0.734              1.557              1.127
 Vibration    13          0.755              1.500              1.015
 Vibration    14          0.832              1.304              0.722
 Vibration    15          0.878              1.200              0.604
 Vibration    16          0.967              1.014              0.436
 Vibration    17          0.979              0.992              0.418

                           ! Non-Optimized Parameters !
 Normal termination of Gaussian 16 at Tue Dec  8 20:15:47 2020.

 ----------------------------------------------------------------------
 # B3LYP/6-311++G(d,p) empiricaldispersion=gd3bj scf=xqc pop=npa geom=c
 heck
 ----------------------------------------------------------------------

 ---------------------------------------
 CID_137469965_JID_1489_Energie_neutraal
 ---------------------------------------
 Structure from the checkpoint file:  "JID_1489.chk"
 Charge =  0 Multiplicity = 1

 SCF Done:  E(RB3LYP) =  -479.646691621     A.U. after   16 cycles
 Normal termination of Gaussian 16 at Tue Dec  8 20:17:49 2020.

 ----------------------------------------------------------------------
 # B3LYP/6-311++G(d,p) empiricaldispersion=gd3bj scf=xqc pop=npa geom=c
 heck
 ----------------------------------------------------------------------

 -------------------------------------
 CID_137469965_JID_1489_Energie_kation
 -------------------------------------
 Structure from the checkpoint file:  "JID_1489.chk"
 Charge =  1 Multiplicity = 2

 SCF Done:  E(UB3LYP) =  -479.350730382     A.U. after   24 cycles
 Normal termination of Gaussian 16 at Tue Dec  8 20:22:10 2020.
 Gaussian 16:  ES64L-G16RevA.03 25-Dec-2016

 ----------------------------------------------------------------------
 # B3LYP/6-311++G(d,p) empiricaldispersion=gd3bj scf=xqc pop=npa geom=c
 heck
 ----------------------------------------------------------------------

 ------------------------------------
 CID_137469965_JID_1489_Energie_anion
 ------------------------------------
 Structure from the checkpoint file:  "JID_1489.chk"
 Charge = -1 Multiplicity = 2

                         Standard orientation:
 ---------------------------------------------------------------------
 Center     Atomic      Atomic             Coordinates (Angstroms)
 Number     Number       Type             X           Y           Z
 ---------------------------------------------------------------------
      1          6           0        0.193798    1.682443    1.261368
      2          6           0       -0.176238    1.024729   -0.050727
      3          8           0       -0.287829    1.642306   -1.093679
      4          6           0       -0.490318   -0.464752    0.031858
      5          7           0       -1.707254   -0.912879    0.012624
      6          6           0       -2.792728   -0.060164   -0.168370
      7          6           0       -4.040679   -0.546377   -0.094002
      8          6           0        0.571665   -1.439389    0.239192
      9          6           0        1.914492   -1.286526    0.130034
     10          6           0        2.670373   -0.123172   -0.297540
     11          6           0        4.012560   -0.081550   -0.266060
     12          1           0        0.438562    2.733660    1.095122
     13          1           0        1.035703    1.163332    1.731194
     14          1           0       -0.656772    1.605291    1.951126
     15          1           0       -2.629054    0.996868   -0.386018
     16          1           0       -4.903153    0.097111   -0.231927
     17          1           0       -4.210232   -1.600129    0.103889
     18          1           0        0.185313   -2.420272    0.504963
     19          1           0        2.521193   -2.158294    0.372653
     20          1           0        2.131381    0.734845   -0.687576
     21          1           0        4.563667    0.790357   -0.603713
     22          1           0        4.599236   -0.922521    0.096827
 ---------------------------------------------------------------------

 SCF Done:  E(UB3LYP) =  -479.681359288     A.U. after   21 cycles

 The electronic state is 2-A.
 Alpha  occ. eigenvalues --  -18.98845 -14.14089 -10.13406 -10.05512 -10.05165
 Alpha  occ. eigenvalues --  -10.04850 -10.03468 -10.02040 -10.01876 -10.01802
 Alpha  occ. eigenvalues --  -10.00938  -0.92085  -0.77318  -0.66771  -0.63474
 Alpha  occ. eigenvalues --   -0.61618  -0.58723  -0.50977  -0.46907  -0.43767
 Alpha  occ. eigenvalues --   -0.40730  -0.37912  -0.35745  -0.33600  -0.32427
 Alpha  occ. eigenvalues --   -0.31708  -0.30867  -0.28451  -0.28184  -0.25223
 Alpha  occ. eigenvalues --   -0.25156  -0.24325  -0.23117  -0.22645  -0.20091
 Alpha  occ. eigenvalues --   -0.18632  -0.15018  -0.13069  -0.09258  -0.08096
 Alpha  occ. eigenvalues --    0.02351
 Alpha virt. eigenvalues --    0.09013   0.09334   0.09985   0.10394   0.10828
 Alpha virt. eigenvalues --    0.11829   0.12053   0.12580   0.13209   0.13817
 Alpha virt. eigenvalues --    0.14913   0.15011   0.15896   0.16112   0.17654

  Beta  occ. eigenvalues --  -18.98791 -14.13678 -10.13400 -10.05514 -10.04939
  Beta  occ. eigenvalues --  -10.04920 -10.03529 -10.01782 -10.01704 -10.01529
  Beta  occ. eigenvalues --  -10.00633  -0.91972  -0.76585  -0.66283  -0.63220
  Beta  occ. eigenvalues --   -0.61360  -0.58266  -0.50148  -0.46523  -0.43420
  Beta  occ. eigenvalues --   -0.40409  -0.37738  -0.35629  -0.33393  -0.32238
  Beta  occ. eigenvalues --   -0.31550  -0.30750  -0.28323  -0.27987  -0.25085
  Beta  occ. eigenvalues --   -0.24943  -0.24080  -0.22783  -0.21200  -0.19879
  Beta  occ. eigenvalues --   -0.17311  -0.14787  -0.11623  -0.08874  -0.06020
  Beta virt. eigenvalues --    0.08163   0.09036   0.09543   0.10109   0.10381
  Beta virt. eigenvalues --    0.10813   0.11997   0.12496   0.12829   0.13202
  Beta virt. eigenvalues --    0.13822   0.14905   0.15319   0.16053   0.16414

 Mulliken charges and spin densities:
               1          2
     1  C   -0.561820   0.001422
     2  C   -0.063897   0.001187
     3  O   -0.225592   0.008852
     4  C    0.020774   0.195752
     5  N   -0.046570   0.184876
     6  C    0.069478  -0.105858
     7  C   -0.563413   0.303029
     8  C   -0.079983  -0.014040
     9  C   -0.332579   0.242130
    10  C    0.175236  -0.089251
    11  C   -0.679497   0.333036
    12  H    0.136479   0.004177
    13  H    0.170055   0.002104
    14  H    0.144998   0.002250
    15  H    0.096089   0.002801
    16  H    0.073878  -0.013847
    17  H    0.082693  -0.015403
    18  H    0.159973  -0.000684
    19  H    0.105833  -0.012843
    20  H    0.137176   0.000171
    21  H    0.102928  -0.015464
    22  H    0.077760  -0.014395
 Sum of Mulliken charges =  -1.00000   1.00000

 Dipole moment (field-independent basis, Debye):
    X=              1.1570    Y=              1.8898    Z=              2.3723  Tot=              3.2462
 Quadrupole moment (field-independent basis, Debye-Ang):
   XX=           -110.2101   YY=            -79.0276   ZZ=            -79.0916
   XY=             -3.5302   XZ=              0.2090   YZ=              2.4089

 Summary of Natural Population Analysis:

                                       Natural Population
                Natural  -----------------------------------------------
    Atom  No    Charge         Core      Valence    Rydberg      Total
 -----------------------------------------------------------------------
      C    1   -0.33639      0.99961     2.33133    0.00546     3.33639
      C    2    0.27844      0.99964     1.69907    0.02284     2.72156
      O    3   -0.28579      0.99987     3.27843    0.00749     4.28579
      C    4    0.10659      0.99948     1.87639    0.01753     2.89341
      N    5   -0.18443      0.99964     2.66877    0.01602     3.68443
      C    6   -0.03497      0.99954     2.02277    0.01266     3.03497
      C    7   -0.13947      0.99961     2.13126    0.00860     3.13947
      C    8   -0.10400      0.99953     2.09464    0.00983     3.10400
      C    9   -0.04571      0.99954     2.03690    0.00927     3.04571
      C   10   -0.13247      0.99955     2.12385    0.00907     3.13247
      C   11   -0.12189      0.99960     2.11422    0.00806     3.12189
      H   12    0.09998      0.00000     0.39789    0.00214     0.40002
      H   13    0.11700      0.00000     0.38223    0.00076     0.38300
      H   14    0.10933      0.00000     0.38904    0.00163     0.39067
      H   15    0.07362      0.00000     0.42338    0.00300     0.42638
      H   16    0.07938      0.00000     0.41983    0.00079     0.42062
      H   17    0.08636      0.00000     0.41235    0.00128     0.41364
      H   18    0.09719      0.00000     0.40128    0.00154     0.40281
      H   19    0.08185      0.00000     0.41619    0.00196     0.41815
      H   20    0.09615      0.00000     0.40214    0.00171     0.40385
      H   21    0.08110      0.00000     0.41792    0.00098     0.41890
      H   22    0.07815      0.00000     0.42064    0.00121     0.42185
 =======================================================================
   * Total *    0.00000     10.99562    28.86055    0.14382    40.00000

 Normal termination of Gaussian 16 at Tue Dec  8 20:26:35 2020.
