 Gaussian 16, Revision A.03,

 -----------------------------------------------------------
 # opt freq B3LYP/6-31G(d) empiricaldispersion=gd3bj scf=xqc
 -----------------------------------------------------------

 ------------------------------
 CID_23797982_JID_8931_neutraal
 ------------------------------
 Symbolic Z-matrix:
 Charge =  0 Multiplicity = 1

 SCF Done:  E(RB3LYP) =  -789.511449905     A.U. after   15 cycles
 SCF Done:  E(RB3LYP) =  -789.518835664     A.U. after   13 cycles
 SCF Done:  E(RB3LYP) =  -789.518449447     A.U. after   13 cycles
 SCF Done:  E(RB3LYP) =  -789.519449025     A.U. after   13 cycles
 SCF Done:  E(RB3LYP) =  -789.519954240     A.U. after   12 cycles
 SCF Done:  E(RB3LYP) =  -789.520275827     A.U. after   12 cycles
 SCF Done:  E(RB3LYP) =  -789.520427943     A.U. after   12 cycles
 SCF Done:  E(RB3LYP) =  -789.520533340     A.U. after   12 cycles
 SCF Done:  E(RB3LYP) =  -789.520641137     A.U. after   11 cycles
 SCF Done:  E(RB3LYP) =  -789.520753120     A.U. after   12 cycles
 SCF Done:  E(RB3LYP) =  -789.525761280     A.U. after    9 cycles
 SCF Done:  E(RB3LYP) =  -789.525765083     A.U. after    9 cycles
 SCF Done:  E(RB3LYP) =  -789.525767222     A.U. after    9 cycles
 SCF Done:  E(RB3LYP) =  -789.525767358     A.U. after    8 cycles
 SCF Done:  E(RB3LYP) =  -789.525766886     A.U. after    8 cycles
 Optimization completed.
    -- Stationary point found.
 Normal termination of Gaussian 16 at Fri Dec 11 23:50:16 2020.

 --------------------------------------------------------------------
 #N Geom=AllCheck Guess=TCheck SCRF=Check GenChk RB3LYP/6-31G(d) Freq
 --------------------------------------------------------------------

 Structure from the checkpoint file:  "JID_8931.chk"
 ------------------------------
 CID_23797982_JID_8931_neutraal
 ------------------------------
 Charge =  0 Multiplicity = 1

 SCF Done:  E(RB3LYP) =  -789.525766885     A.U. after    1 cycles

  Exact polarizability: 204.756  -2.820 163.075   4.164   6.251 120.249
 Approx polarizability: 274.865   2.309 267.139   8.423   6.041 175.284

                      1                      2                      3
                      A                      A                      A
 Frequencies --     27.2754                31.8967                45.2138
 Red. masses --      4.1596                 4.1126                 3.4730
 Frc consts  --      0.0018                 0.0025                 0.0042
 IR Inten    --      0.4055                 0.2106                 1.2223

                      4                      5                      6
                      A                      A                      A
 Frequencies --     71.1619                89.1944               121.0505
 Red. masses --      4.2024                 5.2251                 4.2399
 Frc consts  --      0.0125                 0.0245                 0.0366
 IR Inten    --      0.2923                 3.5702                 1.5051

                      7                      8                      9
                      A                      A                      A
 Frequencies --    152.1870               170.2655               177.5679
 Red. masses --      2.5726                 1.3536                 2.9421
 Frc consts  --      0.0351                 0.0231                 0.0547
 IR Inten    --      3.1648                 1.3609                 1.2751

                     10                     11                     12
                      A                      A                      A
 Frequencies --    208.5258               217.1263               288.1305
 Red. masses --      2.2399                 2.4643                 3.5886
 Frc consts  --      0.0574                 0.0685                 0.1755
 IR Inten    --      0.3839                 1.0439                 1.9776

                     13                     14                     15
                      A                      A                      A
 Frequencies --    297.1657               312.7842               324.8772
 Red. masses --      4.3134                 2.2178                 2.5491
 Frc consts  --      0.2244                 0.1278                 0.1585
 IR Inten    --      2.7273                 2.5286                 0.5368

                     16                     17                     18
                      A                      A                      A
 Frequencies --    335.7473               365.3938               413.5931
 Red. masses --      3.2940                 2.6534                 2.4300
 Frc consts  --      0.2188                 0.2087                 0.2449
 IR Inten    --      4.9593                 1.6114                 3.7639

                     19                     20                     21
                      A                      A                      A
 Frequencies --    435.1224               456.1789               466.9816
 Red. masses --      3.6566                 3.5482                 3.0134
 Frc consts  --      0.4079                 0.4350                 0.3872
 IR Inten    --     12.0788                 1.3192                 3.0237

                     22                     23                     24
                      A                      A                      A
 Frequencies --    502.0992               530.5285               547.7582
 Red. masses --      1.6444                 4.4150                 3.1691
 Frc consts  --      0.2442                 0.7321                 0.5602
 IR Inten    --      0.6071                 0.4952                 3.6652

                     25                     26                     27
                      A                      A                      A
 Frequencies --    566.3527               595.7712               618.2344
 Red. masses --      3.6976                 5.3840                 3.4379
 Frc consts  --      0.6988                 1.1259                 0.7742
 IR Inten    --      8.2722                 3.7408                11.3838

                     28                     29                     30
                      A                      A                      A
 Frequencies --    702.4431               732.3163               739.6149
 Red. masses --      3.5295                 3.1840                 2.3711
 Frc consts  --      1.0261                 1.0061                 0.7642
 IR Inten    --      5.7840                 3.1032                 7.9765

                     31                     32                     33
                      A                      A                      A
 Frequencies --    775.1961               779.2312               798.8044
 Red. masses --      2.6833                 1.9427                 2.6762
 Frc consts  --      0.9500                 0.6950                 1.0061
 IR Inten    --     16.4095                15.6793                15.4344

                     34                     35                     36
                      A                      A                      A
 Frequencies --    825.5423               855.1347               866.8230
 Red. masses --      1.5502                 3.0241                 2.1655
 Frc consts  --      0.6224                 1.3029                 0.9587
 IR Inten    --      4.3247                 9.2480                 7.6218

                     37                     38                     39
                      A                      A                      A
 Frequencies --    879.3852               902.5183               907.7811
 Red. masses --      1.6104                 1.5789                 2.1855
 Frc consts  --      0.7337                 0.7577                 1.0611
 IR Inten    --      6.7621                 1.5002                 8.2988

                     40                     41                     42
                      A                      A                      A
 Frequencies --    939.7240               947.3095               977.7991
 Red. masses --      1.5365                 2.1692                 1.2504
 Frc consts  --      0.7995                 1.1469                 0.7043
 IR Inten    --      0.2815                 2.8697                 0.0460

                     43                     44                     45
                      A                      A                      A
 Frequencies --    992.2121              1009.2928              1023.3786
 Red. masses --      2.1420                 2.3688                 1.5862
 Frc consts  --      1.2424                 1.4217                 0.9788
 IR Inten    --     15.0806                 3.6505                 1.4802

                     46                     47                     48
                      A                      A                      A
 Frequencies --   1024.9208              1034.4884              1066.7385
 Red. masses --      1.7409                 5.4156                 2.0421
 Frc consts  --      1.0775                 3.4147                 1.3691
 IR Inten    --     16.8326                66.6107                 3.3326

                     49                     50                     51
                      A                      A                      A
 Frequencies --   1073.5411              1078.9176              1083.4039
 Red. masses --      2.0195                 1.6000                 1.6490
 Frc consts  --      1.3713                 1.0973                 1.1404
 IR Inten    --      7.6174                 4.8688                 1.0567

                     52                     53                     54
                      A                      A                      A
 Frequencies --   1122.5840              1136.2527              1143.2115
 Red. masses --      2.1504                 2.0073                 1.6796
 Frc consts  --      1.5966                 1.5269                 1.2933
 IR Inten    --      2.1533                17.4539                48.5694

                     55                     56                     57
                      A                      A                      A
 Frequencies --   1190.3886              1204.1023              1217.4882
 Red. masses --      1.1232                 1.7759                 2.3382
 Frc consts  --      0.9377                 1.5170                 2.0420
 IR Inten    --      2.1343                55.5579                47.7385

                     58                     59                     60
                      A                      A                      A
 Frequencies --   1230.0684              1240.0759              1256.6939
 Red. masses --      1.3506                 1.7090                 1.5933
 Frc consts  --      1.2040                 1.5484                 1.4826
 IR Inten    --      3.9037                62.8965                21.9960

                     61                     62                     63
                      A                      A                      A
 Frequencies --   1290.1243              1293.4878              1312.4456
 Red. masses --      1.3042                 1.7698                 1.5258
 Frc consts  --      1.2790                 1.7446                 1.5485
 IR Inten    --      5.2284                76.2575                 0.9102

                     64                     65                     66
                      A                      A                      A
 Frequencies --   1313.7996              1325.1615              1350.2762
 Red. masses --      1.3796                 1.3200                 1.4251
 Frc consts  --      1.4030                 1.3657                 1.5309
 IR Inten    --      2.2138                50.9380                21.9671

                     67                     68                     69
                      A                      A                      A
 Frequencies --   1350.8862              1380.8704              1396.6765
 Red. masses --      6.7366                 1.2888                 1.3388
 Frc consts  --      7.2432                 1.4480                 1.5387
 IR Inten    --      0.6404                 0.0773                 8.4781

                     70                     71                     72
                      A                      A                      A
 Frequencies --   1402.5897              1409.2943              1410.7261
 Red. masses --      1.3441                 1.4239                 1.4301
 Frc consts  --      1.5579                 1.6662                 1.6769
 IR Inten    --      9.5168                14.0224                 5.6353

                     73                     74                     75
                      A                      A                      A
 Frequencies --   1417.5446              1434.4838              1453.8769
 Red. masses --      1.4001                 1.3145                 1.2347
 Frc consts  --      1.6576                 1.5937                 1.5377
 IR Inten    --      1.8448                 2.6942                 0.2631

                     76                     77                     78
                      A                      A                      A
 Frequencies --   1489.7784              1493.0504              1512.4062
 Red. masses --      1.8977                 1.8680                 1.1817
 Frc consts  --      2.4816                 2.4534                 1.5926
 IR Inten    --     77.4793                30.1505                16.5581

                     79                     80                     81
                      A                      A                      A
 Frequencies --   1514.5290              1515.8795              1518.0629
 Red. masses --      1.1254                 1.2047                 1.0870
 Frc consts  --      1.5209                 1.6310                 1.4760
 IR Inten    --      3.3422                32.1384                 7.1130

                     82                     83                     84
                      A                      A                      A
 Frequencies --   1525.6771              1528.6421              1530.3696
 Red. masses --      1.1674                 1.2447                 1.2612
 Frc consts  --      1.6010                 1.7137                 1.7403
 IR Inten    --      5.7294                 4.6703                24.9653

                     85                     86                     87
                      A                      A                      A
 Frequencies --   1535.4660              1538.7043              1546.2280
 Red. masses --      1.0884                 1.0947                 1.6575
 Frc consts  --      1.5120                 1.5270                 2.3347
 IR Inten    --      9.5276                28.7102                57.5933

                     88                     89                     90
                      A                      A                      A
 Frequencies --   1640.5790              1665.0678              1741.9723
 Red. masses --      5.6878                 6.1775                 9.2567
 Frc consts  --      9.0197                10.0909                16.5497
 IR Inten    --     11.5475                 6.5429               260.3962

                     91                     92                     93
                      A                      A                      A
 Frequencies --   3017.5899              3021.7713              3038.5864
 Red. masses --      1.0666                 1.0736                 1.0684
 Frc consts  --      5.7222                 5.7757                 5.8122
 IR Inten    --     28.0214                40.4249                41.3870

                     94                     95                     96
                      A                      A                      A
 Frequencies --   3042.4736              3047.3719              3048.2732
 Red. masses --      1.0647                 1.0688                 1.0646
 Frc consts  --      5.8067                 5.8476                 5.8282
 IR Inten    --     40.9686                15.5190                40.0510

                     97                     98                     99
                      A                      A                      A
 Frequencies --   3054.0763              3065.0113              3072.2996
 Red. masses --      1.0373                 1.0916                 1.0696
 Frc consts  --      5.7007                 6.0419                 5.9486
 IR Inten    --     17.3437                58.7156                17.8678

                    100                    101                    102
                      A                      A                      A
 Frequencies --   3080.1733              3091.7062              3103.3558
 Red. masses --      1.0974                 1.1017                 1.0957
 Frc consts  --      6.1341                 6.2044                 6.2173
 IR Inten    --     40.2938                31.7611                73.9616

                    103                    104                    105
                      A                      A                      A
 Frequencies --   3112.5318              3134.2516              3139.5951
 Red. masses --      1.0991                 1.1029                 1.1009
 Frc consts  --      6.2734                 6.3836                 6.3937
 IR Inten    --     11.5500                14.0724                 9.4548

                    106                    107                    108
                      A                      A                      A
 Frequencies --   3146.9944              3180.3539              3184.5181
 Red. masses --      1.0976                 1.0865                 1.0893
 Frc consts  --      6.4045                 6.4746                 6.5088
 IR Inten    --      8.2527                 5.8108                 5.1923

                    109                    110                    111
                      A                      A                      A
 Frequencies --   3191.5006              3203.7647              3214.0024
 Red. masses --      1.0885                 1.0927                 1.0973
 Frc consts  --      6.5323                 6.6079                 6.6781
 IR Inten    --     10.1279                30.1126                17.6631

 - Thermochemistry -
 -------------------
 Temperature   298.150 Kelvin.  Pressure   1.00000 Atm.
 Atom     1 has atomic number  6 and mass  12.00000

 Molecular mass:   247.15723 amu.
 Principal axes and moments of inertia in atomic units:
                           1         2         3
     Eigenvalues --  2250.210437427.666597526.23615
           X            0.99994   0.00604  -0.00908
           Y           -0.00330   0.96110   0.27618
           Z            0.01040  -0.27614   0.96106
 This molecule is an asymmetric top.
 Rotational symmetry number  1.
 Warning -- assumption of classical behavior for rotation
           may cause significant error
 Rotational temperatures (Kelvin)      0.03849     0.01166     0.01151
 Rotational constants (GHZ):           0.80203     0.24298     0.23979
 Zero-point vibrational energy     898122.9 (Joules/Mol)
                                  214.65653 (Kcal/Mol)
 Warning -- explicit consideration of  27 degrees of freedom as
           vibrations may cause significant error
 Vibrational temperatures:     39.24    45.89    65.05   102.39   128.33
          (Kelvin)            174.16   218.96   244.97   255.48   300.02
                              312.40   414.56   427.56   450.03   467.43
                              483.07   525.72   595.07   626.04   656.34
                              671.88   722.41   763.31   788.10   814.86
                              857.18   889.50  1010.66  1053.64  1064.14
                             1115.33  1121.14  1149.30  1187.77  1230.35
                             1247.16  1265.24  1298.52  1306.09  1352.05
                             1362.97  1406.83  1427.57  1452.15  1472.41
                             1474.63  1488.40  1534.80  1544.59  1552.32
                             1558.78  1615.15  1634.81  1644.83  1712.70
                             1732.43  1751.69  1769.79  1784.19  1808.10
                             1856.20  1861.04  1888.32  1890.26  1906.61
                             1942.75  1943.62  1986.76  2009.51  2018.01
                             2027.66  2029.72  2039.53  2063.90  2091.80
                             2143.46  2148.17  2176.02  2179.07  2181.01
                             2184.15  2195.11  2199.38  2201.86  2209.19
                             2213.85  2224.68  2360.43  2395.66  2506.31
                             4341.64  4347.65  4371.85  4377.44  4384.49
                             4385.79  4394.13  4409.87  4420.35  4431.68
                             4448.28  4465.04  4478.24  4509.49  4517.18
                             4527.82  4575.82  4581.81  4591.86  4609.50
                             4624.23

 Zero-point correction=                           0.342077 (Hartree/Particle)
 Thermal correction to Energy=                    0.358927
 Thermal correction to Enthalpy=                  0.359871
 Thermal correction to Gibbs Free Energy=         0.296498
 Sum of electronic and zero-point Energies=           -789.183690
 Sum of electronic and thermal Energies=              -789.166840
 Sum of electronic and thermal Enthalpies=            -789.165896
 Sum of electronic and thermal Free Energies=         -789.229269

                     E (Thermal)             CV                S
                      KCal/Mol        Cal/Mol-Kelvin    Cal/Mol-Kelvin
 Total                  225.230             65.620            133.380
 Electronic               0.000              0.000              0.000
 Translational            0.889              2.981             42.415
 Rotational               0.889              2.981             33.197
 Vibrational            223.452             59.659             57.768
 Vibration     1          0.593              1.984              6.018
 Vibration     2          0.594              1.983              5.708
 Vibration     3          0.595              1.979              5.016
 Vibration     4          0.598              1.968              4.121
 Vibration     5          0.602              1.957              3.678
 Vibration     6          0.609              1.932              3.084
 Vibration     7          0.619              1.900              2.645
 Vibration     8          0.625              1.879              2.433
 Vibration     9          0.628              1.870              2.354
 Vibration    10          0.642              1.828              2.057
 Vibration    11          0.646              1.815              1.983
 Vibration    12          0.685              1.696              1.485
 Vibration    13          0.691              1.679              1.433
 Vibration    14          0.701              1.649              1.348
 Vibration    15          0.709              1.626              1.285
 Vibration    16          0.717              1.604              1.232
 Vibration    17          0.739              1.543              1.099
 Vibration    18          0.777              1.441              0.914
 Vibration    19          0.796              1.394              0.842
 Vibration    20          0.814              1.347              0.777
 Vibration    21          0.824              1.323              0.746
 Vibration    22          0.857              1.245              0.653
 Vibration    23          0.885              1.182              0.586
 Vibration    24          0.903              1.145              0.549
 Vibration    25          0.922              1.104              0.511
 Vibration    26          0.954              1.041              0.457
 Vibration    27          0.978              0.993              0.419

 Optimization completed.
    -- Stationary point found.
 Normal termination of Gaussian 16 at Sat Dec 12 00:09:59 2020.

 ----------------------------------------------------------------------
 # B3LYP/6-311++G(d,p) empiricaldispersion=gd3bj scf=xqc pop=npa geom=c
 heck
 ----------------------------------------------------------------------

 --------------------------------------
 CID_23797982_JID_8931_Energie_neutraal
 --------------------------------------
 Structure from the checkpoint file:  "JID_8931.chk"
 Charge =  0 Multiplicity = 1

 SCF Done:  E(RB3LYP) =  -789.738749250     A.U. after   15 cycles
 Normal termination of Gaussian 16 at Sat Dec 12 00:17:59 2020.

 ----------------------------------------------------------------------
 # B3LYP/6-311++G(d,p) empiricaldispersion=gd3bj scf=xqc pop=npa geom=c
 heck
 ----------------------------------------------------------------------

 ------------------------------------
 CID_23797982_JID_8931_Energie_kation
 ------------------------------------
 Structure from the checkpoint file:  "JID_8931.chk"
 Charge =  1 Multiplicity = 2

 SCF Done:  E(UB3LYP) =  -789.438657325     A.U. after   29 cycles
 Normal termination of Gaussian 16 at Sat Dec 12 00:38:42 2020.
 Gaussian 16:  ES64L-G16RevA.03 25-Dec-2016

 ----------------------------------------------------------------------
 # B3LYP/6-311++G(d,p) empiricaldispersion=gd3bj scf=xqc pop=npa geom=c
 heck
 ----------------------------------------------------------------------

 -----------------------------------
 CID_23797982_JID_8931_Energie_anion
 -----------------------------------
 Structure from the checkpoint file:  "JID_8931.chk"
 Charge = -1 Multiplicity = 2

                         Standard orientation:
 ---------------------------------------------------------------------
 Center     Atomic      Atomic             Coordinates (Angstroms)
 Number     Number       Type             X           Y           Z
 ---------------------------------------------------------------------
      1          6           0        1.298904    1.929503    0.450789
      2          6           0        2.392972    0.897884    0.348727
      3          6           0        3.728645    1.208243    0.626854
      4          6           0        4.734938    0.244001    0.550292
      5          6           0        4.417879   -1.066577    0.195195
      6          6           0        3.093835   -1.401333   -0.089301
      7          6           0        2.101975   -0.426437   -0.014154
      8          8           0        0.786666   -0.791687   -0.262783
      9          6           0        0.321182   -0.537998   -1.600034
     10          6           0       -1.007501    0.219998   -1.553351
     11          8           0       -1.071186    1.354867   -2.028930
     12          7           0       -2.076698   -0.384766   -0.964605
     13          6           0       -3.285198    0.428672   -0.800043
     14          6           0       -3.160941    1.376664    0.399870
     15          6           0       -3.139232    0.686359    1.770241
     16          6           0       -2.154583   -0.486982    1.921569
     17          6           0       -2.554917   -1.724946    1.100579
     18          6           0       -2.052569   -1.713701   -0.356172
     19          1           0        0.515598    1.601729    1.144402
     20          1           0        1.699566    2.880957    0.812400
     21          1           0        0.806532    2.108804   -0.510987
     22          1           0        3.978906    2.226699    0.913345
     23          1           0        5.762436    0.516331    0.773661
     24          1           0        5.193347   -1.824997    0.138518
     25          1           0        2.811719   -2.413374   -0.363314
     26          1           0        1.022145    0.102173   -2.137420
     27          1           0        0.232578   -1.492240   -2.136366
     28          1           0       -4.137705   -0.250125   -0.688712
     29          1           0       -3.424846    1.007561   -1.714890
     30          1           0       -3.994859    2.090379    0.370594
     31          1           0       -2.246433    1.961983    0.254142
     32          1           0       -2.913731    1.443194    2.532592
     33          1           0       -4.147887    0.313395    2.002664
     34          1           0       -1.137627   -0.178869    1.648968
     35          1           0       -2.123387   -0.767110    2.981545
     36          1           0       -2.159587   -2.634683    1.568458
     37          1           0       -3.647703   -1.826580    1.121012
     38          1           0       -1.027203   -2.075656   -0.370766
     39          1           0       -2.661143   -2.401756   -0.960279
 ---------------------------------------------------------------------

 SCF Done:  E(UB3LYP) =  -789.725899653     A.U. after   33 cycles
 SCF Done:  E(UB3LYP) =  -789.725899653     a.u. after    1 cycles

 The electronic state is 2-A.
 Alpha  occ. eigenvalues --  -19.05639 -18.99689 -14.25194 -10.17933 -10.14408
 Alpha  occ. eigenvalues --  -10.14064 -10.11015 -10.10894 -10.09891 -10.08960
 Alpha  occ. eigenvalues --  -10.08935 -10.08755 -10.08722 -10.07866 -10.07524
 Alpha  occ. eigenvalues --  -10.07480 -10.07432 -10.07189  -0.97393  -0.94586
 Alpha  occ. eigenvalues --   -0.84798  -0.77239  -0.71224  -0.69011  -0.68770
 Alpha  occ. eigenvalues --   -0.67241  -0.63559  -0.60744  -0.59428  -0.57665
 Alpha  occ. eigenvalues --   -0.52802  -0.52215  -0.50285  -0.47719  -0.44733
 Alpha  occ. eigenvalues --   -0.44538  -0.42538  -0.40367  -0.39835  -0.38704
 Alpha  occ. eigenvalues --   -0.37543  -0.37020  -0.35883  -0.35258  -0.34273
 Alpha  occ. eigenvalues --   -0.33623  -0.33066  -0.32773  -0.32095  -0.31118
 Alpha  occ. eigenvalues --   -0.30661  -0.30258  -0.28835  -0.27576  -0.27020
 Alpha  occ. eigenvalues --   -0.26913  -0.26615  -0.25994  -0.24709  -0.23565
 Alpha  occ. eigenvalues --   -0.23250  -0.22719  -0.21093  -0.16826  -0.16077
 Alpha  occ. eigenvalues --   -0.15663  -0.15296   0.04014
 Alpha virt. eigenvalues --    0.05433   0.06290   0.06948   0.06998   0.07243
 Alpha virt. eigenvalues --    0.07373   0.07545   0.08848   0.09096   0.09327
 Alpha virt. eigenvalues --    0.09665   0.09757   0.10384   0.11239   0.11482

  Beta  occ. eigenvalues --  -19.05637 -18.99673 -14.25200 -10.17924 -10.14391
  Beta  occ. eigenvalues --  -10.14051 -10.10994 -10.10878 -10.09892 -10.08950
  Beta  occ. eigenvalues --  -10.08924 -10.08734 -10.08706 -10.07861 -10.07518
  Beta  occ. eigenvalues --  -10.07456 -10.07417 -10.07182  -0.97376  -0.94562
  Beta  occ. eigenvalues --   -0.84787  -0.77213  -0.71197  -0.68986  -0.68742
  Beta  occ. eigenvalues --   -0.67207  -0.63527  -0.60716  -0.59403  -0.57626
  Beta  occ. eigenvalues --   -0.52763  -0.52181  -0.50257  -0.47672  -0.44692
  Beta  occ. eigenvalues --   -0.44507  -0.42507  -0.40340  -0.39796  -0.38675
  Beta  occ. eigenvalues --   -0.37512  -0.36992  -0.35848  -0.35226  -0.34252
  Beta  occ. eigenvalues --   -0.33595  -0.33040  -0.32759  -0.32064  -0.31091
  Beta  occ. eigenvalues --   -0.30640  -0.30228  -0.28801  -0.27542  -0.26990
  Beta  occ. eigenvalues --   -0.26882  -0.26581  -0.25958  -0.24683  -0.23536
  Beta  occ. eigenvalues --   -0.23215  -0.22689  -0.21081  -0.16784  -0.16055
  Beta  occ. eigenvalues --   -0.15623  -0.15264
  Beta virt. eigenvalues --    0.05946   0.06325   0.06869   0.07039   0.07214
  Beta virt. eigenvalues --    0.07721   0.07869   0.08012   0.09180   0.09487
  Beta virt. eigenvalues --    0.09762   0.09856   0.09993   0.10598   0.11366

 Mulliken charges and spin densities:
               1          2
     1  C    0.022320  -0.707605
     2  C    0.251765   0.487555
     3  C   -0.645554   0.147773
     4  C    0.306286  -0.694595
     5  C    1.186912  -1.337559
     6  C   -0.149533   0.075628
     7  C   -0.645492   0.567127
     8  O    0.046545   0.003762
     9  C    0.097328  -0.484038
    10  C   -0.248117  -0.048876
    11  O   -0.297329   0.015310
    12  N    0.071787   0.129171
    13  C    0.341096  -0.658832
    14  C   -0.832531   0.763794
    15  C    1.033199  -1.714964
    16  C   -0.856240   0.948397
    17  C    0.656277  -1.111143
    18  C    0.238235  -0.513930
    19  H    0.150656   0.002560
    20  H    0.067680   0.097572
    21  H    0.163402   0.010563
    22  H   -0.055621   0.193661
    23  H   -0.353568   0.514543
    24  H   -0.340467   0.514782
    25  H   -0.389932   0.545896
    26  H    0.210605  -0.014396
    27  H   -0.183633   0.366147
    28  H   -0.241563   0.411000
    29  H    0.068184   0.128760
    30  H   -0.049547   0.217979
    31  H    0.136288   0.041037
    32  H   -0.001845   0.149703
    33  H   -0.188012   0.332871
    34  H    0.188164  -0.045421
    35  H   -0.118735   0.319351
    36  H   -0.521143   0.700023
    37  H    0.103093   0.049846
    38  H    0.430880  -0.255582
    39  H   -0.651840   0.852131
 Sum of Mulliken charges =  -1.00000   1.00000

 Dipole moment (field-independent basis, Debye):
    X=              0.6623    Y=              4.0599    Z=             -0.4138  Tot=              4.1343
 Quadrupole moment (field-independent basis, Debye-Ang):
   XX=           -206.8698   YY=           -158.6922   ZZ=           -150.4513
   XY=             -1.2755   XZ=              0.0036   YZ=              3.9396

 Summary of Natural Population Analysis:

                                       Natural Population
                Natural  -----------------------------------------------
    Atom  No    Charge         Core      Valence    Rydberg      Total
 -----------------------------------------------------------------------
      C    1   -0.29995      0.99963     2.29469    0.00563     3.29995
      C    2   -0.03130      0.99946     2.02348    0.00836     3.03130
      C    3   -0.09811      0.99953     2.08892    0.00966     3.09811
      C    4   -0.10361      0.99957     2.09380    0.01025     3.10361
      C    5   -0.10131      0.99957     2.09205    0.00969     3.10131
      C    6   -0.11234      0.99950     2.10270    0.01014     3.11234
      C    7    0.15428      0.99931     1.83292    0.01349     2.84572
      O    8   -0.29848      0.99986     3.28870    0.00992     4.29848
      C    9   -0.04832      0.99952     2.03787    0.01093     3.04832
      C   10    0.33448      0.99963     1.64326    0.02264     2.66552
      O   11   -0.32984      0.99988     3.32510    0.00487     4.32984
      N   12   -0.25099      0.99964     2.73892    0.01243     3.75099
      C   13   -0.08847      0.99961     2.07792    0.01095     3.08847
      C   14   -0.19571      0.99961     2.18801    0.00808     3.19571
      C   15   -0.18719      0.99962     2.17950    0.00807     3.18719
      C   16   -0.19727      0.99962     2.18901    0.00863     3.19727
      C   17   -0.19630      0.99962     2.18792    0.00876     3.19630
      C   18   -0.08245      0.99959     2.07145    0.01140     3.08245
      H   19    0.10734      0.00000     0.39141    0.00125     0.39266
      H   20    0.09950      0.00000     0.39975    0.00075     0.40050
      H   21    0.11665      0.00000     0.38204    0.00131     0.38335
      H   22    0.09884      0.00000     0.40028    0.00088     0.40116
      H   23    0.10150      0.00000     0.39740    0.00110     0.39850
      H   24    0.10291      0.00000     0.39571    0.00139     0.39709
      H   25    0.10803      0.00000     0.39062    0.00135     0.39197
      H   26    0.10132      0.00000     0.39767    0.00102     0.39868
      H   27    0.09421      0.00000     0.40449    0.00130     0.40579
      H   28    0.09705      0.00000     0.40172    0.00123     0.40295
      H   29    0.11003      0.00000     0.38896    0.00101     0.38997
      H   30    0.09803      0.00000     0.40112    0.00085     0.40197
      H   31    0.10269      0.00000     0.39592    0.00139     0.39731
      H   32    0.09748      0.00000     0.40167    0.00085     0.40252
      H   33    0.09262      0.00000     0.40600    0.00138     0.40738
      H   34    0.10116      0.00000     0.39681    0.00203     0.39884
      H   35    0.10001      0.00000     0.39899    0.00100     0.39999
      H   36    0.10526      0.00000     0.39343    0.00131     0.39474
      H   37    0.09511      0.00000     0.40297    0.00191     0.40489
      H   38    0.10780      0.00000     0.38959    0.00260     0.39220
      H   39    0.09534      0.00000     0.40266    0.00200     0.40466
 =======================================================================
   * Total *   -0.00000     17.99275    48.79543    0.21182    67.00000

 Normal termination of Gaussian 16 at Sat Dec 12 01:01:14 2020.
