 Gaussian 16, Revision A.03,

 -----------------------------------------------------------
 # opt freq B3LYP/6-31G(d) empiricaldispersion=gd3bj scf=xqc
 -----------------------------------------------------------

 ------------------------------
 CID_55276270_JID_2996_neutraal
 ------------------------------
 Symbolic Z-matrix:
 Charge =  0 Multiplicity = 1

 SCF Done:  E(RB3LYP) =  -518.893269269     A.U. after   13 cycles
 SCF Done:  E(RB3LYP) =  -518.897308157     A.U. after   11 cycles
 SCF Done:  E(RB3LYP) =  -518.897619425     A.U. after   11 cycles
 SCF Done:  E(RB3LYP) =  -518.897677082     A.U. after   10 cycles
 SCF Done:  E(RB3LYP) =  -518.897686611     A.U. after    9 cycles
 SCF Done:  E(RB3LYP) =  -518.897688797     A.U. after    8 cycles
 SCF Done:  E(RB3LYP) =  -518.897689097     A.U. after    7 cycles
 Optimization completed.
    -- Stationary point found.
 Normal termination of Gaussian 16 at Wed Dec  9 18:19:34 2020.

 --------------------------------------------------------------------
 #N Geom=AllCheck Guess=TCheck SCRF=Check GenChk RB3LYP/6-31G(d) Freq
 --------------------------------------------------------------------

 Structure from the checkpoint file:  "JID_2996.chk"
 ------------------------------
 CID_55276270_JID_2996_neutraal
 ------------------------------
 Charge =  0 Multiplicity = 1

 SCF Done:  E(RB3LYP) =  -518.897689097     A.U. after    1 cycles

  Exact polarizability: 137.593  -1.466 116.620  -7.611  -4.701  67.729
 Approx polarizability: 197.216  -2.192 188.462 -18.679  -7.033 107.827

                      1                      2                      3
                      A                      A                      A
 Frequencies --     85.8254               122.9974               168.9404
 Red. masses --      3.6002                 3.3636                 3.7223
 Frc consts  --      0.0156                 0.0300                 0.0626
 IR Inten    --      0.5048                 2.1512                 1.5000

                      4                      5                      6
                      A                      A                      A
 Frequencies --    236.5700               292.7050               313.0675
 Red. masses --      2.4783                 3.8463                 3.8791
 Frc consts  --      0.0817                 0.1942                 0.2240
 IR Inten    --      0.9081                 2.9480                 1.1456

                      7                      8                      9
                      A                      A                      A
 Frequencies --    338.3254               346.0698               383.2017
 Red. masses --      3.8591                 1.1757                 2.3797
 Frc consts  --      0.2603                 0.0830                 0.2059
 IR Inten    --      8.1136                87.0768                 9.8597

                     10                     11                     12
                      A                      A                      A
 Frequencies --    409.2128               473.9416               503.7848
 Red. masses --      3.1103                 2.8408                 3.7544
 Frc consts  --      0.3069                 0.3760                 0.5614
 IR Inten    --     33.3228                 3.4101                13.4607

                     13                     14                     15
                      A                      A                      A
 Frequencies --    509.2635               552.4244               611.9520
 Red. masses --      3.8864                 2.0218                 3.1159
 Frc consts  --      0.5939                 0.3635                 0.6875
 IR Inten    --      3.3147                 4.8186                 6.6068

                     16                     17                     18
                      A                      A                      A
 Frequencies --    639.2478               744.3706               759.1100
 Red. masses --      4.6199                 2.5665                 3.5325
 Frc consts  --      1.1123                 0.8379                 1.1993
 IR Inten    --      3.1949                32.4434                53.3826

                     19                     20                     21
                      A                      A                      A
 Frequencies --    769.7713               782.0018               847.3926
 Red. masses --      1.8356                 1.5467                 3.5521
 Frc consts  --      0.6409                 0.5573                 1.5028
 IR Inten    --     48.6085                28.8744                20.1384

                     22                     23                     24
                      A                      A                      A
 Frequencies --    877.1121               889.4387               905.0736
 Red. masses --      1.8630                 1.4923                 2.0978
 Frc consts  --      0.8444                 0.6956                 1.0124
 IR Inten    --     14.4910                 1.3477                11.1079

                     25                     26                     27
                      A                      A                      A
 Frequencies --    953.2032               983.0651               987.8749
 Red. masses --      1.3519                 2.1257                 1.2823
 Frc consts  --      0.7237                 1.2104                 0.7373
 IR Inten    --      1.1879                 5.6380                 0.1243

                     28                     29                     30
                      A                      A                      A
 Frequencies --   1020.1906              1039.7000              1068.6371
 Red. masses --      2.2554                 2.5097                 3.2252
 Frc consts  --      1.3830                 1.5984                 2.1700
 IR Inten    --      3.9936                17.1092                67.9254

                     31                     32                     33
                      A                      A                      A
 Frequencies --   1088.2139              1108.9135              1148.3850
 Red. masses --      2.1560                 2.1258                 2.2994
 Frc consts  --      1.5043                 1.5402                 1.7867
 IR Inten    --     18.3381                 2.0381                 1.2351

                     34                     35                     36
                      A                      A                      A
 Frequencies --   1167.7684              1196.4198              1201.5008
 Red. masses --      3.2995                 1.1219                 1.2555
 Frc consts  --      2.6510                 0.9462                 1.0679
 IR Inten    --     62.9336                 0.4058                 1.3448

                     37                     38                     39
                      A                      A                      A
 Frequencies --   1209.2997              1236.5304              1261.4167
 Red. masses --      1.8137                 2.5899                 1.2997
 Frc consts  --      1.5627                 2.3331                 1.2185
 IR Inten    --      1.7806                11.4528                29.7362

                     40                     41                     42
                      A                      A                      A
 Frequencies --   1289.2475              1319.7784              1334.3455
 Red. masses --      1.3904                 1.3904                 2.1683
 Frc consts  --      1.3616                 1.4269                 2.2746
 IR Inten    --      3.6266                 4.2059                 4.8696

                     43                     44                     45
                      A                      A                      A
 Frequencies --   1361.2512              1370.6231              1394.7212
 Red. masses --      1.6373                 1.6465                 1.3246
 Frc consts  --      1.7875                 1.8224                 1.5181
 IR Inten    --      5.5971                 9.9372                10.3436

                     46                     47                     48
                      A                      A                      A
 Frequencies --   1399.0733              1413.7522              1441.0684
 Red. masses --      1.3374                 1.3091                 1.2285
 Frc consts  --      1.5424                 1.5416                 1.5031
 IR Inten    --      0.9844                21.8443                34.2329

                     49                     50                     51
                      A                      A                      A
 Frequencies --   1497.7638              1500.7816              1509.4103
 Red. masses --      2.1714                 1.1090                 1.1435
 Frc consts  --      2.8700                 1.4717                 1.5349
 IR Inten    --      7.3851                 1.0321                 7.2686

                     52                     53                     54
                      A                      A                      A
 Frequencies --   1515.9886              1522.8331              1535.5064
 Red. masses --      1.1135                 1.2056                 2.2526
 Frc consts  --      1.5077                 1.6473                 3.1292
 IR Inten    --      8.1414                14.5372                 8.4873

                     55                     56                     57
                      A                      A                      A
 Frequencies --   1640.2391              1664.7862              3019.0135
 Red. masses --      5.9117                 5.8609                 1.0643
 Frc consts  --      9.3707                 9.5704                 5.7154
 IR Inten    --      0.3150                 0.2646                17.5552

                     58                     59                     60
                      A                      A                      A
 Frequencies --   3031.6356              3035.6731              3041.9353
 Red. masses --      1.0623                 1.0654                 1.0796
 Frc consts  --      5.7523                 5.7846                 5.8859
 IR Inten    --     16.3774                28.4720                50.9690

                     61                     62                     63
                      A                      A                      A
 Frequencies --   3075.4159              3076.2691              3082.5848
 Red. masses --      1.0981                 1.1023                 1.1042
 Frc consts  --      6.1192                 6.1462                 6.1822
 IR Inten    --     77.5492                 9.1890                47.4560

                     64                     65                     66
                      A                      A                      A
 Frequencies --   3172.5645              3187.7093              3204.2859
 Red. masses --      1.0870                 1.0883                 1.0948
 Frc consts  --      6.4461                 6.5156                 6.6231
 IR Inten    --      9.5702                13.1941                30.7314

                     67                     68                     69
                      A                      A                      A
 Frequencies --   3221.4042              3488.7853              3720.3926
 Red. masses --      1.0921                 1.0737                 1.0659
 Frc consts  --      6.6771                 7.6995                 8.6925
 IR Inten    --     13.1721                 0.5623                10.6445

 - Thermochemistry -
 -------------------
 Temperature   298.150 Kelvin.  Pressure   1.00000 Atm.
 Atom     1 has atomic number  6 and mass  12.00000

 Molecular mass:   163.09971 amu.
 Principal axes and moments of inertia in atomic units:
                           1         2         3
     Eigenvalues --  1308.299742034.858893118.40115
           X            1.00000   0.00029   0.00021
           Y           -0.00028   0.99988  -0.01522
           Z           -0.00021   0.01522   0.99988
 This molecule is an asymmetric top.
 Rotational symmetry number  1.
 Warning -- assumption of classical behavior for rotation
           may cause significant error
 Rotational temperatures (Kelvin)      0.06620     0.04257     0.02778
 Rotational constants (GHZ):           1.37946     0.88691     0.57874
 Zero-point vibrational energy     570031.1 (Joules/Mol)
                                  136.24070 (Kcal/Mol)
 Warning -- explicit consideration of  15 degrees of freedom as
           vibrations may cause significant error
 Vibrational temperatures:    123.48   176.97   243.07   340.37   421.14
          (Kelvin)            450.43   486.77   497.92   551.34   588.77
                              681.90   724.83   732.72   794.82   880.46
                              919.74  1070.98  1092.19  1107.53  1125.13
                             1219.21  1261.97  1279.70  1302.20  1371.45
                             1414.41  1421.33  1467.83  1495.90  1537.53
                             1565.70  1595.48  1652.27  1680.16  1721.38
                             1728.69  1739.91  1779.09  1814.90  1854.94
                             1898.87  1919.83  1958.54  1972.02  2006.69
                             2012.95  2034.07  2073.38  2154.95  2159.29
                             2171.70  2181.17  2191.02  2209.25  2359.94
                             2395.26  4343.69  4361.85  4367.66  4376.67
                             4424.84  4426.07  4435.15  4564.61  4586.40
                             4610.25  4634.88  5019.58  5352.82

 Zero-point correction=                           0.217113 (Hartree/Particle)
 Thermal correction to Energy=                    0.226966
 Thermal correction to Enthalpy=                  0.227910
 Thermal correction to Gibbs Free Energy=         0.182261
 Sum of electronic and zero-point Energies=           -518.680576
 Sum of electronic and thermal Energies=              -518.670723
 Sum of electronic and thermal Enthalpies=            -518.669779
 Sum of electronic and thermal Free Energies=         -518.715429

                     E (Thermal)             CV                S
                      KCal/Mol        Cal/Mol-Kelvin    Cal/Mol-Kelvin
 Total                  142.423             40.620             96.078
 Electronic               0.000              0.000              0.000
 Translational            0.889              2.981             41.176
 Rotational               0.889              2.981             30.497
 Vibrational            140.646             34.658             24.405
 Vibration     1          0.601              1.959              3.753
 Vibration     2          0.610              1.930              3.053
 Vibration     3          0.625              1.881              2.447
 Vibration     4          0.655              1.785              1.829
 Vibration     5          0.688              1.687              1.458
 Vibration     6          0.701              1.649              1.346
 Vibration     7          0.719              1.599              1.220
 Vibration     8          0.724              1.583              1.184
 Vibration     9          0.752              1.506              1.026
 Vibration    10          0.774              1.450              0.929
 Vibration    11          0.831              1.308              0.727
 Vibration    12          0.859              1.242              0.649
 Vibration    13          0.864              1.229              0.635
 Vibration    14          0.908              1.134              0.539
 Vibration    15          0.971              1.007              0.430

                           ! Non-Optimized Parameters !
 Normal termination of Gaussian 16 at Wed Dec  9 18:25:46 2020.

 ----------------------------------------------------------------------
 # B3LYP/6-311++G(d,p) empiricaldispersion=gd3bj scf=xqc pop=npa geom=c
 heck
 ----------------------------------------------------------------------

 --------------------------------------
 CID_55276270_JID_2996_Energie_neutraal
 --------------------------------------
 Structure from the checkpoint file:  "JID_2996.chk"
 Charge =  0 Multiplicity = 1

 SCF Done:  E(RB3LYP) =  -519.047983784     A.U. after   14 cycles
 Normal termination of Gaussian 16 at Wed Dec  9 18:28:18 2020.

 ----------------------------------------------------------------------
 # B3LYP/6-311++G(d,p) empiricaldispersion=gd3bj scf=xqc pop=npa geom=c
 heck
 ----------------------------------------------------------------------

 ------------------------------------
 CID_55276270_JID_2996_Energie_kation
 ------------------------------------
 Structure from the checkpoint file:  "JID_2996.chk"
 Charge =  1 Multiplicity = 2

 SCF Done:  E(UB3LYP) =  -518.751075919     A.U. after   25 cycles
 Normal termination of Gaussian 16 at Wed Dec  9 18:34:16 2020.
 Gaussian 16:  ES64L-G16RevA.03 25-Dec-2016

 ----------------------------------------------------------------------
 # B3LYP/6-311++G(d,p) empiricaldispersion=gd3bj scf=xqc pop=npa geom=c
 heck
 ----------------------------------------------------------------------

 -----------------------------------
 CID_55276270_JID_2996_Energie_anion
 -----------------------------------
 Structure from the checkpoint file:  "JID_2996.chk"
 Charge = -1 Multiplicity = 2

                         Standard orientation:
 ---------------------------------------------------------------------
 Center     Atomic      Atomic             Coordinates (Angstroms)
 Number     Number       Type             X           Y           Z
 ---------------------------------------------------------------------
      1          6           0       -2.006664    0.726619   -0.571092
      2          6           0       -2.610886   -0.659108   -0.288919
      3          7           0       -1.722133   -1.813395   -0.336944
      4          6           0       -0.625379   -1.786197    0.633504
      5          6           0        0.552121   -0.886914    0.298549
      6          6           0        1.801957   -1.469271    0.069327
      7          6           0        2.920750   -0.697193   -0.245869
      8          6           0        2.793231    0.686448   -0.321698
      9          6           0        1.551576    1.281838   -0.090854
     10          6           0        0.423093    0.514205    0.203887
     11          6           0       -0.925333    1.196085    0.420183
     12          8           0       -0.822435    2.618942    0.385677
     13          1           0       -1.591324    0.752772   -1.589579
     14          1           0       -2.816200    1.466615   -0.528739
     15          1           0       -3.070677   -0.645193    0.709043
     16          1           0       -3.425792   -0.837122   -1.000755
     17          1           0       -1.336363   -1.916992   -1.274078
     18          1           0       -0.254120   -2.810676    0.755500
     19          1           0       -1.062353   -1.500713    1.600333
     20          1           0        1.897443   -2.550308    0.144374
     21          1           0        3.880785   -1.174326   -0.421920
     22          1           0        3.655191    1.306756   -0.551445
     23          1           0        1.458710    2.361959   -0.110543
     24          1           0       -1.272236    0.979913    1.439653
     25          1           0       -0.675454    2.870471   -0.540752
 ---------------------------------------------------------------------

 SCF Done:  E(UB3LYP) =  -519.030839814     A.U. after   33 cycles
 SCF Done:  E(UB3LYP) =  -519.030839814     a.u. after    1 cycles

 The electronic state is 2-A.
 Alpha  occ. eigenvalues --  -19.02410 -14.20194 -10.13029 -10.10193 -10.09799
 Alpha  occ. eigenvalues --  -10.08005 -10.07910 -10.07204 -10.07054 -10.06992
 Alpha  occ. eigenvalues --  -10.06849 -10.06770  -0.92897  -0.81553  -0.75564
 Alpha  occ. eigenvalues --   -0.68201  -0.66760  -0.64255  -0.57846  -0.56062
 Alpha  occ. eigenvalues --   -0.50896  -0.49494  -0.47943  -0.42425  -0.40914
 Alpha  occ. eigenvalues --   -0.37634  -0.36558  -0.35752  -0.34538  -0.33915
 Alpha  occ. eigenvalues --   -0.32898  -0.32195  -0.29946  -0.28625  -0.26789
 Alpha  occ. eigenvalues --   -0.26434  -0.25624  -0.24680  -0.24367  -0.22669
 Alpha  occ. eigenvalues --   -0.18344  -0.15506  -0.14892  -0.12549   0.04750
 Alpha virt. eigenvalues --    0.06647   0.07015   0.07970   0.08293   0.08421
 Alpha virt. eigenvalues --    0.09179   0.09401   0.10366   0.11249   0.11468
 Alpha virt. eigenvalues --    0.11573   0.12527   0.13945   0.14306   0.15352

  Beta  occ. eigenvalues --  -19.02379 -14.20183 -10.13026 -10.10186 -10.09783
  Beta  occ. eigenvalues --  -10.08004 -10.07902 -10.07191 -10.07034 -10.06972
  Beta  occ. eigenvalues --  -10.06836 -10.06737  -0.92838  -0.81527  -0.75536
  Beta  occ. eigenvalues --   -0.68162  -0.66724  -0.64220  -0.57808  -0.56019
  Beta  occ. eigenvalues --   -0.50838  -0.49444  -0.47897  -0.42379  -0.40868
  Beta  occ. eigenvalues --   -0.37597  -0.36507  -0.35714  -0.34495  -0.33877
  Beta  occ. eigenvalues --   -0.32864  -0.32160  -0.29912  -0.28568  -0.26756
  Beta  occ. eigenvalues --   -0.26397  -0.25594  -0.24647  -0.24329  -0.22631
  Beta  occ. eigenvalues --   -0.18315  -0.15468  -0.14868  -0.12521
  Beta virt. eigenvalues --    0.07082   0.07654   0.07781   0.08209   0.08688
  Beta virt. eigenvalues --    0.09053   0.09415   0.10049   0.10760   0.11654
  Beta virt. eigenvalues --    0.11890   0.12056   0.12856   0.14330   0.14720

 Mulliken charges and spin densities:
               1          2
     1  C    0.637972  -1.025338
     2  C    0.362791  -0.914925
     3  N   -0.120758   0.152652
     4  C    1.052909  -1.871841
     5  C   -1.058166   1.590580
     6  C   -0.144083  -0.214974
     7  C    1.190087  -1.494825
     8  C    1.452510  -2.022305
     9  C   -0.322824   0.070651
    10  C   -1.159620   1.518326
    11  C    0.028625   0.267186
    12  O   -0.179912  -0.039465
    13  H   -0.343046   0.521104
    14  H   -0.174317   0.329383
    15  H    0.171035  -0.026302
    16  H   -0.521163   0.705699
    17  H    0.120527   0.084067
    18  H    0.035035   0.174902
    19  H    0.106893   0.015696
    20  H   -0.476456   0.607601
    21  H   -0.779564   0.947689
    22  H   -0.640341   0.808451
    23  H   -0.203753   0.340287
    24  H    0.121719   0.079967
    25  H   -0.156100   0.395731
 Sum of Mulliken charges =  -1.00000   1.00000

 Dipole moment (field-independent basis, Debye):
    X=             -2.7429    Y=             -1.1786    Z=              3.7559  Tot=              4.7978
 Quadrupole moment (field-independent basis, Debye-Ang):
   XX=           -141.8856   YY=           -121.7361   ZZ=           -101.3001
   XY=              3.7350   XZ=             -4.0488   YZ=              0.2744

 Summary of Natural Population Analysis:

                                       Natural Population
                Natural  -----------------------------------------------
    Atom  No    Charge         Core      Valence    Rydberg      Total
 -----------------------------------------------------------------------
      C    1   -0.20901      0.99960     2.19976    0.00965     3.20901
      C    2   -0.08593      0.99962     2.07359    0.01272     3.08593
      N    3   -0.33497      0.99976     2.82365    0.01156     3.83497
      C    4   -0.09555      0.99959     2.08387    0.01209     3.09555
      C    5   -0.02849      0.99946     2.01862    0.01041     3.02849
      C    6   -0.09774      0.99952     2.08735    0.01087     3.09774
      C    7   -0.09929      0.99956     2.08909    0.01064     3.09929
      C    8   -0.09613      0.99956     2.08602    0.01056     3.09613
      C    9   -0.09967      0.99951     2.08948    0.01068     3.09967
      C   10   -0.02505      0.99944     2.01383    0.01178     3.02505
      C   11    0.06023      0.99951     1.92676    0.01349     2.93977
      O   12   -0.36779      0.99990     3.36143    0.00646     4.36779
      H   13    0.09860      0.00000     0.39860    0.00280     0.40140
      H   14    0.10541      0.00000     0.39302    0.00157     0.39459
      H   15    0.08580      0.00000     0.41290    0.00130     0.41420
      H   16    0.09833      0.00000     0.40040    0.00127     0.40167
      H   17    0.17236      0.00000     0.32453    0.00311     0.32764
      H   18    0.09701      0.00000     0.40176    0.00123     0.40299
      H   19    0.09313      0.00000     0.40558    0.00129     0.40687
      H   20    0.09958      0.00000     0.39881    0.00162     0.40042
      H   21    0.10267      0.00000     0.39496    0.00237     0.39733
      H   22    0.10199      0.00000     0.39622    0.00179     0.39801
      H   23    0.10727      0.00000     0.39132    0.00141     0.39273
      H   24    0.08789      0.00000     0.41015    0.00196     0.41211
      H   25    0.22936      0.00000     0.26605    0.00460     0.27064
 =======================================================================
   * Total *   -0.00000     11.99502    31.84774    0.15725    44.00000

 Normal termination of Gaussian 16 at Wed Dec  9 18:41:23 2020.
