 Gaussian 16, Revision A.03,

 -----------------------------------------------------------
 # opt freq B3LYP/6-31G(d) empiricaldispersion=gd3bj scf=xqc
 -----------------------------------------------------------

 -------------------------------
 CID_105662339_JID_2258_neutraal
 -------------------------------
 Symbolic Z-matrix:
 Charge =  0 Multiplicity = 1

 SCF Done:  E(RB3LYP) =  -500.129186089     A.U. after   15 cycles
 SCF Done:  E(RB3LYP) =  -500.153693762     A.U. after   13 cycles
 SCF Done:  E(RB3LYP) =  -500.154427625     A.U. after   12 cycles
 SCF Done:  E(RB3LYP) =  -500.154828960     A.U. after   12 cycles
 SCF Done:  E(RB3LYP) =  -500.155496289     A.U. after   11 cycles
 SCF Done:  E(RB3LYP) =  -500.156647234     A.U. after   12 cycles
 SCF Done:  E(RB3LYP) =  -500.155736128     A.U. after   14 cycles
 SCF Done:  E(RB3LYP) =  -500.157292051     A.U. after   11 cycles
 SCF Done:  E(RB3LYP) =  -500.157432449     A.U. after   11 cycles
 SCF Done:  E(RB3LYP) =  -500.157464065     A.U. after   11 cycles
 SCF Done:  E(RB3LYP) =  -500.157534275     A.U. after   10 cycles
 SCF Done:  E(RB3LYP) =  -500.157536198     A.U. after    9 cycles
 SCF Done:  E(RB3LYP) =  -500.157536549     A.U. after    9 cycles
 SCF Done:  E(RB3LYP) =  -500.157536863     A.U. after    9 cycles
 SCF Done:  E(RB3LYP) =  -500.157537053     A.U. after    8 cycles
 SCF Done:  E(RB3LYP) =  -500.157537087     A.U. after    7 cycles
 Optimization completed.
    -- Stationary point found.
 Normal termination of Gaussian 16 at Wed Dec  9 17:11:11 2020.

 --------------------------------------------------------------------
 #N Geom=AllCheck Guess=TCheck SCRF=Check GenChk RB3LYP/6-31G(d) Freq
 --------------------------------------------------------------------

 Structure from the checkpoint file:  "JID_2258.chk"
 -------------------------------
 CID_105662339_JID_2258_neutraal
 -------------------------------
 Charge =  0 Multiplicity = 1

 SCF Done:  E(RB3LYP) =  -500.157537087     A.U. after    1 cycles

  Exact polarizability: 114.691  -1.036 102.467   1.502   2.270 104.166
 Approx polarizability: 145.594  -1.104 146.569   1.939   8.010 169.024

                      1                      2                      3
                      A                      A                      A
 Frequencies --     18.9581                38.7497                67.0785
 Red. masses --      2.9172                 4.7919                 2.9697
 Frc consts  --      0.0006                 0.0042                 0.0079
 IR Inten    --      0.8101                 1.0596                 1.7240

                      4                      5                      6
                      A                      A                      A
 Frequencies --    102.0826               163.6152               184.4818
 Red. masses --      5.3830                 4.7645                 3.1139
 Frc consts  --      0.0331                 0.0751                 0.0624
 IR Inten    --      2.6559                 6.3846                 0.4296

                      7                      8                      9
                      A                      A                      A
 Frequencies --    209.7802               231.3041               247.1584
 Red. masses --      2.6765                 1.3588                 3.1624
 Frc consts  --      0.0694                 0.0428                 0.1138
 IR Inten    --      0.5026                 3.1092                 1.3857

                     10                     11                     12
                      A                      A                      A
 Frequencies --    285.0432               305.3259               319.0862
 Red. masses --      2.1585                 2.9700                 2.3050
 Frc consts  --      0.1033                 0.1631                 0.1383
 IR Inten    --      5.8281                 0.4264                 2.4874

                     13                     14                     15
                      A                      A                      A
 Frequencies --    337.8958               445.7524               459.9576
 Red. masses --      2.1750                 2.8884                 2.5240
 Frc consts  --      0.1463                 0.3381                 0.3146
 IR Inten    --      1.2059                 0.6556                 2.4082

                     16                     17                     18
                      A                      A                      A
 Frequencies --    562.1148               573.7164               612.7218
 Red. masses --      3.5623                 5.1199                 2.8084
 Frc consts  --      0.6632                 0.9929                 0.6212
 IR Inten    --      5.8571                 1.6260                 6.4995

                     19                     20                     21
                      A                      A                      A
 Frequencies --    641.7785               724.4230               790.2331
 Red. masses --      2.2213                 2.2550                 1.0796
 Frc consts  --      0.5391                 0.6972                 0.3972
 IR Inten    --     33.3294                63.6815                 3.2717

                     22                     23                     24
                      A                      A                      A
 Frequencies --    800.6869               817.7245               844.1063
 Red. masses --      1.1173                 2.0951                 1.3038
 Frc consts  --      0.4220                 0.8254                 0.5474
 IR Inten    --      1.6116                13.0473                17.3539

                     25                     26                     27
                      A                      A                      A
 Frequencies --    868.2346               889.5402               927.2702
 Red. masses --      2.4352                 2.0793                 2.9479
 Frc consts  --      1.0816                 0.9694                 1.4934
 IR Inten    --     16.1194                 5.1626                 0.7514

                     28                     29                     30
                      A                      A                      A
 Frequencies --    938.2992               957.8780               971.1787
 Red. masses --      2.2664                 1.9813                 2.0197
 Frc consts  --      1.1756                 1.0711                 1.1224
 IR Inten    --      6.2839                 8.1729                 4.5840

                     31                     32                     33
                      A                      A                      A
 Frequencies --    976.8603              1018.4924              1059.9646
 Red. masses --      1.5451                 2.0511                 1.3765
 Frc consts  --      0.8687                 1.2536                 0.9112
 IR Inten    --      1.5953                 2.9776                18.2089

                     34                     35                     36
                      A                      A                      A
 Frequencies --   1066.2893              1082.4275              1087.2358
 Red. masses --      1.3460                 2.8653                 1.3905
 Frc consts  --      0.9017                 1.9779                 0.9684
 IR Inten    --      5.1470                 7.5377                 0.8157

                     37                     38                     39
                      A                      A                      A
 Frequencies --   1091.7545              1108.6222              1137.3481
 Red. masses --      1.3745                 1.7347                 1.7239
 Frc consts  --      0.9653                 1.2562                 1.3139
 IR Inten    --      1.3275                18.1000                11.7483

                     40                     41                     42
                      A                      A                      A
 Frequencies --   1159.3105              1161.6715              1166.9844
 Red. masses --      1.1967                 1.8118                 2.8399
 Frc consts  --      0.9476                 1.4406                 2.2787
 IR Inten    --      5.4073                 0.4012                79.1248

                     43                     44                     45
                      A                      A                      A
 Frequencies --   1199.3586              1213.8804              1239.0814
 Red. masses --      1.3279                 1.4026                 2.4011
 Frc consts  --      1.1254                 1.2177                 2.1720
 IR Inten    --      0.4914                 0.3489                 0.6593

                     46                     47                     48
                      A                      A                      A
 Frequencies --   1282.9850              1297.4073              1336.9097
 Red. masses --      1.4576                 2.5016                 1.3251
 Frc consts  --      1.4136                 2.4809                 1.3954
 IR Inten    --      0.4283                 7.8481                 3.6626

                     49                     50                     51
                      A                      A                      A
 Frequencies --   1357.4112              1393.4805              1405.4807
 Red. masses --      1.5782                 1.2229                 1.2933
 Frc consts  --      1.7133                 1.3990                 1.5052
 IR Inten    --      3.3950                 6.7613                10.9690

                     52                     53                     54
                      A                      A                      A
 Frequencies --   1433.2693              1438.4908              1489.5154
 Red. masses --      1.2413                 1.8284                 1.0894
 Frc consts  --      1.5024                 2.2292                 1.4240
 IR Inten    --      2.3481                 9.5065                 1.4940

                     55                     56                     57
                      A                      A                      A
 Frequencies --   1496.6886              1498.6376              1511.5853
 Red. masses --      1.0993                 1.0846                 1.0751
 Frc consts  --      1.4508                 1.4352                 1.4473
 IR Inten    --      0.7715                 2.8774                11.2523

                     58                     59                     60
                      A                      A                      A
 Frequencies --   1521.1680              1535.2986              1536.9122
 Red. masses --      1.0506                 1.3089                 1.3255
 Frc consts  --      1.4323                 1.8178                 1.8447
 IR Inten    --      8.3090                 5.9612                 4.1621

                     61                     62                     63
                      A                      A                      A
 Frequencies --   1538.2512              2346.3181              3048.0594
 Red. masses --      1.2033                12.6533                 1.0598
 Frc consts  --      1.6776                41.0421                 5.8014
 IR Inten    --      6.5395                 3.9592                33.1936

                     64                     65                     66
                      A                      A                      A
 Frequencies --   3064.6426              3071.6352              3091.6827
 Red. masses --      1.0373                 1.0810                 1.1054
 Frc consts  --      5.7399                 6.0090                 6.2253
 IR Inten    --     14.6352                 6.5887                24.8492

                     67                     68                     69
                      A                      A                      A
 Frequencies --   3136.9545              3140.0983              3141.8929
 Red. masses --      1.1032                 1.0555                 1.0530
 Frc consts  --      6.3961                 6.1321                 6.1243
 IR Inten    --     20.0846                18.8207                14.1677

                     70                     71                     72
                      A                      A                      A
 Frequencies --   3149.4675              3156.3374              3156.3905
 Red. masses --      1.0577                 1.0652                 1.0940
 Frc consts  --      6.1816                 6.2523                 6.4220
 IR Inten    --     17.2393                17.3742                15.4393

                     73                     74                     75
                      A                      A                      A
 Frequencies --   3177.0948              3217.9555              3221.2285
 Red. masses --      1.0878                 1.1189                 1.1157
 Frc consts  --      6.4693                 6.8268                 6.8211
 IR Inten    --      3.9102                 3.1454                 0.1383

                     76                     77                     78
                      A                      A                      A
 Frequencies --   3233.9579              3239.3308              3513.8281
 Red. masses --      1.1152                 1.1141                 1.0741
 Frc consts  --      6.8720                 6.8878                 7.8137
 IR Inten    --     31.6442                13.2532                 0.3827

 - Thermochemistry -
 -------------------
 Temperature   298.150 Kelvin.  Pressure   1.00000 Atm.
 Atom     1 has atomic number  6 and mass  12.00000

 Molecular mass:   164.13135 amu.
 Principal axes and moments of inertia in atomic units:
                           1         2         3
     Eigenvalues --  1337.581152853.465513025.62995
           X            0.99978   0.00957   0.01882
           Y           -0.00721   0.99251  -0.12193
           Z           -0.01985   0.12177   0.99236
 This molecule is an asymmetric top.
 Rotational symmetry number  1.
 Warning -- assumption of classical behavior for rotation
           may cause significant error
 Rotational temperatures (Kelvin)      0.06475     0.03035     0.02863
 Rotational constants (GHZ):           1.34926     0.63247     0.59648
 Zero-point vibrational energy     647693.1 (Joules/Mol)
                                  154.80236 (Kcal/Mol)
 Warning -- explicit consideration of  18 degrees of freedom as
           vibrations may cause significant error
 Vibrational temperatures:     27.28    55.75    96.51   146.87   235.41
          (Kelvin)            265.43   301.83   332.80   355.61   410.11
                              439.30   459.09   486.16   641.34   661.78
                              808.76   825.45   881.57   923.38  1042.28
                             1136.97  1152.01  1176.52  1214.48  1249.20
                             1279.85  1334.13  1350.00  1378.17  1397.31
                             1405.48  1465.38  1525.05  1534.15  1557.37
                             1564.29  1570.79  1595.06  1636.39  1667.99
                             1671.39  1679.03  1725.61  1746.50  1782.76
                             1845.93  1866.68  1923.51  1953.01  2004.91
                             2022.17  2062.15  2069.67  2143.08  2153.40
                             2156.21  2174.83  2188.62  2208.95  2211.27
                             2213.20  3375.83  4385.48  4409.34  4419.40
                             4448.24  4513.38  4517.90  4520.48  4531.38
                             4541.27  4541.34  4571.13  4629.92  4634.63
                             4652.94  4660.67  5055.61

 Zero-point correction=                           0.246693 (Hartree/Particle)
 Thermal correction to Energy=                    0.259535
 Thermal correction to Enthalpy=                  0.260479
 Thermal correction to Gibbs Free Energy=         0.206307
 Sum of electronic and zero-point Energies=           -499.910844
 Sum of electronic and thermal Energies=              -499.898002
 Sum of electronic and thermal Enthalpies=            -499.897058
 Sum of electronic and thermal Free Energies=         -499.951230

                     E (Thermal)             CV                S
                      KCal/Mol        Cal/Mol-Kelvin    Cal/Mol-Kelvin
 Total                  162.861             48.141            114.015
 Electronic               0.000              0.000              0.000
 Translational            0.889              2.981             41.195
 Rotational               0.889              2.981             30.824
 Vibrational            161.083             42.179             41.996
 Vibration     1          0.593              1.986              6.740
 Vibration     2          0.594              1.981              5.322
 Vibration     3          0.598              1.970              4.237
 Vibration     4          0.604              1.948              3.414
 Vibration     5          0.623              1.887              2.508
 Vibration     6          0.631              1.861              2.283
 Vibration     7          0.642              1.826              2.046
 Vibration     8          0.653              1.793              1.869
 Vibration     9          0.661              1.767              1.751
 Vibration    10          0.683              1.701              1.503
 Vibration    11          0.696              1.664              1.388
 Vibration    12          0.705              1.637              1.315
 Vibration    13          0.718              1.600              1.222
 Vibration    14          0.805              1.370              0.809
 Vibration    15          0.818              1.339              0.766
 Vibration    16          0.918              1.113              0.520
 Vibration    17          0.930              1.088              0.497
 Vibration    18          0.972              1.005              0.428

 Optimization completed.
    -- Stationary point found.
 Normal termination of Gaussian 16 at Wed Dec  9 17:18:46 2020.

 ----------------------------------------------------------------------
 # B3LYP/6-311++G(d,p) empiricaldispersion=gd3bj scf=xqc pop=npa geom=c
 heck
 ----------------------------------------------------------------------

 ---------------------------------------
 CID_105662339_JID_2258_Energie_neutraal
 ---------------------------------------
 Structure from the checkpoint file:  "JID_2258.chk"
 Charge =  0 Multiplicity = 1

 SCF Done:  E(RB3LYP) =  -500.297648989     A.U. after   13 cycles
 Normal termination of Gaussian 16 at Wed Dec  9 17:22:11 2020.

 ----------------------------------------------------------------------
 # B3LYP/6-311++G(d,p) empiricaldispersion=gd3bj scf=xqc pop=npa geom=c
 heck
 ----------------------------------------------------------------------

 -------------------------------------
 CID_105662339_JID_2258_Energie_kation
 -------------------------------------
 Structure from the checkpoint file:  "JID_2258.chk"
 Charge =  1 Multiplicity = 2

 SCF Done:  E(UB3LYP) =  -499.980246448     A.U. after   23 cycles
 Normal termination of Gaussian 16 at Wed Dec  9 17:30:02 2020.
 Gaussian 16:  ES64L-G16RevA.03 25-Dec-2016

 ----------------------------------------------------------------------
 # B3LYP/6-311++G(d,p) empiricaldispersion=gd3bj scf=xqc pop=npa geom=c
 heck
 ----------------------------------------------------------------------

 ------------------------------------
 CID_105662339_JID_2258_Energie_anion
 ------------------------------------
 Structure from the checkpoint file:  "JID_2258.chk"
 Charge = -1 Multiplicity = 2

                         Standard orientation:
 ---------------------------------------------------------------------
 Center     Atomic      Atomic             Coordinates (Angstroms)
 Number     Number       Type             X           Y           Z
 ---------------------------------------------------------------------
      1          6           0       -3.515557    0.234060   -0.701990
      2          6           0       -2.006243    0.252891   -0.411517
      3          6           0       -1.782874    0.728917    0.977810
      4          7           0       -1.628249    1.038447    2.086818
      5          7           0       -1.422682   -1.058756   -0.670652
      6          6           0       -0.004154   -1.125232   -1.030882
      7          6           0        1.043790   -0.634803   -0.023696
      8          6           0        1.097577   -1.354897    1.302647
      9          6           0        2.174878   -1.598049    0.279993
     10          6           0        1.313441    0.850721   -0.046323
     11          6           0        2.691596    1.450749    0.084313
     12          6           0        1.980624    1.485774   -1.244998
     13          1           0       -4.017939   -0.492406   -0.055152
     14          1           0       -3.669254   -0.062422   -1.742396
     15          1           0       -3.964660    1.217111   -0.528856
     16          1           0       -1.519394    0.967224   -1.085944
     17          1           0       -1.623389   -1.684427    0.105994
     18          1           0        0.186282   -2.179104   -1.263888
     19          1           0        0.121005   -0.569764   -1.968573
     20          1           0        1.342697   -0.762927    2.179065
     21          1           0        0.375251   -2.146045    1.492222
     22          1           0        2.178880   -2.549359   -0.246137
     23          1           0        3.165328   -1.204002    0.481059
     24          1           0        0.534061    1.446886    0.420236
     25          1           0        2.783127    2.374829    0.647641
     26          1           0        3.549898    0.792747    0.174613
     27          1           0        2.351020    0.817757   -2.018624
     28          1           0        1.605139    2.435280   -1.616559
 ---------------------------------------------------------------------

 SCF Done:  E(UB3LYP) =  -500.282341069     A.U. after   32 cycles

 The electronic state is 2-A.
 Alpha  occ. eigenvalues --  -14.21068 -14.21028 -10.14243 -10.10716 -10.09658
 Alpha  occ. eigenvalues --  -10.08854 -10.08134 -10.07733 -10.07523 -10.07344
 Alpha  occ. eigenvalues --  -10.07244 -10.06999  -0.83198  -0.80110  -0.78075
 Alpha  occ. eigenvalues --   -0.74232  -0.67594  -0.58934  -0.55680  -0.52548
 Alpha  occ. eigenvalues --   -0.50650  -0.50345  -0.45189  -0.44210  -0.40981
 Alpha  occ. eigenvalues --   -0.38985  -0.38591  -0.36749  -0.35532  -0.31905
 Alpha  occ. eigenvalues --   -0.31154  -0.29810  -0.28589  -0.27923  -0.27829
 Alpha  occ. eigenvalues --   -0.26776  -0.26284  -0.25902  -0.23713  -0.23148
 Alpha  occ. eigenvalues --   -0.21788  -0.20774  -0.19379  -0.17388  -0.13798
 Alpha  occ. eigenvalues --    0.04631
 Alpha virt. eigenvalues --    0.06736   0.06968   0.08000   0.08684   0.09344
 Alpha virt. eigenvalues --    0.09855   0.09973   0.11104   0.11243   0.11654
 Alpha virt. eigenvalues --    0.12194   0.12329   0.12834   0.13315   0.14017

  Beta  occ. eigenvalues --  -14.21040 -14.21004 -10.14224 -10.10716 -10.09633
  Beta  occ. eigenvalues --  -10.08855 -10.08131 -10.07722 -10.07504 -10.07320
  Beta  occ. eigenvalues --  -10.07228 -10.06949  -0.83159  -0.80070  -0.78060
  Beta  occ. eigenvalues --   -0.74218  -0.67541  -0.58877  -0.55594  -0.52496
  Beta  occ. eigenvalues --   -0.50594  -0.50295  -0.45147  -0.44176  -0.40965
  Beta  occ. eigenvalues --   -0.38936  -0.38547  -0.36692  -0.35462  -0.31878
  Beta  occ. eigenvalues --   -0.31091  -0.29757  -0.28543  -0.27875  -0.27799
  Beta  occ. eigenvalues --   -0.26739  -0.26247  -0.25876  -0.23682  -0.23081
  Beta  occ. eigenvalues --   -0.21748  -0.20752  -0.19357  -0.17368  -0.13764
  Beta virt. eigenvalues --    0.06891   0.07563   0.07826   0.08468   0.09228
  Beta virt. eigenvalues --    0.09856   0.10401   0.10479   0.11351   0.11607
  Beta virt. eigenvalues --    0.12047   0.12433   0.12550   0.13237   0.13674

 Mulliken charges and spin densities:
               1          2
     1  C    1.699248  -2.233462
     2  C   -2.326857   2.381855
     3  C    1.674645  -1.872372
     4  N   -0.355037   0.072570
     5  N    0.004910   0.124816
     6  C    1.534715  -2.230613
     7  C   -0.478322   1.554547
     8  C   -0.293982  -0.192927
     9  C    1.057015  -1.596947
    10  C   -1.491188   1.421444
    11  C   -0.349452  -0.087519
    12  C    0.658177  -1.259480
    13  H   -0.265513   0.407266
    14  H   -0.655254   0.842722
    15  H   -0.201729   0.341652
    16  H   -0.366212   0.546846
    17  H    0.152579   0.056513
    18  H   -0.670560   0.853000
    19  H   -0.005891   0.192303
    20  H    0.146603   0.017603
    21  H   -0.308640   0.454903
    22  H   -0.156167   0.307326
    23  H    0.109876  -0.009823
    24  H    0.280199  -0.041967
    25  H    0.014501   0.125958
    26  H   -0.040303   0.156824
    27  H    0.006505   0.140162
    28  H   -0.373865   0.526799
 Sum of Mulliken charges =  -1.00000   1.00000

 Dipole moment (field-independent basis, Debye):
    X=              4.1403    Y=              0.2518    Z=              2.6879  Tot=              4.9427
 Quadrupole moment (field-independent basis, Debye-Ang):
   XX=           -129.9800   YY=           -121.1232   ZZ=           -119.3797
   XY=              2.6519   XZ=             -2.3959   YZ=             -0.9803

 Summary of Natural Population Analysis:

                                       Natural Population
                Natural  -----------------------------------------------
    Atom  No    Charge         Core      Valence    Rydberg      Total
 -----------------------------------------------------------------------
      C    1   -0.27524      0.99965     2.26854    0.00705     3.27524
      C    2   -0.06471      0.99951     2.05232    0.01287     3.06471
      C    3    0.15208      0.99964     1.82956    0.01872     2.84792
      N    4   -0.18609      0.99979     2.67482    0.01148     3.68609
      N    5   -0.32707      0.99974     2.81460    0.01273     3.82707
      C    6   -0.07858      0.99956     2.06605    0.01298     3.07858
      C    7   -0.06132      0.99953     2.04605    0.01574     3.06132
      C    8   -0.19022      0.99958     2.18129    0.00935     3.19022
      C    9   -0.19046      0.99959     2.18218    0.00869     3.19046
      C   10   -0.11595      0.99954     2.10487    0.01155     3.11595
      C   11   -0.19477      0.99962     2.18802    0.00714     3.19477
      C   12   -0.19659      0.99961     2.18787    0.00911     3.19659
      H   13    0.10049      0.00000     0.39791    0.00160     0.39951
      H   14    0.10929      0.00000     0.38814    0.00257     0.39071
      H   15    0.10221      0.00000     0.39618    0.00162     0.39779
      H   16    0.11667      0.00000     0.37981    0.00353     0.38333
      H   17    0.17597      0.00000     0.32016    0.00387     0.32403
      H   18    0.09963      0.00000     0.39848    0.00189     0.40037
      H   19    0.09859      0.00000     0.39939    0.00203     0.40141
      H   20    0.10559      0.00000     0.39350    0.00091     0.39441
      H   21    0.10119      0.00000     0.39753    0.00128     0.39881
      H   22    0.10308      0.00000     0.39558    0.00134     0.39692
      H   23    0.10000      0.00000     0.39891    0.00109     0.40000
      H   24    0.11019      0.00000     0.38766    0.00214     0.38981
      H   25    0.10103      0.00000     0.39815    0.00082     0.39897
      H   26    0.09938      0.00000     0.39955    0.00107     0.40062
      H   27    0.10206      0.00000     0.39675    0.00119     0.39794
      H   28    0.10358      0.00000     0.39519    0.00123     0.39642
 =======================================================================
   * Total *   -0.00000     11.99536    32.83906    0.16558    45.00000

 Normal termination of Gaussian 16 at Wed Dec  9 17:40:48 2020.
