 Gaussian 16, Revision A.03,

 -----------------------------------------------------------
 # opt freq B3LYP/6-31G(d) empiricaldispersion=gd3bj scf=xqc
 -----------------------------------------------------------

 -------------------------------
 CID_102711189_JID_7822_neutraal
 -------------------------------
 Symbolic Z-matrix:
 Charge =  0 Multiplicity = 1

 SCF Done:  E(RB3LYP) =  -820.834524113     A.U. after   15 cycles
 SCF Done:  E(RB3LYP) =  -820.838380187     A.U. after   12 cycles
 SCF Done:  E(RB3LYP) =  -820.838503446     A.U. after   12 cycles
 SCF Done:  E(RB3LYP) =  -820.838935237     A.U. after   12 cycles
 SCF Done:  E(RB3LYP) =  -820.839070419     A.U. after   11 cycles
 SCF Done:  E(RB3LYP) =  -820.839191846     A.U. after   11 cycles
 SCF Done:  E(RB3LYP) =  -820.839223833     A.U. after   11 cycles
 SCF Done:  E(RB3LYP) =  -820.839256651     A.U. after   10 cycles
 SCF Done:  E(RB3LYP) =  -820.839270535     A.U. after   10 cycles
 SCF Done:  E(RB3LYP) =  -820.839273851     A.U. after   10 cycles
 SCF Done:  E(RB3LYP) =  -820.839274650     A.U. after    8 cycles
 SCF Done:  E(RB3LYP) =  -820.839275045     A.U. after    8 cycles
 SCF Done:  E(RB3LYP) =  -820.839275094     A.U. after    7 cycles
 Optimization completed.
    -- Stationary point found.
 Normal termination of Gaussian 16 at Fri Dec 11 13:10:52 2020.

 --------------------------------------------------------------------
 #N Geom=AllCheck Guess=TCheck SCRF=Check GenChk RB3LYP/6-31G(d) Freq
 --------------------------------------------------------------------

 Structure from the checkpoint file:  "JID_7822.chk"
 -------------------------------
 CID_102711189_JID_7822_neutraal
 -------------------------------
 Charge =  0 Multiplicity = 1

 SCF Done:  E(RB3LYP) =  -820.839275094     A.U. after    1 cycles

  Exact polarizability: 206.649  13.352 138.355 -10.288  17.800  87.075
 Approx polarizability: 302.370  23.465 229.265 -20.479  44.420 136.961

                      1                      2                      3
                      A                      A                      A
 Frequencies --     36.3523                44.2096                63.5386
 Red. masses --      4.8703                 4.3964                 9.5982
 Frc consts  --      0.0038                 0.0051                 0.0228
 IR Inten    --      1.5905                 0.1226                 0.0209

                      4                      5                      6
                      A                      A                      A
 Frequencies --     84.1697               100.0780               107.7892
 Red. masses --      3.8704                 2.0513                 3.4282
 Frc consts  --      0.0162                 0.0121                 0.0235
 IR Inten    --      5.1162                 3.7072                 3.1712

                      7                      8                      9
                      A                      A                      A
 Frequencies --    132.3319               150.8959               171.4598
 Red. masses --      4.0174                 3.1926                 2.3295
 Frc consts  --      0.0414                 0.0428                 0.0404
 IR Inten    --      0.9604                 0.8492                 1.8513

                     10                     11                     12
                      A                      A                      A
 Frequencies --    205.7162               243.6308               272.5150
 Red. masses --      2.7783                 4.0070                 3.5752
 Frc consts  --      0.0693                 0.1401                 0.1564
 IR Inten    --      6.7743                 1.4696                 3.3272

                     13                     14                     15
                      A                      A                      A
 Frequencies --    324.3342               331.9251               369.4984
 Red. masses --      7.5452                 7.0950                 3.1616
 Frc consts  --      0.4676                 0.4606                 0.2543
 IR Inten    --      3.7852                 1.0115                 5.7494

                     16                     17                     18
                      A                      A                      A
 Frequencies --    426.2233               429.4491               476.6944
 Red. masses --      2.1794                 2.9494                 4.4904
 Frc consts  --      0.2333                 0.3205                 0.6012
 IR Inten    --      1.1532                 3.6906                10.1345

                     19                     20                     21
                      A                      A                      A
 Frequencies --    513.1930               519.0344               549.9045
 Red. masses --      3.6745                 2.5978                 7.0115
 Frc consts  --      0.5702                 0.4123                 1.2492
 IR Inten    --      4.3309                23.7801                33.9348

                     22                     23                     24
                      A                      A                      A
 Frequencies --    567.0068               588.2853               615.2088
 Red. masses --      3.0386                 2.4240                 3.5188
 Frc consts  --      0.5756                 0.4943                 0.7847
 IR Inten    --     11.9668                 5.5699                32.7694

                     25                     26                     27
                      A                      A                      A
 Frequencies --    627.2217               673.7254               699.1556
 Red. masses --      1.7730                 4.7511                 4.5614
 Frc consts  --      0.4110                 1.2706                 1.3137
 IR Inten    --     63.9083                52.9416                 8.1222

                     28                     29                     30
                      A                      A                      A
 Frequencies --    725.5911               768.1426               775.0805
 Red. masses --      3.7597                 5.2655                 4.7043
 Frc consts  --      1.1662                 1.8305                 1.6651
 IR Inten    --     16.2483                 1.8014                56.1536

                     31                     32                     33
                      A                      A                      A
 Frequencies --    839.2274               847.2031               908.1442
 Red. masses --      2.0738                 1.7823                 3.2028
 Frc consts  --      0.8605                 0.7537                 1.5563
 IR Inten    --      4.6289                15.9858                 8.6961

                     34                     35                     36
                      A                      A                      A
 Frequencies --    929.7988               940.8018               965.1759
 Red. masses --      1.5526                 3.8408                 1.3575
 Frc consts  --      0.7909                 2.0029                 0.7451
 IR Inten    --      1.5834                 7.1532                 0.8941

                     37                     38                     39
                      A                      A                      A
 Frequencies --    971.2784               985.4844              1014.5871
 Red. masses --      2.6586                 2.0612                 3.1784
 Frc consts  --      1.4777                 1.1794                 1.9277
 IR Inten    --      7.4480                 7.7138                21.5984

                     40                     41                     42
                      A                      A                      A
 Frequencies --   1096.8326              1116.0989              1122.5667
 Red. masses --      2.9370                 3.6157                 2.3722
 Frc consts  --      2.0818                 2.6536                 1.7613
 IR Inten    --     22.0320                52.6805                88.1603

                     43                     44                     45
                      A                      A                      A
 Frequencies --   1154.6030              1170.6845              1174.4119
 Red. masses --      2.4035                 1.2770                 2.0604
 Frc consts  --      1.8878                 1.0311                 1.6744
 IR Inten    --    141.3014                 8.4630                45.3123

                     46                     47                     48
                      A                      A                      A
 Frequencies --   1186.4827              1193.4991              1210.8663
 Red. masses --      1.8078                 1.3817                 1.6187
 Frc consts  --      1.4994                 1.1596                 1.3983
 IR Inten    --    236.8019                20.8915                30.5518

                     49                     50                     51
                      A                      A                      A
 Frequencies --   1235.3597              1246.4663              1268.6869
 Red. masses --      1.8434                 1.5552                 2.6559
 Frc consts  --      1.6575                 1.4236                 2.5187
 IR Inten    --     73.5300                81.1374                74.2851

                     52                     53                     54
                      A                      A                      A
 Frequencies --   1315.4593              1324.8546              1356.5446
 Red. masses --      1.3526                 1.2696                 2.1773
 Frc consts  --      1.3791                 1.3130                 2.3607
 IR Inten    --      7.7912                20.5087                60.2179

                     55                     56                     57
                      A                      A                      A
 Frequencies --   1379.3212              1394.0574              1414.8346
 Red. masses --      5.2139                 2.5263                 1.4952
 Frc consts  --      5.8445                 2.8927                 1.7635
 IR Inten    --     99.6667               195.9224                26.7686

                     58                     59                     60
                      A                      A                      A
 Frequencies --   1424.3179              1436.0493              1467.7806
 Red. masses --      1.3570                 2.2286                 1.1334
 Frc consts  --      1.6220                 2.7079                 1.4386
 IR Inten    --      7.3631                65.7168                 8.8389

                     61                     62                     63
                      A                      A                      A
 Frequencies --   1495.2157              1501.3470              1503.7425
 Red. masses --      1.0954                 1.2281                 3.3069
 Frc consts  --      1.4428                 1.6310                 4.4057
 IR Inten    --      9.5316                 8.4467                48.9756

                     64                     65                     66
                      A                      A                      A
 Frequencies --   1517.2483              1527.5215              1537.1697
 Red. masses --      1.0557                 1.1030                 1.1114
 Frc consts  --      1.4318                 1.5164                 1.5472
 IR Inten    --      4.5700                 2.7998                 0.9005

                     67                     68                     69
                      A                      A                      A
 Frequencies --   1543.6625              1642.4584              1676.6580
 Red. masses --      3.0376                 7.0364                 6.9322
 Frc consts  --      4.2647                11.1838                11.4818
 IR Inten    --     85.0191                26.4744               219.1231

                     70                     71                     72
                      A                      A                      A
 Frequencies --   1814.4035              1829.4610              3013.0147
 Red. masses --      9.6329                12.0564                 1.0382
 Frc consts  --     18.6843                23.7747                 5.5530
 IR Inten    --    365.3589               388.1995                48.1404

                     73                     74                     75
                      A                      A                      A
 Frequencies --   3035.8702              3072.0438              3072.2917
 Red. masses --      1.0566                 1.0623                 1.0943
 Frc consts  --      5.7378                 5.9067                 6.0854
 IR Inten    --     53.7845                 6.9104                45.5245

                     76                     77                     78
                      A                      A                      A
 Frequencies --   3072.7565              3087.9793              3107.4011
 Red. masses --      1.0829                 1.0907                 1.1028
 Frc consts  --      6.0243                 6.1275                 6.2739
 IR Inten    --     11.0838                61.1023                 2.2928

                     79                     80                     81
                      A                      A                      A
 Frequencies --   3132.7071              3144.4631              3222.2433
 Red. masses --      1.1062                 1.0992                 1.0913
 Frc consts  --      6.3963                 6.4033                 6.6760
 IR Inten    --      5.3172                22.2305                 0.7320

                     82                     83                     84
                      A                      A                      A
 Frequencies --   3230.1416              3243.9501              3703.0721
 Red. masses --      1.0884                 1.0943                 1.0642
 Frc consts  --      6.6911                 6.7847                 8.5978
 IR Inten    --      1.8132                 1.4937                83.9079

 - Thermochemistry -
 -------------------
 Temperature   298.150 Kelvin.  Pressure   1.00000 Atm.
 Atom     1 has atomic number  6 and mass  12.00000

 Molecular mass:   235.08446 amu.
 Principal axes and moments of inertia in atomic units:
                           1         2         3
     Eigenvalues --  2148.848366304.900867737.88944
           X            0.99993  -0.01140   0.00244
           Y            0.01141   0.99993  -0.00387
           Z           -0.00240   0.00390   0.99999
 This molecule is an asymmetric top.
 Rotational symmetry number  1.
 Warning -- assumption of classical behavior for rotation
           may cause significant error
 Rotational temperatures (Kelvin)      0.04031     0.01374     0.01119
 Rotational constants (GHZ):           0.83986     0.28624     0.23323
 Zero-point vibrational energy     630495.8 (Joules/Mol)
                                  150.69211 (Kcal/Mol)
 Warning -- explicit consideration of  24 degrees of freedom as
           vibrations may cause significant error
 Vibrational temperatures:     52.30    63.61    91.42   121.10   143.99
          (Kelvin)            155.08   190.40   217.11   246.69   295.98
                              350.53   392.09   466.64   477.57   531.63
                              613.24   617.88   685.86   738.37   746.77
                              791.19   815.80   846.41   885.15   902.43
                              969.34  1005.93  1043.96  1105.19  1115.17
                             1207.46  1218.94  1306.62  1337.77  1353.60
                             1388.67  1397.45  1417.89  1459.76  1578.10
                             1605.82  1615.12  1661.22  1684.35  1689.72
                             1707.08  1717.18  1742.17  1777.41  1793.39
                             1825.36  1892.65  1906.17  1951.77  1984.54
                             2005.74  2035.63  2049.28  2066.15  2111.81
                             2151.28  2160.10  2163.55  2182.98  2197.76
                             2211.64  2220.99  2363.13  2412.34  2610.52
                             2632.19  4335.06  4367.94  4419.99  4420.34
                             4421.01  4442.91  4470.86  4507.27  4524.18
                             4636.09  4647.45  4667.32  5327.89

 Zero-point correction=                           0.240143 (Hartree/Particle)
 Thermal correction to Energy=                    0.255600
 Thermal correction to Enthalpy=                  0.256545
 Thermal correction to Gibbs Free Energy=         0.196151
 Sum of electronic and zero-point Energies=           -820.599132
 Sum of electronic and thermal Energies=              -820.583675
 Sum of electronic and thermal Enthalpies=            -820.582731
 Sum of electronic and thermal Free Energies=         -820.643124

                     E (Thermal)             CV                S
                      KCal/Mol        Cal/Mol-Kelvin    Cal/Mol-Kelvin
 Total                  160.392             57.666            127.109
 Electronic               0.000              0.000              0.000
 Translational            0.889              2.981             42.266
 Rotational               0.889              2.981             33.016
 Vibrational            158.614             51.704             51.827
 Vibration     1          0.594              1.982              5.449
 Vibration     2          0.595              1.980              5.061
 Vibration     3          0.597              1.972              4.344
 Vibration     4          0.601              1.960              3.791
 Vibration     5          0.604              1.949              3.453
 Vibration     6          0.606              1.943              3.308
 Vibration     7          0.612              1.921              2.912
 Vibration     8          0.618              1.902              2.661
 Vibration     9          0.626              1.878              2.419
 Vibration    10          0.640              1.832              2.081
 Vibration    11          0.659              1.773              1.776
 Vibration    12          0.676              1.724              1.580
 Vibration    13          0.709              1.627              1.288
 Vibration    14          0.714              1.612              1.251
 Vibration    15          0.742              1.535              1.082
 Vibration    16          0.788              1.413              0.871
 Vibration    17          0.791              1.406              0.860
 Vibration    18          0.833              1.302              0.719
 Vibration    19          0.868              1.221              0.626
 Vibration    20          0.874              1.208              0.612
 Vibration    21          0.905              1.140              0.544
 Vibration    22          0.923              1.103              0.510
 Vibration    23          0.945              1.057              0.470
 Vibration    24          0.975              1.000              0.424

                           ! Non-Optimized Parameters !
 Normal termination of Gaussian 16 at Fri Dec 11 13:21:12 2020.

 ----------------------------------------------------------------------
 # B3LYP/6-311++G(d,p) empiricaldispersion=gd3bj scf=xqc pop=npa geom=c
 heck
 ----------------------------------------------------------------------

 ---------------------------------------
 CID_102711189_JID_7822_Energie_neutraal
 ---------------------------------------
 Structure from the checkpoint file:  "JID_7822.chk"
 Charge =  0 Multiplicity = 1

 SCF Done:  E(RB3LYP) =  -821.076874020     A.U. after   15 cycles
 Normal termination of Gaussian 16 at Fri Dec 11 13:25:12 2020.

 ----------------------------------------------------------------------
 # B3LYP/6-311++G(d,p) empiricaldispersion=gd3bj scf=xqc pop=npa geom=c
 heck
 ----------------------------------------------------------------------

 -------------------------------------
 CID_102711189_JID_7822_Energie_kation
 -------------------------------------
 Structure from the checkpoint file:  "JID_7822.chk"
 Charge =  1 Multiplicity = 2

 SCF Done:  E(UB3LYP) =  -820.779605768     A.U. after   23 cycles
 Normal termination of Gaussian 16 at Fri Dec 11 13:33:20 2020.
 Gaussian 16:  ES64L-G16RevA.03 25-Dec-2016

 ----------------------------------------------------------------------
 # B3LYP/6-311++G(d,p) empiricaldispersion=gd3bj scf=xqc pop=npa geom=c
 heck
 ----------------------------------------------------------------------

 ------------------------------------
 CID_102711189_JID_7822_Energie_anion
 ------------------------------------
 Structure from the checkpoint file:  "JID_7822.chk"
 Charge = -1 Multiplicity = 2

                         Standard orientation:
 ---------------------------------------------------------------------
 Center     Atomic      Atomic             Coordinates (Angstroms)
 Number     Number       Type             X           Y           Z
 ---------------------------------------------------------------------
      1          6           0        1.947745   -2.109108    1.605165
      2          8           0        2.452216   -2.250249    0.288001
      3          6           0        3.387555   -1.254044   -0.095814
      4          6           0        2.779113   -0.255953   -1.078215
      5          7           0        1.710369    0.543568   -0.503179
      6          6           0        1.943287    1.818762    0.010563
      7          8           0        3.034839    2.351471    0.065643
      8          6           0        0.588456    2.376622    0.461290
      9          6           0       -0.372834    1.265824    0.132811
     10          6           0        0.357143    0.199911   -0.431995
     11          6           0       -0.258945   -0.985637   -0.825201
     12          6           0       -1.640541   -1.084742   -0.658631
     13          6           0       -2.383334   -0.031139   -0.107625
     14          6           0       -1.737593    1.153857    0.296192
     15          6           0       -3.846470   -0.114127    0.082228
     16          8           0       -4.540433    0.763620    0.560099
     17          8           0       -4.375856   -1.295566   -0.335937
     18          1           0        2.755422   -2.160550    2.350132
     19          1           0        1.260384   -2.942581    1.768340
     20          1           0        1.397132   -1.169008    1.742415
     21          1           0        3.778337   -0.717229    0.778720
     22          1           0        4.229863   -1.757155   -0.588281
     23          1           0        3.552254    0.444088   -1.408702
     24          1           0        2.386342   -0.785253   -1.952098
     25          1           0        0.630178    2.621443    1.528856
     26          1           0        0.384867    3.311244   -0.073709
     27          1           0        0.321362   -1.817453   -1.204911
     28          1           0       -2.151537   -1.994319   -0.952072
     29          1           0       -2.332866    1.952349    0.726706
     30          1           0       -5.331943   -1.226117   -0.160201
 ---------------------------------------------------------------------

 SCF Done:  E(UB3LYP) =  -821.081476484     A.U. after   33 cycles
 SCF Done:  E(UB3LYP) =  -821.081476484     a.u. after    1 cycles

 The electronic state is 2-A.
 Alpha  occ. eigenvalues --  -19.03118 -19.01951 -18.97759 -18.94274 -14.23593
 Alpha  occ. eigenvalues --  -10.15060 -10.12641 -10.12604 -10.11626 -10.10753
 Alpha  occ. eigenvalues --  -10.06869 -10.06261 -10.04240 -10.03550 -10.03264
 Alpha  occ. eigenvalues --  -10.02682 -10.02019  -0.95405  -0.94344  -0.93058
 Alpha  occ. eigenvalues --   -0.85839  -0.84468  -0.72264  -0.68323  -0.64827
 Alpha  occ. eigenvalues --   -0.61576  -0.58827  -0.57952  -0.52984  -0.51555
 Alpha  occ. eigenvalues --   -0.46828  -0.45197  -0.43788  -0.40736  -0.39491
 Alpha  occ. eigenvalues --   -0.38603  -0.37092  -0.36501  -0.34677  -0.34084
 Alpha  occ. eigenvalues --   -0.33407  -0.31938  -0.31177  -0.30666  -0.30148
 Alpha  occ. eigenvalues --   -0.29233  -0.28770  -0.28340  -0.27916  -0.25989
 Alpha  occ. eigenvalues --   -0.25690  -0.24179  -0.23890  -0.22817  -0.20554
 Alpha  occ. eigenvalues --   -0.18838  -0.17714  -0.16212  -0.14836  -0.12755
 Alpha  occ. eigenvalues --   -0.12139  -0.08974   0.05016
 Alpha virt. eigenvalues --    0.06863   0.08165   0.09150   0.09502   0.09910
 Alpha virt. eigenvalues --    0.10432   0.10936   0.11677   0.11880   0.12519
 Alpha virt. eigenvalues --    0.13108   0.13193   0.13807   0.14325   0.15032

  Beta  occ. eigenvalues --  -19.03117 -19.01891 -18.97634 -18.93970 -14.23666
  Beta  occ. eigenvalues --  -10.14923 -10.12636 -10.12318 -10.11621 -10.10747
  Beta  occ. eigenvalues --  -10.06881 -10.05848 -10.04283 -10.03645 -10.03154
  Beta  occ. eigenvalues --  -10.02462 -10.01848  -0.95107  -0.94333  -0.92838
  Beta  occ. eigenvalues --   -0.85383  -0.84322  -0.72061  -0.68131  -0.64752
  Beta  occ. eigenvalues --   -0.61166  -0.58594  -0.57717  -0.52874  -0.51030
  Beta  occ. eigenvalues --   -0.46738  -0.44998  -0.43609  -0.40613  -0.39432
  Beta  occ. eigenvalues --   -0.38513  -0.36933  -0.36354  -0.34448  -0.33858
  Beta  occ. eigenvalues --   -0.33210  -0.31827  -0.31004  -0.30601  -0.29170
  Beta  occ. eigenvalues --   -0.28828  -0.28681  -0.28163  -0.27849  -0.25638
  Beta  occ. eigenvalues --   -0.25495  -0.23624  -0.23226  -0.22798  -0.20421
  Beta  occ. eigenvalues --   -0.18213  -0.16804  -0.15667  -0.14734  -0.12452
  Beta  occ. eigenvalues --   -0.11370  -0.07774
  Beta virt. eigenvalues --    0.06942   0.08186   0.09091   0.09451   0.09816
  Beta virt. eigenvalues --    0.10384   0.10912   0.11039   0.11716   0.11820
  Beta virt. eigenvalues --    0.12581   0.13099   0.13529   0.14189   0.14386

 Mulliken charges and spin densities:
               1          2
     1  C   -0.157218  -0.165462
     2  O   -0.136613   0.008115
     3  C   -0.183888  -0.207668
     4  C   -0.122262   0.047376
     5  N    0.198708  -0.044191
     6  C    0.029959   0.060352
     7  O   -0.390249   0.046135
     8  C   -0.507761  -0.016940
     9  C   -0.134310  -0.024980
    10  C    0.398175   0.301314
    11  C   -0.311962  -0.051478
    12  C   -0.667907   0.183378
    13  C    0.299418  -0.025826
    14  C   -0.615177   0.120864
    15  C    0.288097   0.151325
    16  O   -0.435571   0.108916
    17  O   -0.233804   0.014870
    18  H    0.055031   0.052757
    19  H    0.090351   0.064952
    20  H    0.112551   0.043370
    21  H    0.196405  -0.033935
    22  H   -0.082249   0.226027
    23  H    0.082173   0.091598
    24  H    0.165360   0.020362
    25  H    0.192485  -0.000662
    26  H    0.153917   0.023494
    27  H    0.109472   0.015692
    28  H    0.162028  -0.004257
    29  H    0.181379  -0.004846
    30  H    0.263463  -0.000652
 Sum of Mulliken charges =  -1.00000   1.00000

 Dipole moment (field-independent basis, Debye):
    X=              4.1083    Y=             -2.1902    Z=              0.0915  Tot=              4.6566
 Quadrupole moment (field-independent basis, Debye-Ang):
   XX=           -163.3311   YY=           -124.3800   ZZ=           -107.1803
   XY=             -1.2958   XZ=              4.1410   YZ=             -2.0437

 Summary of Natural Population Analysis:

                                       Natural Population
                Natural  -----------------------------------------------
    Atom  No    Charge         Core      Valence    Rydberg      Total
 -----------------------------------------------------------------------
      C    1   -0.09683      0.99961     2.08901    0.00820     3.09683
      O    2   -0.30410      0.99989     3.29390    0.01031     4.30410
      C    3   -0.01327      0.99958     2.00059    0.01311     3.01327
      C    4   -0.09960      0.99962     2.08803    0.01195     3.09960
      N    5   -0.25418      0.99960     2.74541    0.00917     3.75418
      C    6    0.37014      0.99968     1.60677    0.02341     2.62986
      O    7   -0.31592      0.99987     3.31006    0.00600     4.31592
      C    8   -0.23568      0.99958     2.22992    0.00618     3.23568
      C    9   -0.05326      0.99949     2.04576    0.00801     3.05326
      C   10    0.15442      0.99945     1.83490    0.01123     2.84558
      C   11   -0.15525      0.99954     2.14755    0.00816     3.15525
      C   12   -0.03338      0.99956     2.02580    0.00802     3.03338
      C   13   -0.06808      0.99947     2.05658    0.01203     3.06808
      C   14   -0.05069      0.99950     2.04323    0.00797     3.05069
      C   15    0.43035      0.99965     1.54679    0.02321     2.56965
      O   16   -0.30940      0.99987     3.30328    0.00626     4.30940
      O   17   -0.35609      0.99988     3.34905    0.00715     4.35609
      H   18    0.07233      0.00000     0.42635    0.00131     0.42767
      H   19    0.09119      0.00000     0.40770    0.00111     0.40881
      H   20    0.08953      0.00000     0.40928    0.00119     0.41047
      H   21    0.08481      0.00000     0.41383    0.00136     0.41519
      H   22    0.08444      0.00000     0.41415    0.00141     0.41556
      H   23    0.10941      0.00000     0.38901    0.00157     0.39059
      H   24    0.09911      0.00000     0.39959    0.00131     0.40089
      H   25    0.11230      0.00000     0.38669    0.00100     0.38770
      H   26    0.11302      0.00000     0.38595    0.00103     0.38698
      H   27    0.10219      0.00000     0.39580    0.00201     0.39781
      H   28    0.09989      0.00000     0.39915    0.00095     0.40011
      H   29    0.10487      0.00000     0.39416    0.00097     0.39513
      H   30    0.22772      0.00000     0.26720    0.00507     0.27228
 =======================================================================
   * Total *   -0.00000     16.99383    44.80549    0.20068    62.00000

 Normal termination of Gaussian 16 at Fri Dec 11 13:44:51 2020.
