 Gaussian 16, Revision A.03,

 -----------------------------------------------------------
 # opt freq B3LYP/6-31G(d) empiricaldispersion=gd3bj scf=xqc
 -----------------------------------------------------------

 ------------------------------
 CID_83075982_JID_8186_neutraal
 ------------------------------
 Symbolic Z-matrix:
 Charge =  0 Multiplicity = 1

 SCF Done:  E(RB3LYP) =  -909.466683770     A.U. after   16 cycles
 SCF Done:  E(RB3LYP) =  -909.478710036     A.U. after   13 cycles
 SCF Done:  E(RB3LYP) =  -909.477479149     A.U. after   14 cycles
 SCF Done:  E(RB3LYP) =  -909.479284095     A.U. after   14 cycles
 SCF Done:  E(RB3LYP) =  -909.480612728     A.U. after   13 cycles
 SCF Done:  E(RB3LYP) =  -909.480288387     A.U. after   12 cycles
 SCF Done:  E(RB3LYP) =  -909.480803385     A.U. after   12 cycles
 SCF Done:  E(RB3LYP) =  -909.480840281     A.U. after   11 cycles
 SCF Done:  E(RB3LYP) =  -909.480889735     A.U. after   10 cycles
 SCF Done:  E(RB3LYP) =  -909.480895754     A.U. after   10 cycles
 SCF Done:  E(RB3LYP) =  -909.480897482     A.U. after    9 cycles
 SCF Done:  E(RB3LYP) =  -909.480898212     A.U. after    8 cycles
 SCF Done:  E(RB3LYP) =  -909.480898630     A.U. after    8 cycles
 SCF Done:  E(RB3LYP) =  -909.480898781     A.U. after    7 cycles
 Optimization completed.
    -- Stationary point found.
 Normal termination of Gaussian 16 at Fri Dec 11 19:26:01 2020.

 --------------------------------------------------------------------
 #N Geom=AllCheck Guess=TCheck SCRF=Check GenChk RB3LYP/6-31G(d) Freq
 --------------------------------------------------------------------

 Structure from the checkpoint file:  "JID_8186.chk"
 ------------------------------
 CID_83075982_JID_8186_neutraal
 ------------------------------
 Charge =  0 Multiplicity = 1

 SCF Done:  E(RB3LYP) =  -909.480898781     A.U. after    1 cycles

  Exact polarizability: 169.151  15.020 145.236   5.712   5.222 101.371
 Approx polarizability: 234.412  31.123 252.845  15.235  22.768 152.068

                      1                      2                      3
                      A                      A                      A
 Frequencies --     45.9745                49.2535                68.9534
 Red. masses --      5.4587                 6.1095                 5.4365
 Frc consts  --      0.0068                 0.0087                 0.0152
 IR Inten    --      0.1581                 0.2446                 0.8752

                      4                      5                      6
                      A                      A                      A
 Frequencies --    105.2080               115.5417               132.7711
 Red. masses --      3.6694                 4.2583                 5.1918
 Frc consts  --      0.0239                 0.0335                 0.0539
 IR Inten    --      0.8780                 0.7165                 1.0049

                      7                      8                      9
                      A                      A                      A
 Frequencies --    141.8574               149.5632               192.0140
 Red. masses --      9.3448                 4.9873                 3.2256
 Frc consts  --      0.1108                 0.0657                 0.0701
 IR Inten    --      0.9762                 0.5515                 1.4004

                     10                     11                     12
                      A                      A                      A
 Frequencies --    215.3528               229.7118               273.7437
 Red. masses --      2.6461                 3.2287                 3.9124
 Frc consts  --      0.0723                 0.1004                 0.1727
 IR Inten    --      0.9823                 0.5211                 3.2595

                     13                     14                     15
                      A                      A                      A
 Frequencies --    287.8392               296.9984               319.8408
 Red. masses --      2.2489                 1.4712                 5.0801
 Frc consts  --      0.1098                 0.0765                 0.3062
 IR Inten    --      0.6186                 0.9592                 3.6460

                     16                     17                     18
                      A                      A                      A
 Frequencies --    345.0783               376.2120               392.8415
 Red. masses --      3.6162                 4.5130                10.3081
 Frc consts  --      0.2537                 0.3763                 0.9373
 IR Inten    --      0.9645                 1.2448                23.8384

                     19                     20                     21
                      A                      A                      A
 Frequencies --    432.9433               465.2423               480.4715
 Red. masses --      4.1528                 7.0448                 4.6303
 Frc consts  --      0.4586                 0.8984                 0.6298
 IR Inten    --      2.6224                 1.6439                 3.4458

                     22                     23                     24
                      A                      A                      A
 Frequencies --    540.9885               554.7957               565.5649
 Red. masses --      5.7682                 1.2529                 2.6980
 Frc consts  --      0.9946                 0.2272                 0.5085
 IR Inten    --     24.9525                45.5541                51.9768

                     25                     26                     27
                      A                      A                      A
 Frequencies --    579.1539               601.6830               627.8260
 Red. masses --      1.8985                 2.2205                 2.6363
 Frc consts  --      0.3752                 0.4736                 0.6122
 IR Inten    --     13.8320                60.0371                 4.3543

                     28                     29                     30
                      A                      A                      A
 Frequencies --    642.1850               687.5852               693.6055
 Red. masses --      4.8308                 3.2965                 1.4883
 Frc consts  --      1.1738                 0.9182                 0.4219
 IR Inten    --      6.2914                24.3232                61.3590

                     31                     32                     33
                      A                      A                      A
 Frequencies --    728.3219               742.4280               758.7428
 Red. masses --      3.8182                10.2645                 2.9964
 Frc consts  --      1.1933                 3.3335                 1.0163
 IR Inten    --     87.2904                19.5637                22.2252

                     34                     35                     36
                      A                      A                      A
 Frequencies --    772.7115               776.0849               841.0602
 Red. masses --      2.0094                10.3080                 1.6194
 Frc consts  --      0.7069                 3.6580                 0.6749
 IR Inten    --     35.7820                 9.9877                 1.4962

                     37                     38                     39
                      A                      A                      A
 Frequencies --    891.3036               918.8234               943.5641
 Red. masses --      2.0517                 2.3856                 1.9939
 Frc consts  --      0.9603                 1.1866                 1.0459
 IR Inten    --      5.0268                 1.3593                20.7702

                     40                     41                     42
                      A                      A                      A
 Frequencies --    959.0406               999.7972              1008.6560
 Red. masses --      2.4724                 2.8729                 3.2175
 Frc consts  --      1.3398                 1.6920                 1.9286
 IR Inten    --      1.9520                38.0084                20.6383

                     43                     44                     45
                      A                      A                      A
 Frequencies --   1021.5262              1066.0314              1098.8670
 Red. masses --      2.2414                 2.0330                 1.7723
 Frc consts  --      1.3781                 1.3612                 1.2609
 IR Inten    --     11.9773                 4.0671                 1.7678

                     46                     47                     48
                      A                      A                      A
 Frequencies --   1106.9778              1148.1277              1159.6917
 Red. masses --      2.8795                 3.2408                 2.6168
 Frc consts  --      2.0790                 2.5170                 2.0735
 IR Inten    --     28.4247                74.8150                 5.1526

                     49                     50                     51
                      A                      A                      A
 Frequencies --   1168.0244              1192.5010              1224.1173
 Red. masses --      2.4074                 1.8148                 4.5839
 Frc consts  --      1.9351                 1.5205                 4.0470
 IR Inten    --     64.8176                35.4184                35.4046

                     52                     53                     54
                      A                      A                      A
 Frequencies --   1234.0266              1250.4664              1289.0253
 Red. masses --      1.5725                 1.7380                 1.3504
 Frc consts  --      1.4109                 1.6012                 1.3221
 IR Inten    --     32.6121                18.7480                33.7547

                     55                     56                     57
                      A                      A                      A
 Frequencies --   1291.3796              1345.4808              1348.6850
 Red. masses --      3.7447                 1.3773                 1.3464
 Frc consts  --      3.6793                 1.4691                 1.4429
 IR Inten    --     60.9913                 6.4718                 6.0732

                     58                     59                     60
                      A                      A                      A
 Frequencies --   1373.9646              1375.9319              1388.2801
 Red. masses --      2.0109                 2.0469                 1.6831
 Frc consts  --      2.2366                 2.2832                 1.9112
 IR Inten    --    160.9553                96.1362                28.3067

                     61                     62                     63
                      A                      A                      A
 Frequencies --   1395.8105              1409.7539              1415.5640
 Red. masses --      1.5504                 1.4447                 1.9889
 Frc consts  --      1.7797                 1.6917                 2.3481
 IR Inten    --     33.4837                 2.0230                74.9553

                     64                     65                     66
                      A                      A                      A
 Frequencies --   1442.0961              1449.3525              1500.3748
 Red. masses --      1.2802                 1.9982                 1.1159
 Frc consts  --      1.5686                 2.4731                 1.4801
 IR Inten    --      6.9777                25.4650                 4.7390

                     67                     68                     69
                      A                      A                      A
 Frequencies --   1510.8190              1519.4470              1528.1086
 Red. masses --      2.9307                 1.0994                 1.1134
 Frc consts  --      3.9414                 1.4955                 1.5318
 IR Inten    --     33.5995                 4.6071                 8.4270

                     70                     71                     72
                      A                      A                      A
 Frequencies --   1533.0823              1533.8267              1545.7861
 Red. masses --      1.0605                 1.0487                 1.0992
 Frc consts  --      1.4686                 1.4537                 1.5474
 IR Inten    --      6.1597                 6.5127                 5.1570

                     73                     74                     75
                      A                      A                      A
 Frequencies --   1654.5886              1798.9462              1840.8460
 Red. masses --      8.9074                 9.8157                 9.4290
 Frc consts  --     14.3675                18.7159                18.8258
 IR Inten    --    184.6457               369.3953               364.2261

                     76                     77                     78
                      A                      A                      A
 Frequencies --   1843.3185              3050.9916              3063.7958
 Red. masses --      8.8561                 1.0610                 1.0413
 Frc consts  --     17.7294                 5.8187                 5.7590
 IR Inten    --    579.7808                15.8873                29.4866

                     79                     80                     81
                      A                      A                      A
 Frequencies --   3071.3283              3073.4322              3089.4841
 Red. masses --      1.0651                 1.0701                 1.0614
 Frc consts  --      5.9194                 5.9554                 5.9692
 IR Inten    --     20.3674                35.8183                31.0004

                     82                     83                     84
                      A                      A                      A
 Frequencies --   3093.0760              3123.3360              3126.4417
 Red. masses --      1.1021                 1.1012                 1.0969
 Frc consts  --      6.2121                 6.3293                 6.3170
 IR Inten    --     10.0320                11.3925                46.8843

                     85                     86                     87
                      A                      A                      A
 Frequencies --   3138.8315              3158.8951              3165.4768
 Red. masses --      1.1038                 1.0991                 1.1018
 Frc consts  --      6.4072                 6.4621                 6.5048
 IR Inten    --     23.6751                15.7294                17.1071

                     88                     89                     90
                      A                      A                      A
 Frequencies --   3601.7859              3650.7447              3690.4400
 Red. masses --      1.0775                 1.0791                 1.0641
 Frc consts  --      8.2355                 8.4741                 8.5388
 IR Inten    --     72.2048                71.9908                55.4618

 - Thermochemistry -
 -------------------
 Temperature   298.150 Kelvin.  Pressure   1.00000 Atm.
 Atom     1 has atomic number  6 and mass  12.00000

 Molecular mass:   254.10151 amu.
 Principal axes and moments of inertia in atomic units:
                           1         2         3
     Eigenvalues --  2656.537235245.657386275.12482
           X            0.99984   0.01706   0.00614
           Y           -0.01675   0.99872  -0.04762
           Z           -0.00695   0.04751   0.99885
 This molecule is an asymmetric top.
 Rotational symmetry number  1.
 Warning -- assumption of classical behavior for rotation
           may cause significant error
 Rotational temperatures (Kelvin)      0.03260     0.01651     0.01380
 Rotational constants (GHZ):           0.67936     0.34404     0.28760
 Zero-point vibrational energy     676214.4 (Joules/Mol)
                                  161.61912 (Kcal/Mol)
 Warning -- explicit consideration of  26 degrees of freedom as
           vibrations may cause significant error
 Vibrational temperatures:     66.15    70.86    99.21   151.37   166.24
          (Kelvin)            191.03   204.10   215.19   276.27   309.84
                              330.50   393.86   414.14   427.31   460.18
                              496.49   541.29   565.21   622.91   669.38
                              691.29   778.36   798.23   813.72   833.27
                              865.69   903.30   923.96   989.28   997.94
                             1047.89  1068.19  1091.66  1111.76  1116.61
                             1210.10  1282.39  1321.98  1357.58  1379.85
                             1438.49  1451.23  1469.75  1533.78  1581.02
                             1592.69  1651.90  1668.54  1680.53  1715.74
                             1761.23  1775.49  1799.14  1854.62  1858.01
                             1935.85  1940.46  1976.83  1979.66  1997.43
                             2008.26  2028.32  2036.68  2074.85  2085.30
                             2158.70  2173.73  2186.15  2198.61  2205.76
                             2206.83  2224.04  2380.58  2588.28  2648.57
                             2652.12  4389.70  4408.12  4418.96  4421.98
                             4445.08  4450.25  4493.78  4498.25  4516.08
                             4544.95  4554.42  5182.17  5252.61  5309.72

 Zero-point correction=                           0.257556 (Hartree/Particle)
 Thermal correction to Energy=                    0.273966
 Thermal correction to Enthalpy=                  0.274910
 Thermal correction to Gibbs Free Energy=         0.213788
 Sum of electronic and zero-point Energies=           -909.223342
 Sum of electronic and thermal Energies=              -909.206933
 Sum of electronic and thermal Enthalpies=            -909.205989
 Sum of electronic and thermal Free Energies=         -909.267111

                     E (Thermal)             CV                S
                      KCal/Mol        Cal/Mol-Kelvin    Cal/Mol-Kelvin
 Total                  171.916             62.906            128.643
 Electronic               0.000              0.000              0.000
 Translational            0.889              2.981             42.498
 Rotational               0.889              2.981             32.836
 Vibrational            170.139             56.945             53.309
 Vibration     1          0.595              1.979              4.983
 Vibration     2          0.595              1.978              4.847
 Vibration     3          0.598              1.969              4.183
 Vibration     4          0.605              1.945              3.355
 Vibration     5          0.608              1.937              3.174
 Vibration     6          0.613              1.921              2.906
 Vibration     7          0.615              1.911              2.779
 Vibration     8          0.618              1.903              2.678
 Vibration     9          0.634              1.851              2.208
 Vibration    10          0.645              1.818              1.998
 Vibration    11          0.652              1.796              1.881
 Vibration    12          0.676              1.722              1.572
 Vibration    13          0.685              1.696              1.487
 Vibration    14          0.691              1.679              1.434
 Vibration    15          0.706              1.636              1.311
 Vibration    16          0.723              1.585              1.189
 Vibration    17          0.747              1.521              1.054
 Vibration    18          0.760              1.485              0.989
 Vibration    19          0.794              1.398              0.849
 Vibration    20          0.823              1.327              0.751
 Vibration    21          0.837              1.293              0.709
 Vibration    22          0.896              1.159              0.563
 Vibration    23          0.910              1.129              0.534
 Vibration    24          0.921              1.106              0.513
 Vibration    25          0.936              1.076              0.487
 Vibration    26          0.960              1.028              0.447

                           ! Non-Optimized Parameters !
 Normal termination of Gaussian 16 at Fri Dec 11 19:39:24 2020.

 ----------------------------------------------------------------------
 # B3LYP/6-311++G(d,p) empiricaldispersion=gd3bj scf=xqc pop=npa geom=c
 heck
 ----------------------------------------------------------------------

 --------------------------------------
 CID_83075982_JID_8186_Energie_neutraal
 --------------------------------------
 Structure from the checkpoint file:  "JID_8186.chk"
 Charge =  0 Multiplicity = 1

 SCF Done:  E(RB3LYP) =  -909.752373164     A.U. after   16 cycles
 Normal termination of Gaussian 16 at Fri Dec 11 19:44:57 2020.

 ----------------------------------------------------------------------
 # B3LYP/6-311++G(d,p) empiricaldispersion=gd3bj scf=xqc pop=npa geom=c
 heck
 ----------------------------------------------------------------------

 ------------------------------------
 CID_83075982_JID_8186_Energie_kation
 ------------------------------------
 Structure from the checkpoint file:  "JID_8186.chk"
 Charge =  1 Multiplicity = 2

 SCF Done:  E(UB3LYP) =  -909.463330418     A.U. after   22 cycles
 Normal termination of Gaussian 16 at Fri Dec 11 19:55:24 2020.
 Gaussian 16:  ES64L-G16RevA.03 25-Dec-2016

 ----------------------------------------------------------------------
 # B3LYP/6-311++G(d,p) empiricaldispersion=gd3bj scf=xqc pop=npa geom=c
 heck
 ----------------------------------------------------------------------

 -----------------------------------
 CID_83075982_JID_8186_Energie_anion
 -----------------------------------
 Structure from the checkpoint file:  "JID_8186.chk"
 Charge = -1 Multiplicity = 2

                         Standard orientation:
 ---------------------------------------------------------------------
 Center     Atomic      Atomic             Coordinates (Angstroms)
 Number     Number       Type             X           Y           Z
 ---------------------------------------------------------------------
      1          6           0        0.711027   -1.819908    2.100365
      2          6           0        1.846293   -0.882729    1.684886
      3          6           0        1.756992   -0.155225    0.326659
      4          6           0        3.005262    0.762974    0.153221
      5          6           0        2.502214    1.979234   -0.624524
      6          6           0        1.090590    2.181953   -0.071825
      7          7           0        0.639019    0.807744    0.246220
      8          6           0       -0.646731    0.386539    0.026968
      9          7           0       -0.871280   -0.852143   -0.295803
     10          7           0       -2.162980   -1.281061   -0.385687
     11          6           0       -3.302706   -0.529958   -0.250119
     12          8           0       -4.436097   -0.959501   -0.366979
     13          7           0       -3.008656    0.804215    0.048832
     14          6           0       -1.757928    1.362365    0.259013
     15          8           0       -1.620470    2.523714    0.603917
     16          6           0        1.766894   -1.158980   -0.834844
     17          8           0        2.090645   -2.321565   -0.747674
     18          8           0        1.491035   -0.568972   -2.024794
     19          1           0       -0.227275   -1.280501    2.254614
     20          1           0        0.974956   -2.303236    3.048006
     21          1           0        0.545231   -2.597940    1.353110
     22          1           0        1.962505   -0.098931    2.442904
     23          1           0        2.783843   -1.450168    1.666411
     24          1           0        3.352269    1.061042    1.148657
     25          1           0        3.827851    0.235999   -0.337748
     26          1           0        3.132046    2.861869   -0.479150
     27          1           0        2.458419    1.755229   -1.693225
     28          1           0        1.092615    2.795192    0.835377
     29          1           0        0.418211    2.654781   -0.786793
     30          1           0       -2.275002   -2.262405   -0.595110
     31          1           0       -3.807888    1.408545    0.204863
     32          1           0        1.557163   -1.277755   -2.691407
 ---------------------------------------------------------------------

 SCF Done:  E(UB3LYP) =  -909.759972712     A.U. after   33 cycles
 SCF Done:  E(UB3LYP) =  -909.759972712     a.u. after    1 cycles

 The electronic state is 2-A.
 Alpha  occ. eigenvalues --  -19.06121 -19.00570 -18.96545 -18.93364 -14.23929
 Alpha  occ. eigenvalues --  -14.21090 -14.19713 -14.17211 -10.19647 -10.17521
 Alpha  occ. eigenvalues --  -10.11761 -10.11061 -10.08251 -10.07816 -10.07588
 Alpha  occ. eigenvalues --  -10.06231 -10.06192 -10.04293  -1.00225  -0.94032
 Alpha  occ. eigenvalues --   -0.91292  -0.89452  -0.87054  -0.82910  -0.78273
 Alpha  occ. eigenvalues --   -0.71607  -0.67953  -0.65735  -0.61588  -0.55595
 Alpha  occ. eigenvalues --   -0.53804  -0.52068  -0.51890  -0.48873  -0.47194
 Alpha  occ. eigenvalues --   -0.43893  -0.42968  -0.39369  -0.38122  -0.37128
 Alpha  occ. eigenvalues --   -0.35533  -0.34842  -0.34047  -0.33204  -0.32524
 Alpha  occ. eigenvalues --   -0.31785  -0.31208  -0.30821  -0.29151  -0.28600
 Alpha  occ. eigenvalues --   -0.28145  -0.27920  -0.26202  -0.24776  -0.24571
 Alpha  occ. eigenvalues --   -0.23814  -0.23326  -0.22669  -0.22208  -0.21583
 Alpha  occ. eigenvalues --   -0.19045  -0.18351  -0.15241  -0.14745  -0.14096
 Alpha  occ. eigenvalues --   -0.11152  -0.07445   0.04946
 Alpha virt. eigenvalues --    0.06888   0.07811   0.08670   0.09486   0.10078
 Alpha virt. eigenvalues --    0.10523   0.11081   0.11334   0.12227   0.12413
 Alpha virt. eigenvalues --    0.12712   0.13806   0.14146   0.14610   0.14990

  Beta  occ. eigenvalues --  -19.06111 -19.00567 -18.96562 -18.92969 -14.23858
  Beta  occ. eigenvalues --  -14.20945 -14.19671 -14.16580 -10.19644 -10.17539
  Beta  occ. eigenvalues --  -10.11764 -10.10719 -10.08105 -10.07818 -10.07584
  Beta  occ. eigenvalues --  -10.06219 -10.06178 -10.04294  -1.00214  -0.93889
  Beta  occ. eigenvalues --   -0.91282  -0.88872  -0.86513  -0.82795  -0.77864
  Beta  occ. eigenvalues --   -0.71321  -0.67858  -0.65474  -0.61570  -0.55237
  Beta  occ. eigenvalues --   -0.53666  -0.51840  -0.51510  -0.48819  -0.47080
  Beta  occ. eigenvalues --   -0.43840  -0.42724  -0.39279  -0.37985  -0.37051
  Beta  occ. eigenvalues --   -0.35302  -0.34727  -0.33525  -0.32977  -0.32512
  Beta  occ. eigenvalues --   -0.31723  -0.31146  -0.30763  -0.29058  -0.28466
  Beta  occ. eigenvalues --   -0.27921  -0.27573  -0.25093  -0.24508  -0.23840
  Beta  occ. eigenvalues --   -0.23531  -0.23159  -0.22251  -0.22081  -0.21535
  Beta  occ. eigenvalues --   -0.18673  -0.18214  -0.14849  -0.13789  -0.13278
  Beta  occ. eigenvalues --   -0.10617  -0.05902
  Beta virt. eigenvalues --    0.07055   0.07999   0.08678   0.09449   0.10092
  Beta virt. eigenvalues --    0.10498   0.11071   0.11293   0.11977   0.12257
  Beta virt. eigenvalues --    0.12598   0.12618   0.13805   0.14073   0.14623

 Mulliken charges and spin densities:
               1          2
     1  C   -0.649312  -0.027061
     2  C   -0.139810   0.015349
     3  C   -0.146930   0.055846
     4  C    0.057167  -0.039881
     5  C   -0.220064  -0.410873
     6  C   -0.141071   0.104440
     7  N    0.380184  -0.004857
     8  C   -0.681319   0.203962
     9  N   -0.124442   0.242667
    10  N   -0.127307   0.061970
    11  C    0.336252  -0.007711
    12  O   -0.422362  -0.003473
    13  N   -0.428830   0.040503
    14  C    0.130311   0.234911
    15  O   -0.417823   0.144254
    16  C   -0.073693  -0.251518
    17  O   -0.248843   0.008095
    18  O   -0.143800   0.016323
    19  H    0.196707   0.007615
    20  H    0.112971  -0.004893
    21  H    0.160161   0.006948
    22  H    0.119125  -0.001391
    23  H    0.160085  -0.000207
    24  H    0.083140   0.068095
    25  H    0.066348   0.103795
    26  H   -0.200619   0.367783
    27  H    0.162092  -0.027677
    28  H    0.183362  -0.008258
    29  H    0.183009   0.014359
    30  H    0.310835   0.006593
    31  H    0.342344  -0.003456
    32  H    0.182134   0.087748
 Sum of Mulliken charges =  -1.00000   1.00000

 Dipole moment (field-independent basis, Debye):
    X=              4.7711    Y=             -1.6449    Z=             -0.4186  Tot=              5.0640
 Quadrupole moment (field-independent basis, Debye-Ang):
   XX=           -159.3558   YY=           -138.6683   ZZ=           -113.2765
   XY=             -0.7901   XZ=              0.4191   YZ=             -2.6187

 Summary of Natural Population Analysis:

                                       Natural Population
                Natural  -----------------------------------------------
    Atom  No    Charge         Core      Valence    Rydberg      Total
 -----------------------------------------------------------------------
      C    1   -0.28462      0.99966     2.28039    0.00457     3.28462
      C    2   -0.18419      0.99959     2.17543    0.00916     3.18419
      C    3    0.03642      0.99950     1.94779    0.01630     2.96358
      C    4   -0.18534      0.99960     2.17497    0.01078     3.18534
      C    5   -0.19949      0.99963     2.19194    0.00792     3.19949
      C    6   -0.07560      0.99963     2.06420    0.01178     3.07560
      N    7   -0.25861      0.99963     2.74652    0.01246     3.75861
      C    8    0.18441      0.99953     1.80130    0.01476     2.81559
      N    9   -0.09048      0.99963     2.57602    0.01483     3.59048
      N   10   -0.20652      0.99967     2.69597    0.01089     3.70652
      C   11    0.38782      0.99971     1.58935    0.02312     2.61218
      O   12   -0.35093      0.99987     3.34528    0.00578     4.35093
      N   13   -0.30450      0.99965     2.79711    0.00775     3.80450
      C   14    0.35862      0.99966     1.61880    0.02292     2.64138
      O   15   -0.29021      0.99988     3.28435    0.00599     4.29021
      C   16    0.41751      0.99961     1.55243    0.03044     2.58249
      O   17   -0.31840      0.99986     3.31248    0.00605     4.31840
      O   18   -0.34498      0.99987     3.33814    0.00697     4.34498
      H   19    0.10398      0.00000     0.39480    0.00122     0.39602
      H   20    0.08766      0.00000     0.41137    0.00097     0.41234
      H   21    0.10751      0.00000     0.39121    0.00128     0.39249
      H   22    0.09504      0.00000     0.40374    0.00122     0.40496
      H   23    0.09653      0.00000     0.40229    0.00118     0.40347
      H   24    0.09871      0.00000     0.40019    0.00110     0.40129
      H   25    0.10190      0.00000     0.39704    0.00107     0.39810
      H   26    0.09826      0.00000     0.40020    0.00154     0.40174
      H   27    0.10184      0.00000     0.39675    0.00140     0.39816
      H   28    0.09203      0.00000     0.40682    0.00114     0.40797
      H   29    0.10605      0.00000     0.39274    0.00122     0.39395
      H   30    0.18980      0.00000     0.30761    0.00259     0.31020
      H   31    0.19486      0.00000     0.30218    0.00296     0.30514
      H   32    0.23494      0.00000     0.26058    0.00448     0.26506
 =======================================================================
   * Total *    0.00000     17.99417    48.75996    0.24587    67.00000

 Normal termination of Gaussian 16 at Fri Dec 11 20:11:22 2020.
