 Gaussian 16, Revision A.03,

 -----------------------------------------------------------
 # opt freq B3LYP/6-31G(d) empiricaldispersion=gd3bj scf=xqc
 -----------------------------------------------------------

 -------------------------------
 CID_113933969_JID_7904_neutraal
 -------------------------------
 Symbolic Z-matrix:
 Charge =  0 Multiplicity = 1

 SCF Done:  E(RB3LYP) =  -750.164300612     A.U. after   15 cycles
 SCF Done:  E(RB3LYP) =  -750.170578360     A.U. after   12 cycles
 SCF Done:  E(RB3LYP) =  -750.171067604     A.U. after   12 cycles
 SCF Done:  E(RB3LYP) =  -750.171186768     A.U. after   12 cycles
 SCF Done:  E(RB3LYP) =  -750.171373968     A.U. after   12 cycles
 SCF Done:  E(RB3LYP) =  -750.172094405     A.U. after   12 cycles
 SCF Done:  E(RB3LYP) =  -750.173051360     A.U. after   12 cycles
 SCF Done:  E(RB3LYP) =  -750.173466607     A.U. after   12 cycles
 SCF Done:  E(RB3LYP) =  -750.174015869     A.U. after   11 cycles
 SCF Done:  E(RB3LYP) =  -750.174361228     A.U. after   11 cycles
 SCF Done:  E(RB3LYP) =  -750.174965649     A.U. after   10 cycles
 SCF Done:  E(RB3LYP) =  -750.174965972     A.U. after    7 cycles
 SCF Done:  E(RB3LYP) =  -750.174966271     A.U. after    8 cycles
 SCF Done:  E(RB3LYP) =  -750.174966297     A.U. after    7 cycles
 SCF Done:  E(RB3LYP) =  -750.174966293     A.U. after    7 cycles
 Optimization completed.
    -- Stationary point found.
 Normal termination of Gaussian 16 at Fri Dec 11 13:10:25 2020.

 --------------------------------------------------------------------
 #N Geom=AllCheck Guess=TCheck SCRF=Check GenChk RB3LYP/6-31G(d) Freq
 --------------------------------------------------------------------

 Structure from the checkpoint file:  "JID_7904.chk"
 -------------------------------
 CID_113933969_JID_7904_neutraal
 -------------------------------
 Charge =  0 Multiplicity = 1

 SCF Done:  E(RB3LYP) =  -750.174966293     A.U. after    1 cycles

  Exact polarizability: 168.416 -18.215 138.827  -0.664  -0.236 139.661
 Approx polarizability: 235.532 -33.730 195.561 -10.939   0.209 245.123

                      1                      2                      3
                      A                      A                      A
 Frequencies --     25.0645                35.2435                49.7706
 Red. masses --      4.3873                 4.5638                 3.5969
 Frc consts  --      0.0016                 0.0033                 0.0052
 IR Inten    --      1.2566                 0.8163                 0.4849

                      4                      5                      6
                      A                      A                      A
 Frequencies --     53.2197                60.3033                84.7666
 Red. masses --      3.7220                 3.5690                 3.3830
 Frc consts  --      0.0062                 0.0076                 0.0143
 IR Inten    --      1.0041                 2.1496                 0.8607

                      7                      8                      9
                      A                      A                      A
 Frequencies --    114.7739               122.6480               164.5674
 Red. masses --      3.9429                 3.1418                 2.7663
 Frc consts  --      0.0306                 0.0278                 0.0441
 IR Inten    --      0.4706                 0.4728                 1.0304

                     10                     11                     12
                      A                      A                      A
 Frequencies --    201.5792               216.0072               262.6562
 Red. masses --      3.2514                 4.8719                 3.0938
 Frc consts  --      0.0778                 0.1339                 0.1258
 IR Inten    --      5.8263                 2.9043                 3.3141

                     13                     14                     15
                      A                      A                      A
 Frequencies --    316.1753               340.4758               362.9150
 Red. masses --      3.2878                 2.3260                 1.6150
 Frc consts  --      0.1936                 0.1589                 0.1253
 IR Inten    --     12.1276                 5.8337                70.0243

                     16                     17                     18
                      A                      A                      A
 Frequencies --    366.2969               392.8113               415.2355
 Red. masses --      2.4534                 2.4140                 3.1224
 Frc consts  --      0.1939                 0.2195                 0.3172
 IR Inten    --     24.1168                 3.5271                12.7660

                     19                     20                     21
                      A                      A                      A
 Frequencies --    423.3673               486.9155               512.3224
 Red. masses --      2.5318                 2.8466                 1.8630
 Frc consts  --      0.2674                 0.3976                 0.2881
 IR Inten    --     62.4366                18.3658                30.7904

                     22                     23                     24
                      A                      A                      A
 Frequencies --    521.4339               576.8563               621.5880
 Red. masses --      2.7702                 4.1935                 2.0502
 Frc consts  --      0.4438                 0.8222                 0.4667
 IR Inten    --     16.8225                 4.5170                48.5266

                     25                     26                     27
                      A                      A                      A
 Frequencies --    645.6165               665.6810               691.8242
 Red. masses --      4.0884                 4.3604                 2.1990
 Frc consts  --      1.0041                 1.1384                 0.6201
 IR Inten    --     12.0854                14.8006                23.4271

                     28                     29                     30
                      A                      A                      A
 Frequencies --    733.5462               750.7695               784.6687
 Red. masses --      3.7655                 2.7853                 1.5258
 Frc consts  --      1.1938                 0.9250                 0.5535
 IR Inten    --      1.2191                20.4111                 4.0603

                     31                     32                     33
                      A                      A                      A
 Frequencies --    801.9612               833.3045               851.8946
 Red. masses --      1.4860                 1.5890                 4.3665
 Frc consts  --      0.5631                 0.6501                 1.8671
 IR Inten    --      0.7660                23.8723                 0.8322

                     34                     35                     36
                      A                      A                      A
 Frequencies --    860.3917               864.0099               890.6362
 Red. masses --      3.1956                 1.3290                 1.8327
 Frc consts  --      1.3938                 0.5845                 0.8565
 IR Inten    --      2.0711                 1.7851                 2.8431

                     37                     38                     39
                      A                      A                      A
 Frequencies --    914.5835               940.6713               959.4294
 Red. masses --      1.9418                 2.3279                 1.3382
 Frc consts  --      0.9570                 1.2137                 0.7258
 IR Inten    --      0.2069                 0.9792                 2.1242

                     40                     41                     42
                      A                      A                      A
 Frequencies --    972.4672               979.7761               981.9536
 Red. masses --      1.3613                 1.4129                 1.7230
 Frc consts  --      0.7585                 0.7991                 0.9789
 IR Inten    --      1.2606                 3.1367                 4.1587

                     43                     44                     45
                      A                      A                      A
 Frequencies --    995.4786              1000.8634              1040.7675
 Red. masses --      1.9005                 1.6272                 3.0248
 Frc consts  --      1.1096                 0.9604                 1.9304
 IR Inten    --     18.5272                15.1673                14.1629

                     46                     47                     48
                      A                      A                      A
 Frequencies --   1069.0497              1077.6428              1117.2261
 Red. masses --      2.1981                 5.1702                 2.2735
 Frc consts  --      1.4801                 3.5376                 1.6719
 IR Inten    --      0.8743                80.3745                12.2015

                     49                     50                     51
                      A                      A                      A
 Frequencies --   1126.0404              1147.5902              1155.7605
 Red. masses --      2.5176                 1.7247                 1.5171
 Frc consts  --      1.8808                 1.3382                 1.1940
 IR Inten    --      5.3813                 6.9078                 5.9385

                     52                     53                     54
                      A                      A                      A
 Frequencies --   1208.5576              1210.4398              1216.4315
 Red. masses --      1.3678                 1.2674                 1.1384
 Frc consts  --      1.1770                 1.0940                 0.9925
 IR Inten    --      2.2975                 0.4032                11.1515

                     55                     56                     57
                      A                      A                      A
 Frequencies --   1224.6807              1233.2281              1239.1941
 Red. masses --      1.8211                 2.3640                 2.1403
 Frc consts  --      1.6092                 2.1183                 1.9365
 IR Inten    --     23.7801                 1.2153                 9.7726

                     58                     59                     60
                      A                      A                      A
 Frequencies --   1270.5187              1272.0808              1277.8487
 Red. masses --      1.3580                 1.5070                 1.2501
 Frc consts  --      1.2916                 1.4368                 1.2027
 IR Inten    --      2.8921                35.2110                 1.5761

                     61                     62                     63
                      A                      A                      A
 Frequencies --   1281.7706              1289.1777              1309.3531
 Red. masses --      1.2619                 1.3506                 1.5004
 Frc consts  --      1.2215                 1.3226                 1.5155
 IR Inten    --      3.5930                 0.4831                35.2578

                     64                     65                     66
                      A                      A                      A
 Frequencies --   1328.4235              1335.3255              1347.8366
 Red. masses --      1.5774                 1.8349                 1.7028
 Frc consts  --      1.6401                 1.9277                 1.8226
 IR Inten    --     23.4103                 3.4423                 6.6566

                     67                     68                     69
                      A                      A                      A
 Frequencies --   1376.8496              1397.4361              1407.6484
 Red. masses --      1.7227                 1.4293                 1.5410
 Frc consts  --      1.9242                 1.6445                 1.7991
 IR Inten    --     56.3172                 5.2342                10.7915

                     70                     71                     72
                      A                      A                      A
 Frequencies --   1431.3431              1434.8249              1471.4509
 Red. masses --      1.4059                 1.5392                 2.2875
 Frc consts  --      1.6970                 1.8670                 2.9182
 IR Inten    --     61.9235                60.7152                27.0355

                     73                     74                     75
                      A                      A                      A
 Frequencies --   1481.7743              1502.4483              1509.1779
 Red. masses --      1.6628                 1.1179                 1.0932
 Frc consts  --      2.1511                 1.4868                 1.4670
 IR Inten    --     46.5881                13.6862                 0.5685

                     76                     77                     78
                      A                      A                      A
 Frequencies --   1516.1261              1521.5142              1529.0877
 Red. masses --      1.0843                 1.1363                 1.0924
 Frc consts  --      1.4684                 1.5498                 1.5049
 IR Inten    --      4.6153                26.3366                 1.0383

                     79                     80                     81
                      A                      A                      A
 Frequencies --   1542.0353              1565.0086              1637.9573
 Red. masses --      1.1409                 2.3757                 6.2222
 Frc consts  --      1.5984                 3.4283                 9.8355
 IR Inten    --      4.1774                 6.7101                 0.2427

                     82                     83                     84
                      A                      A                      A
 Frequencies --   1677.4936              1785.6420              3002.1299
 Red. masses --      5.7544                 8.1797                 1.0708
 Frc consts  --      9.5405                15.3666                 5.6862
 IR Inten    --      0.4583               321.7741                58.2176

                     85                     86                     87
                      A                      A                      A
 Frequencies --   3042.7646              3053.9491              3056.2119
 Red. masses --      1.0683                 1.0602                 1.0601
 Frc consts  --      5.8275                 5.8261                 5.8339
 IR Inten    --     10.7053                40.0181                38.9594

                     88                     89                     90
                      A                      A                      A
 Frequencies --   3069.0166              3079.8135              3082.1922
 Red. masses --      1.0588                 1.0924                 1.0601
 Frc consts  --      5.8759                 6.1050                 5.9339
 IR Inten    --     43.4186                23.5234                18.9620

                     91                     92                     93
                      A                      A                      A
 Frequencies --   3089.2540              3090.7664              3106.5757
 Red. masses --      1.0932                 1.0996                 1.1020
 Frc consts  --      6.1468                 6.1890                 6.2662
 IR Inten    --     11.4175                 6.9043                20.2208

                     94                     95                     96
                      A                      A                      A
 Frequencies --   3118.0251              3122.5758              3139.5052
 Red. masses --      1.1087                 1.0942                 1.1056
 Frc consts  --      6.3509                 6.2859                 6.4204
 IR Inten    --     28.3214                24.8770                55.0686

                     97                     98                     99
                      A                      A                      A
 Frequencies --   3173.9760              3177.4273              3200.0827
 Red. masses --      1.0887                 1.0878                 1.0930
 Frc consts  --      6.4619                 6.4707                 6.5948
 IR Inten    --     19.2313                 5.3664                13.3247

                    100                    101                    102
                      A                      A                      A
 Frequencies --   3211.4750              3598.5248              3731.6933
 Red. masses --      1.0920                 1.0763                 1.0660
 Frc consts  --      6.6357                 8.2119                 8.7464
 IR Inten    --      4.6670                19.2528                12.3112

 - Thermochemistry -
 -------------------
 Temperature   298.150 Kelvin.  Pressure   1.00000 Atm.
 Atom     1 has atomic number  6 and mass  12.00000

 Molecular mass:   233.14158 amu.
 Principal axes and moments of inertia in atomic units:
                           1         2         3
     Eigenvalues --  2798.784465732.498857343.47823
           X            0.99986   0.01277   0.01094
           Y           -0.01272   0.99991  -0.00525
           Z           -0.01101   0.00511   0.99993
 This molecule is an asymmetric top.
 Rotational symmetry number  1.
 Warning -- assumption of classical behavior for rotation
           may cause significant error
 Rotational temperatures (Kelvin)      0.03095     0.01511     0.01179
 Rotational constants (GHZ):           0.64483     0.31483     0.24576
 Zero-point vibrational energy     816805.7 (Joules/Mol)
                                  195.22124 (Kcal/Mol)
 Warning -- explicit consideration of  23 degrees of freedom as
           vibrations may cause significant error
 Vibrational temperatures:     36.06    50.71    71.61    76.57    86.76
          (Kelvin)            121.96   165.13   176.46   236.78   290.03
                              310.79   377.90   454.91   489.87   522.15
                              527.02   565.17   597.43   609.13   700.56
                              737.12   750.23   829.97   894.33   928.90
                              957.77   995.38  1055.41  1080.19  1128.96
                             1153.84  1198.94  1225.69  1237.91  1243.12
                             1281.43  1315.88  1353.42  1380.40  1399.16
                             1409.68  1412.81  1432.27  1440.02  1497.43
                             1538.12  1550.49  1607.44  1620.12  1651.13
                             1662.88  1738.84  1741.55  1750.17  1762.04
                             1774.34  1782.92  1827.99  1830.24  1838.54
                             1844.18  1854.84  1883.87  1911.31  1921.24
                             1939.24  1980.98  2010.60  2025.29  2059.38
                             2064.39  2117.09  2131.94  2161.69  2171.37
                             2181.37  2189.12  2200.02  2218.64  2251.70
                             2356.66  2413.54  2569.14  4319.40  4377.86
                             4393.95  4397.21  4415.63  4431.16  4434.59
                             4444.75  4446.92  4469.67  4486.14  4492.69
                             4517.05  4566.64  4571.61  4604.21  4620.60
                             5177.47  5369.07

 Zero-point correction=                           0.311105 (Hartree/Particle)
 Thermal correction to Energy=                    0.327689
 Thermal correction to Enthalpy=                  0.328633
 Thermal correction to Gibbs Free Energy=         0.264757
 Sum of electronic and zero-point Energies=           -749.863861
 Sum of electronic and thermal Energies=              -749.847278
 Sum of electronic and thermal Enthalpies=            -749.846333
 Sum of electronic and thermal Free Energies=         -749.910209

                     E (Thermal)             CV                S
                      KCal/Mol        Cal/Mol-Kelvin    Cal/Mol-Kelvin
 Total                  205.628             62.702            134.438
 Electronic               0.000              0.000              0.000
 Translational            0.889              2.981             42.241
 Rotational               0.889              2.981             33.132
 Vibrational            203.850             56.740             59.065
 Vibration     1          0.593              1.985              6.186
 Vibration     2          0.594              1.982              5.510
 Vibration     3          0.595              1.978              4.826
 Vibration     4          0.596              1.976              4.694
 Vibration     5          0.597              1.973              4.447
 Vibration     6          0.601              1.960              3.777
 Vibration     7          0.608              1.937              3.187
 Vibration     8          0.610              1.930              3.058
 Vibration     9          0.623              1.886              2.497
 Vibration    10          0.638              1.838              2.119
 Vibration    11          0.645              1.817              1.992
 Vibration    12          0.670              1.741              1.644
 Vibration    13          0.703              1.643              1.330
 Vibration    14          0.720              1.595              1.210
 Vibration    15          0.737              1.549              1.110
 Vibration    16          0.739              1.542              1.095
 Vibration    17          0.760              1.486              0.989
 Vibration    18          0.779              1.437              0.908
 Vibration    19          0.786              1.419              0.881
 Vibration    20          0.843              1.279              0.692
 Vibration    21          0.867              1.223              0.628
 Vibration    22          0.876              1.203              0.607
 Vibration    23          0.933              1.081              0.491

 Optimization completed.
    -- Stationary point found.
 Normal termination of Gaussian 16 at Fri Dec 11 13:24:00 2020.

 ----------------------------------------------------------------------
 # B3LYP/6-311++G(d,p) empiricaldispersion=gd3bj scf=xqc pop=npa geom=c
 heck
 ----------------------------------------------------------------------

 ---------------------------------------
 CID_113933969_JID_7904_Energie_neutraal
 ---------------------------------------
 Structure from the checkpoint file:  "JID_7904.chk"
 Charge =  0 Multiplicity = 1

 SCF Done:  E(RB3LYP) =  -750.393441520     A.U. after   15 cycles
 Normal termination of Gaussian 16 at Fri Dec 11 13:29:42 2020.

 ----------------------------------------------------------------------
 # B3LYP/6-311++G(d,p) empiricaldispersion=gd3bj scf=xqc pop=npa geom=c
 heck
 ----------------------------------------------------------------------

 -------------------------------------
 CID_113933969_JID_7904_Energie_kation
 -------------------------------------
 Structure from the checkpoint file:  "JID_7904.chk"
 Charge =  1 Multiplicity = 2

 SCF Done:  E(UB3LYP) =  -750.080508639     A.U. after   29 cycles
 Normal termination of Gaussian 16 at Fri Dec 11 13:44:37 2020.
 Gaussian 16:  ES64L-G16RevA.03 25-Dec-2016

 ----------------------------------------------------------------------
 # B3LYP/6-311++G(d,p) empiricaldispersion=gd3bj scf=xqc pop=npa geom=c
 heck
 ----------------------------------------------------------------------

 ------------------------------------
 CID_113933969_JID_7904_Energie_anion
 ------------------------------------
 Structure from the checkpoint file:  "JID_7904.chk"
 Charge = -1 Multiplicity = 2

                         Standard orientation:
 ---------------------------------------------------------------------
 Center     Atomic      Atomic             Coordinates (Angstroms)
 Number     Number       Type             X           Y           Z
 ---------------------------------------------------------------------
      1          6           0        0.975996    3.233835   -0.192663
      2          6           0        2.003412    2.764440    0.870926
      3          6           0        2.234733    1.489524    0.018024
      4          6           0        0.870177    1.763133   -0.672903
      5          6           0        2.457416    0.161482    0.733565
      6          6           0        2.719578   -0.966356   -0.257707
      7          8           0        3.526310   -0.839263   -1.170851
      8          7           0        2.058632   -2.157742   -0.072949
      9          6           0        0.904976   -2.404921    0.781997
     10          6           0       -0.339855   -1.622997    0.399400
     11          6           0       -1.132841   -1.024841    1.382563
     12          6           0       -2.266537   -0.290205    1.037971
     13          6           0       -2.634511   -0.142205   -0.302989
     14          6           0       -1.849670   -0.754353   -1.286211
     15          6           0       -0.712363   -1.479368   -0.940939
     16          6           0       -3.839644    0.694142   -0.679351
     17          8           0       -4.877738    0.661711    0.291336
     18          1           0        1.443621    3.875138   -0.947081
     19          1           0        0.062342    3.720411    0.162601
     20          1           0        2.866945    3.404753    1.078821
     21          1           0        1.510028    2.522568    1.820180
     22          1           0        3.052481    1.645178   -0.692071
     23          1           0        0.055619    1.237756   -0.165559
     24          1           0        0.795949    1.569369   -1.747051
     25          1           0        3.355664    0.234505    1.362601
     26          1           0        1.614654   -0.048775    1.397060
     27          1           0        2.271223   -2.836802   -0.792819
     28          1           0        0.705926   -3.481286    0.726050
     29          1           0        1.160168   -2.199675    1.827676
     30          1           0       -0.851350   -1.120771    2.429075
     31          1           0       -2.873434    0.180206    1.805396
     32          1           0       -2.126183   -0.653979   -2.333327
     33          1           0       -0.098648   -1.923829   -1.719274
     34          1           0       -3.556614    1.750518   -0.754859
     35          1           0       -4.205652    0.389904   -1.672867
     36          1           0       -5.126948   -0.268442    0.412117
 ---------------------------------------------------------------------

 SCF Done:  E(UB3LYP) =  -750.384133356     A.U. after   33 cycles
 SCF Done:  E(UB3LYP) =  -750.384133356     a.u. after    1 cycles

 The electronic state is 2-A.
 Alpha  occ. eigenvalues --  -19.02450 -18.98248 -14.22713 -10.16805 -10.11587
 Alpha  occ. eigenvalues --  -10.10464 -10.07713 -10.07649 -10.07407 -10.07179
 Alpha  occ. eigenvalues --  -10.06458 -10.06450 -10.06125 -10.06020 -10.05983
 Alpha  occ. eigenvalues --  -10.05773 -10.05715  -0.93365  -0.92548  -0.81607
 Alpha  occ. eigenvalues --   -0.75290  -0.74716  -0.66922  -0.65296  -0.63592
 Alpha  occ. eigenvalues --   -0.60516  -0.56168  -0.55560  -0.53843  -0.50151
 Alpha  occ. eigenvalues --   -0.48052  -0.46405  -0.44655  -0.41819  -0.40116
 Alpha  occ. eigenvalues --   -0.39342  -0.37806  -0.37422  -0.36554  -0.36005
 Alpha  occ. eigenvalues --   -0.33990  -0.33922  -0.33542  -0.31371  -0.31047
 Alpha  occ. eigenvalues --   -0.30838  -0.29673  -0.29054  -0.27706  -0.26651
 Alpha  occ. eigenvalues --   -0.26242  -0.24795  -0.24592  -0.23608  -0.22526
 Alpha  occ. eigenvalues --   -0.21899  -0.21056  -0.20474  -0.18480  -0.15890
 Alpha  occ. eigenvalues --   -0.15066  -0.14803  -0.13331   0.04713
 Alpha virt. eigenvalues --    0.06375   0.07225   0.07868   0.08392   0.08754
 Alpha virt. eigenvalues --    0.08918   0.09180   0.09559   0.09684   0.10261
 Alpha virt. eigenvalues --    0.11214   0.11362   0.11955   0.12490   0.12841

  Beta  occ. eigenvalues --  -19.02415 -18.98244 -14.22671 -10.16807 -10.11586
  Beta  occ. eigenvalues --  -10.10456 -10.07713 -10.07642 -10.07404 -10.07169
  Beta  occ. eigenvalues --  -10.06483 -10.06478 -10.06123 -10.05856 -10.05787
  Beta  occ. eigenvalues --  -10.05703 -10.05647  -0.93356  -0.92459  -0.81528
  Beta  occ. eigenvalues --   -0.75283  -0.74511  -0.66636  -0.65271  -0.63445
  Beta  occ. eigenvalues --   -0.60384  -0.56156  -0.55466  -0.53807  -0.50090
  Beta  occ. eigenvalues --   -0.47862  -0.46273  -0.44632  -0.41734  -0.40050
  Beta  occ. eigenvalues --   -0.39289  -0.37695  -0.37392  -0.36514  -0.35903
  Beta  occ. eigenvalues --   -0.33880  -0.33786  -0.33460  -0.31267  -0.30955
  Beta  occ. eigenvalues --   -0.30805  -0.29585  -0.29038  -0.27662  -0.26629
  Beta  occ. eigenvalues --   -0.26109  -0.24595  -0.24491  -0.23519  -0.22438
  Beta  occ. eigenvalues --   -0.21854  -0.21038  -0.20462  -0.18370  -0.15776
  Beta  occ. eigenvalues --   -0.14994  -0.14473  -0.12483
  Beta virt. eigenvalues --    0.06676   0.07322   0.07673   0.08135   0.08673
  Beta virt. eigenvalues --    0.08966   0.09142   0.09519   0.09821   0.10173
  Beta virt. eigenvalues --    0.10503   0.11446   0.11485   0.12058   0.12586

 Mulliken charges and spin densities:
               1          2
     1  C    0.059693  -0.356247
     2  C   -0.574063   0.157768
     3  C    0.118600  -0.183063
     4  C   -0.615030   0.345820
     5  C    0.547437  -0.319924
     6  C   -0.362389   0.041796
     7  O   -0.342097   0.019492
     8  N   -0.266836   0.140359
     9  C    1.119407  -1.848409
    10  C   -0.138446   0.938646
    11  C   -0.600106  -0.006698
    12  C   -0.597519   0.303610
    13  C   -0.068381   0.595377
    14  C   -0.549806   0.049017
    15  C   -0.052518  -0.167003
    16  C    0.777766  -1.163486
    17  O   -0.230607   0.005217
    18  H    0.101050   0.027182
    19  H   -0.108821   0.256976
    20  H    0.103770   0.020385
    21  H    0.080698   0.040163
    22  H    0.221434  -0.000782
    23  H    0.523798  -0.396922
    24  H    0.074289   0.048525
    25  H    0.174040   0.009838
    26  H    0.144642  -0.015963
    27  H   -0.225732   0.540230
    28  H   -0.891487   1.107282
    29  H    0.195214  -0.008271
    30  H    0.124648   0.002800
    31  H    0.009864   0.160103
    32  H    0.147326   0.000356
    33  H    0.099414   0.063952
    34  H   -0.159628   0.373741
    35  H    0.064148   0.082018
    36  H    0.096228   0.136114
 Sum of Mulliken charges =  -1.00000   1.00000

 Dipole moment (field-independent basis, Debye):
    X=              0.6716    Y=              4.2952    Z=              1.4731  Tot=              4.5902
 Quadrupole moment (field-independent basis, Debye-Ang):
   XX=           -170.5243   YY=           -165.7801   ZZ=           -118.7902
   XY=             22.1823   XZ=             11.8020   YZ=             -4.1361

 Summary of Natural Population Analysis:

                                       Natural Population
                Natural  -----------------------------------------------
    Atom  No    Charge         Core      Valence    Rydberg      Total
 -----------------------------------------------------------------------
      C    1   -0.19059      0.99966     2.18264    0.00829     3.19059
      C    2   -0.18747      0.99963     2.17965    0.00818     3.18747
      C    3   -0.10722      0.99960     2.09710    0.01051     3.10722
      C    4   -0.19039      0.99963     2.18228    0.00849     3.19039
      C    5   -0.23423      0.99956     2.22676    0.00791     3.23423
      C    6    0.34887      0.99967     1.62835    0.02311     2.65113
      O    7   -0.33067      0.99988     3.32522    0.00557     4.33067
      N    8   -0.31454      0.99967     2.80356    0.01131     3.81454
      C    9   -0.09707      0.99957     2.08431    0.01318     3.09707
      C   10   -0.00283      0.99949     1.99270    0.01064     3.00283
      C   11   -0.10750      0.99951     2.09891    0.00907     3.10750
      C   12   -0.09366      0.99951     2.08330    0.01085     3.09366
      C   13   -0.01690      0.99949     2.00803    0.00938     3.01690
      C   14   -0.10291      0.99952     2.09417    0.00922     3.10291
      C   15   -0.08783      0.99951     2.07839    0.00993     3.08783
      C   16   -0.01305      0.99956     2.00064    0.01285     3.01305
      O   17   -0.36562      0.99990     3.35907    0.00665     4.36562
      H   18    0.09154      0.00000     0.40755    0.00091     0.40846
      H   19    0.09658      0.00000     0.40213    0.00129     0.40342
      H   20    0.09216      0.00000     0.40705    0.00079     0.40784
      H   21    0.09474      0.00000     0.40417    0.00108     0.40526
      H   22    0.10505      0.00000     0.39391    0.00104     0.39495
      H   23    0.10734      0.00000     0.39090    0.00177     0.39266
      H   24    0.09757      0.00000     0.40168    0.00075     0.40243
      H   25    0.10794      0.00000     0.39123    0.00083     0.39206
      H   26    0.10617      0.00000     0.39278    0.00105     0.39383
      H   27    0.19755      0.00000     0.29801    0.00445     0.30245
      H   28    0.11559      0.00000     0.37632    0.00809     0.38441
      H   29    0.09305      0.00000     0.40591    0.00104     0.40695
      H   30    0.09472      0.00000     0.40449    0.00080     0.40528
      H   31    0.10361      0.00000     0.39534    0.00106     0.39639
      H   32    0.09480      0.00000     0.40417    0.00103     0.40520
      H   33    0.10114      0.00000     0.39785    0.00101     0.39886
      H   34    0.09304      0.00000     0.40474    0.00222     0.40696
      H   35    0.07519      0.00000     0.42357    0.00124     0.42481
      H   36    0.22583      0.00000     0.27097    0.00320     0.27417
 =======================================================================
   * Total *   -0.00000     16.99336    45.79783    0.20881    63.00000

 Normal termination of Gaussian 16 at Fri Dec 11 14:01:48 2020.
