 Gaussian 16, Revision A.03,

 -----------------------------------------------------------
 # opt freq B3LYP/6-31G(d) empiricaldispersion=gd3bj scf=xqc
 -----------------------------------------------------------

 -------------------------------
 CID_153249191_JID_1603_neutraal
 -------------------------------
 Symbolic Z-matrix:
 Charge =  0 Multiplicity = 1

 SCF Done:  E(RB3LYP) =  -555.012955958     A.U. after   15 cycles
 SCF Done:  E(RB3LYP) =  -555.016926869     A.U. after   13 cycles
 SCF Done:  E(RB3LYP) =  -555.017417837     A.U. after   13 cycles
 SCF Done:  E(RB3LYP) =  -555.017082710     A.U. after   13 cycles
 SCF Done:  E(RB3LYP) =  -555.017781592     A.U. after   11 cycles
 SCF Done:  E(RB3LYP) =  -555.017812910     A.U. after   10 cycles
 SCF Done:  E(RB3LYP) =  -555.017825512     A.U. after   10 cycles
 SCF Done:  E(RB3LYP) =  -555.017854502     A.U. after   12 cycles
 SCF Done:  E(RB3LYP) =  -555.017871935     A.U. after   12 cycles
 SCF Done:  E(RB3LYP) =  -555.017875612     A.U. after   11 cycles
 SCF Done:  E(RB3LYP) =  -555.017899217     A.U. after   11 cycles
 SCF Done:  E(RB3LYP) =  -555.017900007     A.U. after    9 cycles
 SCF Done:  E(RB3LYP) =  -555.017899949     A.U. after   10 cycles
 SCF Done:  E(RB3LYP) =  -555.017900296     A.U. after    9 cycles
 SCF Done:  E(RB3LYP) =  -555.017900366     A.U. after    8 cycles
 Optimization completed.
    -- Stationary point found.
 Normal termination of Gaussian 16 at Tue Dec  8 20:34:26 2020.

 --------------------------------------------------------------------
 #N Geom=AllCheck Guess=TCheck SCRF=Check GenChk RB3LYP/6-31G(d) Freq
 --------------------------------------------------------------------

 Structure from the checkpoint file:  "JID_1603.chk"
 -------------------------------
 CID_153249191_JID_1603_neutraal
 -------------------------------
 Charge =  0 Multiplicity = 1

 SCF Done:  E(RB3LYP) =  -555.017900366     A.U. after    1 cycles

  Exact polarizability: 130.518  -0.012  90.658   5.807   0.211  63.254
 Approx polarizability: 191.550  -3.703 126.003  14.381   0.553  92.455

                      1                      2                      3
                      A                      A                      A
 Frequencies --     28.0194                49.2202                66.0808
 Red. masses --      3.5729                 4.0908                 7.7396
 Frc consts  --      0.0017                 0.0058                 0.0199
 IR Inten    --      0.9568                 1.4557                 1.3934

                      4                      5                      6
                      A                      A                      A
 Frequencies --    112.4124               185.5410               210.4463
 Red. masses --      3.7279                 1.9059                 1.2352
 Frc consts  --      0.0278                 0.0387                 0.0322
 IR Inten    --      3.2274                 0.2194                 1.1786

                      7                      8                      9
                      A                      A                      A
 Frequencies --    238.7800               257.6939               268.7676
 Red. masses --      1.4319                 1.0395                 1.1940
 Frc consts  --      0.0481                 0.0407                 0.0508
 IR Inten    --     16.7591                 0.6531                 1.2200

                     10                     11                     12
                      A                      A                      A
 Frequencies --    300.1058               326.9660               330.7626
 Red. masses --      2.2788                 3.6337                 2.5898
 Frc consts  --      0.1209                 0.2289                 0.1669
 IR Inten    --      2.5443                 6.4216                 6.2707

                     13                     14                     15
                      A                      A                      A
 Frequencies --    354.3995               378.7305               394.0785
 Red. masses --      2.6725                 3.2648                 2.4853
 Frc consts  --      0.1978                 0.2759                 0.2274
 IR Inten    --     14.4398                14.0411                 3.6078

                     16                     17                     18
                      A                      A                      A
 Frequencies --    448.6382               466.2062               505.2504
 Red. masses --      3.1925                 3.1756                 3.1549
 Frc consts  --      0.3786                 0.4067                 0.4745
 IR Inten    --      2.5797                17.8409                 7.7158

                     19                     20                     21
                      A                      A                      A
 Frequencies --    596.2280               623.4158               640.0772
 Red. masses --      3.6426                 2.7325                 1.6585
 Frc consts  --      0.7629                 0.6257                 0.4003
 IR Inten    --     42.3323                12.8035                66.8568

                     22                     23                     24
                      A                      A                      A
 Frequencies --    740.1856               769.9166               784.8634
 Red. masses --      1.4778                 3.2325                 7.1291
 Frc consts  --      0.4770                 1.1290                 2.5875
 IR Inten    --    328.2232                54.1322                21.8642

                     25                     26                     27
                      A                      A                      A
 Frequencies --    797.2662               864.5104               893.9242
 Red. masses --      3.8304                 1.6133                 3.2542
 Frc consts  --      1.4345                 0.7104                 1.5321
 IR Inten    --     14.0292               104.8361                16.0129

                     28                     29                     30
                      A                      A                      A
 Frequencies --    928.8703               939.7194               977.0001
 Red. masses --      1.6469                 1.6044                 1.2011
 Frc consts  --      0.8372                 0.8348                 0.6755
 IR Inten    --      0.0136                 0.2351                 0.0018

                     31                     32                     33
                      A                      A                      A
 Frequencies --   1056.7465              1064.2411              1129.3009
 Red. masses --      1.4202                 1.4146                 2.1739
 Frc consts  --      0.9344                 0.9440                 1.6335
 IR Inten    --      5.0202                 0.4084                46.7529

                     34                     35                     36
                      A                      A                      A
 Frequencies --   1196.8260              1223.0033              1258.3269
 Red. masses --      1.9963                 2.8545                 2.9950
 Frc consts  --      1.6847                 2.5156                 2.7940
 IR Inten    --    185.5148               417.7691               121.6174

                     37                     38                     39
                      A                      A                      A
 Frequencies --   1279.9948              1292.2852              1309.9544
 Red. masses --      2.6492                 2.2137                 2.2334
 Frc consts  --      2.5573                 2.1782                 2.2580
 IR Inten    --     20.9669                16.1875                17.6166

                     40                     41                     42
                      A                      A                      A
 Frequencies --   1378.3176              1424.7126              1427.2351
 Red. masses --      1.5586                 1.2780                 1.3095
 Frc consts  --      1.7446                 1.5284                 1.5716
 IR Inten    --     14.6279                15.7999                17.9626

                     43                     44                     45
                      A                      A                      A
 Frequencies --   1451.9569              1484.6110              1501.2383
 Red. masses --      1.2341                 2.5528                 1.0500
 Frc consts  --      1.5329                 3.3150                 1.3943
 IR Inten    --     12.3547                52.4718                 0.1589

                     46                     47                     48
                      A                      A                      A
 Frequencies --   1515.6746              1517.8107              1525.2007
 Red. masses --      1.0493                 1.0508                 1.0644
 Frc consts  --      1.4202                 1.4263                 1.4588
 IR Inten    --      0.5170                 0.5681                 1.1102

                     49                     50                     51
                      A                      A                      A
 Frequencies --   1533.0143              1548.9944              1656.8544
 Red. masses --      1.0709                 1.0569                 1.1734
 Frc consts  --      1.4828                 1.4941                 1.8979
 IR Inten    --      1.0830                 6.0962               133.1843

                     52                     53                     54
                      A                      A                      A
 Frequencies --   1718.7251              1790.7309              3055.3738
 Red. masses --      6.7178                 7.0296                 1.0349
 Frc consts  --     11.6920                13.2813                 5.6921
 IR Inten    --     25.6842               400.5802                13.6166

                     55                     56                     57
                      A                      A                      A
 Frequencies --   3058.1065              3065.3808              3118.2814
 Red. masses --      1.0347                 1.0357                 1.0941
 Frc consts  --      5.7012                 5.7339                 6.2681
 IR Inten    --     17.5844                10.4323                13.0395

                     58                     59                     60
                      A                      A                      A
 Frequencies --   3124.3785              3128.7042              3132.0875
 Red. masses --      1.0988                 1.1009                 1.1011
 Frc consts  --      6.3197                 6.3491                 6.3639
 IR Inten    --      3.9315                40.7833                39.9795

                     61                     62                     63
                      A                      A                      A
 Frequencies --   3137.0365              3139.6578              3144.9597
 Red. masses --      1.1026                 1.1033                 1.1026
 Frc consts  --      6.3932                 6.4076                 6.4253
 IR Inten    --     30.8187                15.2520                39.2297

                     64                     65                     66
                      A                      A                      A
 Frequencies --   3528.1826              3632.4890              3680.3619
 Red. masses --      1.0475                 1.0973                 1.0637
 Frc consts  --      7.6825                 8.5309                 8.4890
 IR Inten    --     18.8880                18.2810                53.8459

 - Thermochemistry -
 -------------------
 Temperature   298.150 Kelvin.  Pressure   1.00000 Atm.
 Atom     1 has atomic number  6 and mass  12.00000

 Molecular mass:   159.08954 amu.
 Principal axes and moments of inertia in atomic units:
                           1         2         3
     Eigenvalues --   909.741202741.912643218.95706
           X            0.99994   0.01114  -0.00079
           Y           -0.01113   0.99988   0.01079
           Z            0.00091  -0.01078   0.99994
 This molecule is an asymmetric top.
 Rotational symmetry number  1.
 Warning -- assumption of classical behavior for rotation
           may cause significant error
 Rotational temperatures (Kelvin)      0.09521     0.03159     0.02691
 Rotational constants (GHZ):           1.98380     0.65821     0.56066
 Zero-point vibrational energy     530596.6 (Joules/Mol)
                                  126.81564 (Kcal/Mol)
 Warning -- explicit consideration of  19 degrees of freedom as
           vibrations may cause significant error
 Vibrational temperatures:     40.31    70.82    95.08   161.74   266.95
          (Kelvin)            302.79   343.55   370.76   386.70   431.79
                              470.43   475.89   509.90   544.91   566.99
                              645.49   670.77   726.94   857.84   896.96
                              920.93  1064.96  1107.74  1129.24  1147.09
                             1243.84  1286.16  1336.44  1352.05  1405.69
                             1520.42  1531.21  1624.81  1721.97  1759.63
                             1810.45  1841.63  1859.31  1884.73  1983.09
                             2049.84  2053.47  2089.04  2136.02  2159.95
                             2180.72  2183.79  2194.42  2205.67  2228.66
                             2383.84  2472.86  2576.46  4396.00  4399.93
                             4410.40  4486.51  4495.28  4501.51  4506.38
                             4513.50  4517.27  4524.90  5076.27  5226.34
                             5295.22

 Zero-point correction=                           0.202094 (Hartree/Particle)
 Thermal correction to Energy=                    0.214927
 Thermal correction to Enthalpy=                  0.215871
 Thermal correction to Gibbs Free Energy=         0.162667
 Sum of electronic and zero-point Energies=           -554.815807
 Sum of electronic and thermal Energies=              -554.802974
 Sum of electronic and thermal Enthalpies=            -554.802030
 Sum of electronic and thermal Free Energies=         -554.855233

                     E (Thermal)             CV                S
                      KCal/Mol        Cal/Mol-Kelvin    Cal/Mol-Kelvin
 Total                  134.868             47.211            111.976
 Electronic               0.000              0.000              0.000
 Translational            0.889              2.981             41.102
 Rotational               0.889              2.981             30.463
 Vibrational            133.091             41.249             40.411
 Vibration     1          0.593              1.984              5.965
 Vibration     2          0.595              1.978              4.848
 Vibration     3          0.597              1.970              4.267
 Vibration     4          0.607              1.939              3.227
 Vibration     5          0.632              1.860              2.272
 Vibration     6          0.643              1.825              2.040
 Vibration     7          0.657              1.781              1.812
 Vibration     8          0.667              1.750              1.677
 Vibration     9          0.673              1.731              1.604
 Vibration    10          0.693              1.673              1.416
 Vibration    11          0.711              1.622              1.275
 Vibration    12          0.713              1.614              1.256
 Vibration    13          0.730              1.566              1.147
 Vibration    14          0.749              1.515              1.044
 Vibration    15          0.761              1.483              0.985
 Vibration    16          0.808              1.364              0.800
 Vibration    17          0.824              1.325              0.748
 Vibration    18          0.861              1.238              0.645
 Vibration    19          0.954              1.040              0.456

 Optimization completed.
    -- Stationary point found.
 Normal termination of Gaussian 16 at Tue Dec  8 20:39:53 2020.

 ----------------------------------------------------------------------
 # B3LYP/6-311++G(d,p) empiricaldispersion=gd3bj scf=xqc pop=npa geom=c
 heck
 ----------------------------------------------------------------------

 ---------------------------------------
 CID_153249191_JID_1603_Energie_neutraal
 ---------------------------------------
 Structure from the checkpoint file:  "JID_1603.chk"
 Charge =  0 Multiplicity = 1

 SCF Done:  E(RB3LYP) =  -555.197384954     A.U. after   14 cycles
 Normal termination of Gaussian 16 at Tue Dec  8 20:43:43 2020.

 ----------------------------------------------------------------------
 # B3LYP/6-311++G(d,p) empiricaldispersion=gd3bj scf=xqc pop=npa geom=c
 heck
 ----------------------------------------------------------------------

 -------------------------------------
 CID_153249191_JID_1603_Energie_kation
 -------------------------------------
 Structure from the checkpoint file:  "JID_1603.chk"
 Charge =  1 Multiplicity = 2

 SCF Done:  E(UB3LYP) =  -554.910052704     A.U. after   20 cycles
 Normal termination of Gaussian 16 at Tue Dec  8 20:49:54 2020.
 Gaussian 16:  ES64L-G16RevA.03 25-Dec-2016

 ----------------------------------------------------------------------
 # B3LYP/6-311++G(d,p) empiricaldispersion=gd3bj scf=xqc pop=npa geom=c
 heck
 ----------------------------------------------------------------------

 ------------------------------------
 CID_153249191_JID_1603_Energie_anion
 ------------------------------------
 Structure from the checkpoint file:  "JID_1603.chk"
 Charge = -1 Multiplicity = 2

                         Standard orientation:
 ---------------------------------------------------------------------
 Center     Atomic      Atomic             Coordinates (Angstroms)
 Number     Number       Type             X           Y           Z
 ---------------------------------------------------------------------
      1          6           0       -2.770578    1.266213   -0.076631
      2          6           0       -1.974618   -0.034330    0.072030
      3          6           0       -1.632170   -0.324244    1.534862
      4          6           0       -2.722129   -1.204688   -0.562343
      5          8           0       -0.738882    0.026859   -0.701272
      6          6           0        0.173956    0.972478   -0.378159
      7          6           0        1.485329    0.718710   -0.165637
      8          6           0        2.089901   -0.627513   -0.038415
      9          8           0        3.255741   -0.784923    0.290000
     10          8           0        1.269560   -1.677080   -0.265477
     11          7           0        2.443287    1.744205   -0.056846
     12          1           0       -3.753741    1.157287    0.393046
     13          1           0       -2.918118    1.503774   -1.135102
     14          1           0       -2.269748    2.111970    0.405671
     15          1           0       -2.545497   -0.453684    2.125135
     16          1           0       -1.032358   -1.236480    1.604216
     17          1           0       -1.055325    0.497915    1.971325
     18          1           0       -2.929015   -0.997191   -1.616876
     19          1           0       -2.112970   -2.111242   -0.503468
     20          1           0       -3.671643   -1.379876   -0.046303
     21          1           0       -0.175491    2.007046   -0.366184
     22          1           0        1.829752   -2.460722   -0.108579
     23          1           0        2.080056    2.609842    0.325101
     24          1           0        3.261597    1.423323    0.449692
 ---------------------------------------------------------------------

 SCF Done:  E(UB3LYP) =  -555.188334932     A.U. after   33 cycles
 SCF Done:  E(UB3LYP) =  -555.188334932     a.u. after    1 cycles

 The electronic state is 2-A.
 Alpha  occ. eigenvalues --  -19.04016 -19.01229 -18.97580 -14.18573 -10.16168
 Alpha  occ. eigenvalues --  -10.12052 -10.08413 -10.07614 -10.04841 -10.04719
 Alpha  occ. eigenvalues --  -10.04262  -0.98044  -0.93008  -0.88657  -0.78255
 Alpha  occ. eigenvalues --   -0.69387  -0.61362  -0.58317  -0.57948  -0.53227
 Alpha  occ. eigenvalues --   -0.46933  -0.44148  -0.39176  -0.38013  -0.36300
 Alpha  occ. eigenvalues --   -0.34908  -0.33912  -0.33362  -0.32146  -0.32039
 Alpha  occ. eigenvalues --   -0.29753  -0.28518  -0.27783  -0.26802  -0.25730
 Alpha  occ. eigenvalues --   -0.25197  -0.23659  -0.22132  -0.20911  -0.19103
 Alpha  occ. eigenvalues --   -0.16319  -0.15821  -0.08024   0.04943
 Alpha virt. eigenvalues --    0.07180   0.08153   0.08653   0.09472   0.09825
 Alpha virt. eigenvalues --    0.10960   0.11417   0.12365   0.12975   0.13530
 Alpha virt. eigenvalues --    0.13905   0.15131   0.15281   0.16458   0.17354

  Beta  occ. eigenvalues --  -19.03979 -19.01200 -18.97426 -14.18561 -10.15963
  Beta  occ. eigenvalues --  -10.12043 -10.08192 -10.07604 -10.04817 -10.04671
  Beta  occ. eigenvalues --  -10.04227  -0.97854  -0.92894  -0.88430  -0.78199
  Beta  occ. eigenvalues --   -0.69317  -0.61126  -0.58238  -0.57874  -0.52809
  Beta  occ. eigenvalues --   -0.46847  -0.44003  -0.39062  -0.37865  -0.36153
  Beta  occ. eigenvalues --   -0.34654  -0.33791  -0.33255  -0.31970  -0.31463
  Beta  occ. eigenvalues --   -0.29652  -0.28431  -0.27701  -0.26674  -0.25676
  Beta  occ. eigenvalues --   -0.25050  -0.23607  -0.21926  -0.20705  -0.18579
  Beta  occ. eigenvalues --   -0.16197  -0.15675  -0.07373
  Beta virt. eigenvalues --    0.07543   0.08754   0.08847   0.09552   0.09872
  Beta virt. eigenvalues --    0.10175   0.11361   0.11853   0.12741   0.13167
  Beta virt. eigenvalues --    0.13750   0.14310   0.15351   0.15595   0.16638

 Mulliken charges and spin densities:
               1          2
     1  C    1.420412  -1.910802
     2  C   -1.989069   2.042418
     3  C    0.998052  -1.508528
     4  C    0.033190  -0.452362
     5  O    0.065962  -0.025012
     6  C    0.173191  -0.539634
     7  C    0.329589  -0.004043
     8  C   -0.073941   0.233086
     9  O   -0.391373   0.047660
    10  O   -0.255143   0.011004
    11  N   -0.374413   0.001770
    12  H   -0.369063   0.525588
    13  H    0.008469   0.138807
    14  H   -0.657479   0.808104
    15  H   -0.153300   0.294196
    16  H    0.026035   0.125452
    17  H   -0.263949   0.432218
    18  H   -0.047896   0.191787
    19  H    0.031475   0.115771
    20  H   -0.108828   0.239056
    21  H    0.212314  -0.138231
    22  H    0.229321   0.049643
    23  H   -0.080406   0.301422
    24  H    0.236850   0.020630
 Sum of Mulliken charges =  -1.00000   1.00000

 Dipole moment (field-independent basis, Debye):
    X=              1.3929    Y=             -2.9593    Z=             -1.4560  Tot=              3.5802
 Quadrupole moment (field-independent basis, Debye-Ang):
   XX=           -127.0340   YY=            -93.5555   ZZ=            -90.9694
   XY=              3.3528   XZ=              4.6052   YZ=             -3.0184

 Summary of Natural Population Analysis:

                                       Natural Population
                Natural  -----------------------------------------------
    Atom  No    Charge         Core      Valence    Rydberg      Total
 -----------------------------------------------------------------------
      C    1   -0.30107      0.99961     2.29445    0.00702     3.30107
      C    2    0.13464      0.99954     1.85039    0.01543     2.86536
      C    3   -0.29905      0.99960     2.29245    0.00699     3.29905
      C    4   -0.28810      0.99960     2.28103    0.00747     3.28810
      O    5   -0.28741      0.99985     3.27642    0.01113     4.28741
      C    6    0.11405      0.99940     1.87187    0.01467     2.88595
      C    7   -0.01065      0.99947     1.99856    0.01262     3.01065
      C    8    0.40874      0.99966     1.56723    0.02437     2.59126
      O    9   -0.32430      0.99987     3.31844    0.00599     4.32430
      O   10   -0.33598      0.99988     3.32921    0.00689     4.33598
      N   11   -0.41275      0.99973     2.90190    0.01111     3.91275
      H   12    0.10344      0.00000     0.39511    0.00145     0.39656
      H   13    0.10117      0.00000     0.39783    0.00100     0.39883
      H   14    0.10508      0.00000     0.39302    0.00190     0.39492
      H   15    0.09941      0.00000     0.39957    0.00102     0.40059
      H   16    0.10512      0.00000     0.39350    0.00138     0.39488
      H   17    0.10721      0.00000     0.39125    0.00154     0.39279
      H   18    0.10106      0.00000     0.39794    0.00101     0.39894
      H   19    0.10489      0.00000     0.39406    0.00104     0.39511
      H   20    0.09818      0.00000     0.40099    0.00083     0.40182
      H   21    0.07385      0.00000     0.42484    0.00131     0.42615
      H   22    0.23074      0.00000     0.26568    0.00358     0.26926
      H   23    0.18019      0.00000     0.31779    0.00201     0.31981
      H   24    0.19152      0.00000     0.30667    0.00181     0.30848
 =======================================================================
   * Total *   -0.00000     10.99622    31.86021    0.14358    43.00000

 Normal termination of Gaussian 16 at Tue Dec  8 20:59:16 2020.
