 Gaussian 16, Revision A.03,

 -----------------------------------------------------------
 # opt freq B3LYP/6-31G(d) empiricaldispersion=gd3bj scf=xqc
 -----------------------------------------------------------

 -------------------------------
 CID_115032781_JID_6282_neutraal
 -------------------------------
 Symbolic Z-matrix:
 Charge =  0 Multiplicity = 1

 SCF Done:  E(RB3LYP) =  -708.253201468     A.U. after   15 cycles
 SCF Done:  E(RB3LYP) =  -708.259067176     A.U. after   12 cycles
 SCF Done:  E(RB3LYP) =  -708.259633141     A.U. after   12 cycles
 SCF Done:  E(RB3LYP) =  -708.259783379     A.U. after   12 cycles
 SCF Done:  E(RB3LYP) =  -708.260062598     A.U. after   12 cycles
 SCF Done:  E(RB3LYP) =  -708.260068115     A.U. after   10 cycles
 SCF Done:  E(RB3LYP) =  -708.260080459     A.U. after    9 cycles
 SCF Done:  E(RB3LYP) =  -708.260081721     A.U. after    8 cycles
 SCF Done:  E(RB3LYP) =  -708.260082064     A.U. after    8 cycles
 SCF Done:  E(RB3LYP) =  -708.260082151     A.U. after    7 cycles
 SCF Done:  E(RB3LYP) =  -708.260082177     A.U. after    6 cycles
 Optimization completed.
    -- Stationary point found.
 Normal termination of Gaussian 16 at Thu Dec 10 21:56:33 2020.

 --------------------------------------------------------------------
 #N Geom=AllCheck Guess=TCheck SCRF=Check GenChk RB3LYP/6-31G(d) Freq
 --------------------------------------------------------------------

 Structure from the checkpoint file:  "JID_6282.chk"
 -------------------------------
 CID_115032781_JID_6282_neutraal
 -------------------------------
 Charge =  0 Multiplicity = 1

 SCF Done:  E(RB3LYP) =  -708.260082177     A.U. after    1 cycles

  Exact polarizability: 187.654  -0.952 145.327 -12.475  -4.190 107.941
 Approx polarizability: 259.591   9.193 232.378 -33.615 -16.111 163.286

                      1                      2                      3
                      A                      A                      A
 Frequencies --     25.4351                54.8998                90.0423
 Red. masses --      3.7605                 4.3698                 2.7745
 Frc consts  --      0.0014                 0.0078                 0.0133
 IR Inten    --      0.1078                 1.0460                 0.8184

                      4                      5                      6
                      A                      A                      A
 Frequencies --    104.4602               127.3745               165.8515
 Red. masses --      3.5612                 4.1413                 3.3606
 Frc consts  --      0.0229                 0.0396                 0.0545
 IR Inten    --      0.5126                 2.9644                 8.5985

                      7                      8                      9
                      A                      A                      A
 Frequencies --    182.7903               197.2656               250.7929
 Red. masses --      2.5701                 2.9972                 1.3694
 Frc consts  --      0.0506                 0.0687                 0.0507
 IR Inten    --      8.2052                 5.1682                 3.9217

                     10                     11                     12
                      A                      A                      A
 Frequencies --    264.5512               272.8712               310.3807
 Red. masses --      1.5408                 1.9945                 2.8716
 Frc consts  --      0.0635                 0.0875                 0.1630
 IR Inten    --      7.4512                43.7271                 4.4711

                     13                     14                     15
                      A                      A                      A
 Frequencies --    323.4638               354.5512               366.9063
 Red. masses --      2.7169                 4.3577                 2.1582
 Frc consts  --      0.1675                 0.3227                 0.1712
 IR Inten    --      3.7230                 1.8797                 0.9051

                     16                     17                     18
                      A                      A                      A
 Frequencies --    387.9436               415.1612               428.5287
 Red. masses --      1.9573                 2.8987                 2.8681
 Frc consts  --      0.1736                 0.2944                 0.3103
 IR Inten    --      4.2331                 1.8791                 1.0916

                     19                     20                     21
                      A                      A                      A
 Frequencies --    465.0537               491.7435               517.4900
 Red. masses --      4.6891                 3.4992                 2.9335
 Frc consts  --      0.5975                 0.4985                 0.4628
 IR Inten    --      3.6752                 0.8670                 9.0526

                     22                     23                     24
                      A                      A                      A
 Frequencies --    564.7301               568.9204               588.5136
 Red. masses --      2.8336                 4.8354                 2.9447
 Frc consts  --      0.5324                 0.9221                 0.6009
 IR Inten    --     14.3235                 2.3364                19.6796

                     25                     26                     27
                      A                      A                      A
 Frequencies --    661.1680               697.4049               757.9194
 Red. masses --      3.8713                 1.3830                 3.4849
 Frc consts  --      0.9971                 0.3963                 1.1795
 IR Inten    --      7.4184                41.5487                13.9500

                     28                     29                     30
                      A                      A                      A
 Frequencies --    777.5332               794.6079               813.3904
 Red. masses --      4.2965                 2.7233                 3.6740
 Frc consts  --      1.5304                 1.0131                 1.4321
 IR Inten    --     23.7205                 3.5208                 5.1685

                     31                     32                     33
                      A                      A                      A
 Frequencies --    829.4852               871.3279               883.1245
 Red. masses --      1.5723                 1.6382                 1.3522
 Frc consts  --      0.6374                 0.7328                 0.6213
 IR Inten    --      0.7862                14.5133                63.7637

                     34                     35                     36
                      A                      A                      A
 Frequencies --    886.5012               911.9329               956.9616
 Red. masses --      2.5596                 2.2778                 2.6879
 Frc consts  --      1.1852                 1.1161                 1.4503
 IR Inten    --      9.4376                 0.4231                27.3420

                     37                     38                     39
                      A                      A                      A
 Frequencies --    971.4583              1017.5949              1026.0583
 Red. masses --      1.5707                 2.2295                 1.9461
 Frc consts  --      0.8733                 1.3602                 1.2071
 IR Inten    --     25.3657                 9.2813                13.7886

                     40                     41                     42
                      A                      A                      A
 Frequencies --   1037.1260              1059.6901              1063.9348
 Red. masses --      1.4746                 2.3686                 2.1554
 Frc consts  --      0.9345                 1.5671                 1.4375
 IR Inten    --      1.8291                 9.2088                 8.6340

                     43                     44                     45
                      A                      A                      A
 Frequencies --   1075.5792              1102.5332              1125.6666
 Red. masses --      1.7974                 1.8441                 2.5099
 Frc consts  --      1.2251                 1.3208                 1.8738
 IR Inten    --     12.7664                 8.7472                 3.8515

                     46                     47                     48
                      A                      A                      A
 Frequencies --   1141.5759              1167.3841              1177.2508
 Red. masses --      1.8898                 1.5431                 1.4708
 Frc consts  --      1.4511                 1.2390                 1.2010
 IR Inten    --      1.8045                 9.7300                 8.3154

                     49                     50                     51
                      A                      A                      A
 Frequencies --   1183.2856              1188.8504              1207.1569
 Red. masses --      2.5434                 1.2453                 1.7933
 Frc consts  --      2.0981                 1.0370                 1.5397
 IR Inten    --     32.0231                13.0010                14.4842

                     52                     53                     54
                      A                      A                      A
 Frequencies --   1228.5816              1242.6623              1255.8572
 Red. masses --      1.1394                 2.2586                 1.8885
 Frc consts  --      1.0133                 2.0549                 1.7549
 IR Inten    --      3.3756                20.2179                36.9961

                     55                     56                     57
                      A                      A                      A
 Frequencies --   1284.9608              1314.6502              1324.6411
 Red. masses --      1.2756                 2.4266                 1.2759
 Frc consts  --      1.2409                 2.4710                 1.3190
 IR Inten    --      5.4895                13.2894                 5.4742

                     58                     59                     60
                      A                      A                      A
 Frequencies --   1346.0318              1348.5319              1374.6558
 Red. masses --      1.3984                 1.3127                 1.6818
 Frc consts  --      1.4927                 1.4064                 1.8725
 IR Inten    --     17.4768                10.3783                11.1237

                     61                     62                     63
                      A                      A                      A
 Frequencies --   1384.4349              1391.0994              1411.2716
 Red. masses --      1.3800                 1.6339                 1.4003
 Frc consts  --      1.5584                 1.8630                 1.6432
 IR Inten    --      5.1229                 6.9780                23.1819

                     64                     65                     66
                      A                      A                      A
 Frequencies --   1415.7959              1427.5168              1445.2632
 Red. masses --      1.4308                 1.7644                 1.4571
 Frc consts  --      1.6897                 2.1184                 1.7932
 IR Inten    --      4.6598                 4.8459                13.5833

                     67                     68                     69
                      A                      A                      A
 Frequencies --   1468.4327              1483.1018              1486.5015
 Red. masses --      2.2080                 2.3858                 1.2321
 Frc consts  --      2.8052                 3.0919                 1.6041
 IR Inten    --      8.4345                 4.2700                 0.9334

                     70                     71                     72
                      A                      A                      A
 Frequencies --   1506.2752              1516.1705              1520.8752
 Red. masses --      1.0921                 1.0510                 1.0889
 Frc consts  --      1.4599                 1.4234                 1.4839
 IR Inten    --      7.6456                19.4938                 4.3141

                     73                     74                     75
                      A                      A                      A
 Frequencies --   1521.4977              1522.9009              1537.2009
 Red. masses --      1.0984                 1.0888                 1.0536
 Frc consts  --      1.4981                 1.4879                 1.4668
 IR Inten    --      4.6049                 3.5252                 2.2683

                     76                     77                     78
                      A                      A                      A
 Frequencies --   1542.8431              1620.5680              1693.3699
 Red. masses --      1.1079                 5.0664                 1.2325
 Frc consts  --      1.5538                 7.8394                 2.0823
 IR Inten    --      7.0476                26.0250                17.9789

                     79                     80                     81
                      A                      A                      A
 Frequencies --   1701.0182              1770.0514              2917.0577
 Red. masses --      3.4154                 8.4323                 1.0728
 Frc consts  --      5.8226                15.5656                 5.3786
 IR Inten    --     77.8137               530.6294                25.4119

                     82                     83                     84
                      A                      A                      A
 Frequencies --   2923.7324              2937.1909              2997.8140
 Red. masses --      1.0684                 1.0661                 1.0710
 Frc consts  --      5.3810                 5.4190                 5.6706
 IR Inten    --     40.1648               159.1003                35.8010

                     85                     86                     87
                      A                      A                      A
 Frequencies --   3015.1532              3051.1484              3052.8013
 Red. masses --      1.0829                 1.0900                 1.0644
 Frc consts  --      5.8001                 5.9788                 5.8447
 IR Inten    --     20.1207                22.0292                16.6145

                     88                     89                     90
                      A                      A                      A
 Frequencies --   3059.7292              3068.4063              3074.2335
 Red. masses --      1.0659                 1.0826                 1.0742
 Frc consts  --      5.8793                 6.0054                 5.9813
 IR Inten    --     32.6965                59.4238                31.0635

                     91                     92                     93
                      A                      A                      A
 Frequencies --   3078.7129              3093.1048              3104.1739
 Red. masses --      1.0806                 1.1033                 1.1030
 Frc consts  --      6.0344                 6.2194                 6.2620
 IR Inten    --     71.5491                36.1158                42.6152

                     94                     95                     96
                      A                      A                      A
 Frequencies --   3119.5815              3194.7164              3249.5104
 Red. masses --      1.1040                 1.0888                 1.0918
 Frc consts  --      6.3302                 6.5474                 6.7923
 IR Inten    --     32.3588                 2.3331                 5.0212

                     97                     98                     99
                      A                      A                      A
 Frequencies --   3468.6307              3557.0888              3599.9615
 Red. masses --      1.0509                 1.0915                 1.0775
 Frc consts  --      7.4498                 8.1370                 8.2276
 IR Inten    --      0.9832                 0.1649                44.5488

 - Thermochemistry -
 -------------------
 Temperature   298.150 Kelvin.  Pressure   1.00000 Atm.
 Atom     1 has atomic number  6 and mass  12.00000

 Molecular mass:   221.15281 amu.
 Principal axes and moments of inertia in atomic units:
                           1         2         3
     Eigenvalues --  1886.060076252.273797042.17383
           X            0.99977  -0.02071   0.00566
           Y            0.02060   0.99963   0.01801
           Z           -0.00603  -0.01788   0.99982
 This molecule is an asymmetric top.
 Rotational symmetry number  1.
 Warning -- assumption of classical behavior for rotation
           may cause significant error
 Rotational temperatures (Kelvin)      0.04592     0.01385     0.01230
 Rotational constants (GHZ):           0.95688     0.28865     0.25628
 Zero-point vibrational energy     810803.3 (Joules/Mol)
                                  193.78665 (Kcal/Mol)
 Warning -- explicit consideration of  24 degrees of freedom as
           vibrations may cause significant error
 Vibrational temperatures:     36.60    78.99   129.55   150.29   183.26
          (Kelvin)            238.62   262.99   283.82   360.83   380.63
                              392.60   446.57   465.39   510.12   527.90
                              558.16   597.32   616.56   669.11   707.51
                              744.55   812.52   818.55   846.74   951.27
                             1003.41  1090.48  1118.70  1143.26  1170.29
                             1193.44  1253.65  1270.62  1275.48  1312.07
                             1376.85  1397.71  1464.09  1476.27  1492.19
                             1524.66  1530.76  1547.52  1586.30  1619.58
                             1642.47  1679.61  1693.80  1702.48  1710.49
                             1736.83  1767.65  1787.91  1806.90  1848.77
                             1891.49  1905.86  1936.64  1940.24  1977.82
                             1991.89  2001.48  2030.51  2037.01  2053.88
                             2079.41  2112.75  2133.85  2138.74  2167.19
                             2181.43  2188.20  2189.10  2191.11  2211.69
                             2219.81  2331.64  2436.38  2447.39  2546.71
                             4197.00  4206.60  4225.96  4313.19  4338.13
                             4389.92  4392.30  4402.27  4414.75  4423.14
                             4429.58  4450.29  4466.21  4488.38  4596.48
                             4675.32  4990.59  5117.86  5179.54

 Zero-point correction=                           0.308819 (Hartree/Particle)
 Thermal correction to Energy=                    0.323816
 Thermal correction to Enthalpy=                  0.324760
 Thermal correction to Gibbs Free Energy=         0.266496
 Sum of electronic and zero-point Energies=           -707.951263
 Sum of electronic and thermal Energies=              -707.936266
 Sum of electronic and thermal Enthalpies=            -707.935322
 Sum of electronic and thermal Free Energies=         -707.993587

                     E (Thermal)             CV                S
                      KCal/Mol        Cal/Mol-Kelvin    Cal/Mol-Kelvin
 Total                  203.198             58.969            122.628
 Electronic               0.000              0.000              0.000
 Translational            0.889              2.981             42.084
 Rotational               0.889              2.981             32.785
 Vibrational            201.420             53.008             47.760
 Vibration     1          0.593              1.985              6.157
 Vibration     2          0.596              1.976              4.633
 Vibration     3          0.602              1.956              3.659
 Vibration     4          0.605              1.946              3.369
 Vibration     5          0.611              1.926              2.985
 Vibration     6          0.624              1.884              2.482
 Vibration     7          0.630              1.863              2.300
 Vibration     8          0.637              1.844              2.158
 Vibration     9          0.663              1.761              1.725
 Vibration    10          0.671              1.738              1.632
 Vibration    11          0.676              1.723              1.578
 Vibration    12          0.699              1.654              1.360
 Vibration    13          0.708              1.628              1.293
 Vibration    14          0.730              1.566              1.146
 Vibration    15          0.740              1.540              1.093
 Vibration    16          0.756              1.496              1.008
 Vibration    17          0.779              1.437              0.909
 Vibration    18          0.790              1.408              0.863
 Vibration    19          0.823              1.328              0.752
 Vibration    20          0.847              1.268              0.679
 Vibration    21          0.872              1.211              0.616
 Vibration    22          0.921              1.108              0.514
 Vibration    23          0.925              1.098              0.506
 Vibration    24          0.946              1.056              0.470

 Optimization completed.
    -- Stationary point found.
 Normal termination of Gaussian 16 at Thu Dec 10 22:08:07 2020.

 ----------------------------------------------------------------------
 # B3LYP/6-311++G(d,p) empiricaldispersion=gd3bj scf=xqc pop=npa geom=c
 heck
 ----------------------------------------------------------------------

 ---------------------------------------
 CID_115032781_JID_6282_Energie_neutraal
 ---------------------------------------
 Structure from the checkpoint file:  "JID_6282.chk"
 Charge =  0 Multiplicity = 1

 SCF Done:  E(RB3LYP) =  -708.464480290     A.U. after   15 cycles
 Normal termination of Gaussian 16 at Thu Dec 10 22:13:07 2020.

 ----------------------------------------------------------------------
 # B3LYP/6-311++G(d,p) empiricaldispersion=gd3bj scf=xqc pop=npa geom=c
 heck
 ----------------------------------------------------------------------

 -------------------------------------
 CID_115032781_JID_6282_Energie_kation
 -------------------------------------
 Structure from the checkpoint file:  "JID_6282.chk"
 Charge =  1 Multiplicity = 2

 SCF Done:  E(UB3LYP) =  -708.191269017     A.U. after   22 cycles
 Normal termination of Gaussian 16 at Thu Dec 10 22:24:08 2020.
 Gaussian 16:  ES64L-G16RevA.03 25-Dec-2016

 ----------------------------------------------------------------------
 # B3LYP/6-311++G(d,p) empiricaldispersion=gd3bj scf=xqc pop=npa geom=c
 heck
 ----------------------------------------------------------------------

 ------------------------------------
 CID_115032781_JID_6282_Energie_anion
 ------------------------------------
 Structure from the checkpoint file:  "JID_6282.chk"
 Charge = -1 Multiplicity = 2

                         Standard orientation:
 ---------------------------------------------------------------------
 Center     Atomic      Atomic             Coordinates (Angstroms)
 Number     Number       Type             X           Y           Z
 ---------------------------------------------------------------------
      1          6           0        4.258320   -0.116860    1.606111
      2          7           0        3.469500    0.281476    0.453156
      3          6           0        3.028087   -0.882024   -0.310505
      4          6           0        2.264856   -0.461204   -1.571995
      5          6           0        1.088154    0.490791   -1.287877
      6          6           0        1.606317    1.640884   -0.393154
      7          6           0        2.332270    1.113915    0.842090
      8          6           0       -0.156061   -0.163680   -0.707592
      9          6           0       -0.269284   -1.492384   -0.419944
     10          7           0       -1.438748   -2.006654    0.075133
     11          6           0       -2.608694   -1.282438    0.329204
     12          8           0       -3.612194   -1.845953    0.769240
     13          6           0       -2.491464    0.134376    0.015842
     14          6           0       -1.323410    0.637935   -0.478667
     15          6           0       -3.723853    0.967439    0.257493
     16          7           0       -3.437950    2.402950    0.176289
     17          1           0        3.690762   -0.737705    2.328116
     18          1           0        5.129788   -0.693247    1.276587
     19          1           0        4.616814    0.773415    2.133874
     20          1           0        3.915071   -1.458046   -0.600714
     21          1           0        2.408274   -1.550784    0.319367
     22          1           0        1.927070   -1.349962   -2.118568
     23          1           0        2.969421    0.064100   -2.226704
     24          1           0        0.785003    0.935926   -2.246348
     25          1           0        0.783348    2.295244   -0.086967
     26          1           0        2.309385    2.248857   -0.974744
     27          1           0        1.622555    0.555412    1.486228
     28          1           0        2.711404    1.953855    1.435525
     29          1           0        0.527018   -2.210920   -0.561141
     30          1           0       -1.509148   -2.995107    0.284849
     31          1           0       -1.298867    1.696910   -0.721855
     32          1           0       -4.469864    0.724543   -0.511448
     33          1           0       -4.171844    0.638523    1.209015
     34          1           0       -4.312956    2.922042    0.198776
     35          1           0       -2.916716    2.689665    1.004144
 ---------------------------------------------------------------------

 SCF Done:  E(UB3LYP) =  -708.456506551     A.U. after   33 cycles
 SCF Done:  E(UB3LYP) =  -708.456506551     a.u. after    1 cycles

 The electronic state is 2-A.
 Alpha  occ. eigenvalues --  -18.96318 -14.24493 -14.20637 -14.19474 -10.14869
 Alpha  occ. eigenvalues --  -10.09922 -10.09181 -10.09072 -10.08927 -10.08748
 Alpha  occ. eigenvalues --  -10.08194 -10.07148 -10.06889 -10.06645 -10.05703
 Alpha  occ. eigenvalues --  -10.05620  -0.91770  -0.83599  -0.83196  -0.78497
 Alpha  occ. eigenvalues --   -0.72623  -0.68531  -0.65793  -0.64232  -0.59543
 Alpha  occ. eigenvalues --   -0.57159  -0.53458  -0.52708  -0.51978  -0.48766
 Alpha  occ. eigenvalues --   -0.44929  -0.41880  -0.40154  -0.39318  -0.38878
 Alpha  occ. eigenvalues --   -0.36840  -0.36563  -0.35594  -0.34500  -0.33325
 Alpha  occ. eigenvalues --   -0.32880  -0.31922  -0.31040  -0.30979  -0.29426
 Alpha  occ. eigenvalues --   -0.29055  -0.28665  -0.27358  -0.26685  -0.25507
 Alpha  occ. eigenvalues --   -0.25226  -0.23360  -0.23051  -0.21639  -0.21396
 Alpha  occ. eigenvalues --   -0.17666  -0.14960  -0.13950  -0.12414  -0.09991
 Alpha  occ. eigenvalues --    0.04279
 Alpha virt. eigenvalues --    0.05997   0.06508   0.07074   0.07567   0.08050
 Alpha virt. eigenvalues --    0.09219   0.09967   0.10165   0.10546   0.10736
 Alpha virt. eigenvalues --    0.11006   0.11796   0.12271   0.12671   0.13248

  Beta  occ. eigenvalues --  -18.96296 -14.24367 -14.20628 -14.19443 -10.14855
  Beta  occ. eigenvalues --  -10.09764 -10.09172 -10.09039 -10.08900 -10.08748
  Beta  occ. eigenvalues --  -10.08187 -10.07146 -10.06891 -10.06702 -10.05566
  Beta  occ. eigenvalues --  -10.05493  -0.91682  -0.83429  -0.83144  -0.78434
  Beta  occ. eigenvalues --   -0.72555  -0.68329  -0.65766  -0.64074  -0.59463
  Beta  occ. eigenvalues --   -0.56968  -0.53398  -0.52653  -0.51779  -0.48695
  Beta  occ. eigenvalues --   -0.44835  -0.41775  -0.40090  -0.39240  -0.38794
  Beta  occ. eigenvalues --   -0.36770  -0.36520  -0.35516  -0.34430  -0.33175
  Beta  occ. eigenvalues --   -0.32779  -0.31774  -0.30952  -0.30843  -0.29393
  Beta  occ. eigenvalues --   -0.29022  -0.28556  -0.27264  -0.26649  -0.25458
  Beta  occ. eigenvalues --   -0.25163  -0.23216  -0.23020  -0.21465  -0.21254
  Beta  occ. eigenvalues --   -0.16937  -0.14865  -0.13891  -0.12332  -0.09504
  Beta virt. eigenvalues --    0.06394   0.06854   0.07526   0.07634   0.08045
  Beta virt. eigenvalues --    0.08611   0.09508   0.10098   0.10248   0.10603
  Beta virt. eigenvalues --    0.10983   0.11258   0.11858   0.12501   0.12800

 Mulliken charges and spin densities:
               1          2
     1  C    0.498852  -0.736475
     2  N   -0.062386   0.160964
     3  C    0.321713  -0.596858
     4  C   -0.544900  -0.029365
     5  C    0.392780  -0.190350
     6  C   -0.377829   0.000794
     7  C   -0.321304  -0.226172
     8  C    0.698289  -0.335049
     9  C   -0.331020  -0.136336
    10  N   -0.219353   0.098150
    11  C   -0.392027   0.051804
    12  O   -0.420473   0.021213
    13  C    0.618525   0.106903
    14  C    0.002733  -0.011817
    15  C   -0.454135  -0.378500
    16  N   -0.345916  -0.031939
    17  H   -0.083868   0.194549
    18  H   -0.247238   0.375525
    19  H   -0.154927   0.268036
    20  H   -0.384473   0.552924
    21  H   -0.052758   0.175816
    22  H    0.079164   0.073266
    23  H    0.141087   0.011732
    24  H    0.098842   0.087649
    25  H    0.050042   0.064103
    26  H    0.114489   0.025869
    27  H    0.136283  -0.003076
    28  H    0.063144   0.108902
    29  H   -0.362444   0.500680
    30  H    0.152348   0.158778
    31  H    0.181869   0.023158
    32  H    0.011733   0.172910
    33  H    0.128920   0.050495
    34  H   -0.015893   0.259977
    35  H    0.080131   0.131742
 Sum of Mulliken charges =  -1.00000   1.00000

 Dipole moment (field-independent basis, Debye):
    X=              1.1318    Y=              2.1172    Z=             -1.5508  Tot=              2.8580
 Quadrupole moment (field-independent basis, Debye-Ang):
   XX=           -189.4303   YY=           -135.8588   ZZ=           -121.6189
   XY=              4.5918   XZ=             -3.1141   YZ=              4.5433

 Summary of Natural Population Analysis:

                                       Natural Population
                Natural  -----------------------------------------------
    Atom  No    Charge         Core      Valence    Rydberg      Total
 -----------------------------------------------------------------------
      C    1   -0.17513      0.99965     2.16696    0.00852     3.17513
      N    2   -0.28195      0.99971     2.76946    0.01278     3.78195
      C    3   -0.08741      0.99961     2.07459    0.01321     3.08741
      C    4   -0.19380      0.99962     2.18464    0.00954     3.19380
      C    5   -0.10930      0.99957     2.10031    0.00942     3.10930
      C    6   -0.18851      0.99961     2.18096    0.00794     3.18851
      C    7   -0.08703      0.99961     2.07627    0.01114     3.08703
      C    8   -0.06772      0.99949     2.05829    0.00994     3.06772
      C    9    0.04952      0.99949     1.94005    0.01094     2.95048
      N   10   -0.26658      0.99967     2.75812    0.00879     3.76658
      C   11    0.31323      0.99958     1.66582    0.02137     2.68677
      O   12   -0.34596      0.99988     3.34044    0.00564     4.34596
      C   13   -0.04781      0.99947     2.03932    0.00902     3.04781
      C   14   -0.05144      0.99948     2.04341    0.00854     3.05144
      C   15   -0.09824      0.99960     2.08586    0.01278     3.09824
      N   16   -0.42322      0.99978     2.91305    0.01039     3.92322
      H   17    0.08096      0.00000     0.41764    0.00141     0.41904
      H   18    0.09581      0.00000     0.40288    0.00132     0.40419
      H   19    0.09305      0.00000     0.40580    0.00115     0.40695
      H   20    0.09711      0.00000     0.40123    0.00166     0.40289
      H   21    0.08177      0.00000     0.41601    0.00222     0.41823
      H   22    0.10060      0.00000     0.39838    0.00102     0.39940
      H   23    0.09989      0.00000     0.39878    0.00133     0.40011
      H   24    0.10068      0.00000     0.39766    0.00166     0.39932
      H   25    0.10238      0.00000     0.39657    0.00106     0.39762
      H   26    0.09651      0.00000     0.40207    0.00142     0.40349
      H   27    0.08461      0.00000     0.41392    0.00147     0.41539
      H   28    0.09462      0.00000     0.40425    0.00113     0.40538
      H   29    0.09698      0.00000     0.40154    0.00148     0.40302
      H   30    0.19543      0.00000     0.30179    0.00278     0.30457
      H   31    0.10530      0.00000     0.39297    0.00173     0.39470
      H   32    0.09762      0.00000     0.40104    0.00134     0.40238
      H   33    0.09158      0.00000     0.40673    0.00169     0.40842
      H   34    0.17468      0.00000     0.32346    0.00186     0.32532
      H   35    0.17178      0.00000     0.32646    0.00176     0.32822
 =======================================================================
   * Total *   -0.00000     15.99382    43.80674    0.19944    60.00000

 Normal termination of Gaussian 16 at Thu Dec 10 22:43:12 2020.
