 Gaussian 16, Revision A.03,

 -----------------------------------------------------------
 # opt freq B3LYP/6-31G(d) empiricaldispersion=gd3bj scf=xqc
 -----------------------------------------------------------

 -------------------------------
 CID_106739549_JID_7908_neutraal
 -------------------------------
 Symbolic Z-matrix:
 Charge =  0 Multiplicity = 1

 SCF Done:  E(RB3LYP) =  -1106.44156796     A.U. after   15 cycles
 SCF Done:  E(RB3LYP) =  -1106.44797455     A.U. after   13 cycles
 SCF Done:  E(RB3LYP) =  -1106.44745288     A.U. after   13 cycles
 SCF Done:  E(RB3LYP) =  -1106.44994716     A.U. after   12 cycles
 SCF Done:  E(RB3LYP) =  -1106.45091598     A.U. after   13 cycles
 SCF Done:  E(RB3LYP) =  -1106.45097425     A.U. after   12 cycles
 SCF Done:  E(RB3LYP) =  -1106.45245033     A.U. after   13 cycles
 SCF Done:  E(RB3LYP) =  -1106.45325273     A.U. after   12 cycles
 SCF Done:  E(RB3LYP) =  -1106.45398577     A.U. after   12 cycles
 SCF Done:  E(RB3LYP) =  -1106.45435937     A.U. after   12 cycles
 SCF Done:  E(RB3LYP) =  -1106.45696801     A.U. after   11 cycles
 SCF Done:  E(RB3LYP) =  -1106.45698308     A.U. after   10 cycles
 SCF Done:  E(RB3LYP) =  -1106.45698313     A.U. after    8 cycles
 SCF Done:  E(RB3LYP) =  -1106.45698348     A.U. after    8 cycles
 SCF Done:  E(RB3LYP) =  -1106.45698325     A.U. after    8 cycles
 Optimization completed.
    -- Stationary point found.
 Normal termination of Gaussian 16 at Fri Dec 11 13:30:07 2020.

 --------------------------------------------------------------------
 #N Geom=AllCheck Guess=TCheck SCRF=Check GenChk RB3LYP/6-31G(d) Freq
 --------------------------------------------------------------------

 Structure from the checkpoint file:  "JID_7908.chk"
 -------------------------------
 CID_106739549_JID_7908_neutraal
 -------------------------------
 Charge =  0 Multiplicity = 1

 SCF Done:  E(RB3LYP) =  -1106.45698325     A.U. after    1 cycles

  Exact polarizability: 184.895   1.459 158.294  10.063   6.404 127.105
 Approx polarizability: 242.825  -1.207 273.951  14.338  14.505 195.273

                      1                      2                      3
                      A                      A                      A
 Frequencies --     18.7080                28.0329                46.1382
 Red. masses --      4.7968                 5.9455                 4.1241
 Frc consts  --      0.0010                 0.0028                 0.0052
 IR Inten    --      0.1906                 0.1140                 0.7486

                      4                      5                      6
                      A                      A                      A
 Frequencies --     56.8942               106.1336               130.1110
 Red. masses --      6.4609                 3.4435                 1.0980
 Frc consts  --      0.0123                 0.0229                 0.0110
 IR Inten    --      1.9477                 0.4440                 0.2231

                      7                      8                      9
                      A                      A                      A
 Frequencies --    144.6300               157.3243               174.4444
 Red. masses --      4.2011                 4.3936                 3.3594
 Frc consts  --      0.0518                 0.0641                 0.0602
 IR Inten    --      0.8552                 1.2373                 0.1091

                     10                     11                     12
                      A                      A                      A
 Frequencies --    214.3448               242.2038               258.8902
 Red. masses --      2.9315                 3.7000                 1.0797
 Frc consts  --      0.0794                 0.1279                 0.0426
 IR Inten    --      8.2473                 1.4354                 0.0159

                     13                     14                     15
                      A                      A                      A
 Frequencies --    275.8143               302.1059               309.5507
 Red. masses --      2.8517                 2.0365                 2.6686
 Frc consts  --      0.1278                 0.1095                 0.1507
 IR Inten    --      2.3153                 7.0023                 3.7209

                     16                     17                     18
                      A                      A                      A
 Frequencies --    321.7234               360.8210               377.6702
 Red. masses --      4.5970                 3.7932                 2.1289
 Frc consts  --      0.2803                 0.2910                 0.1789
 IR Inten    --      8.4604                 3.1890                 1.0036

                     19                     20                     21
                      A                      A                      A
 Frequencies --    412.6889               427.2678               500.4546
 Red. masses --      2.4553                 4.6976                 3.7690
 Frc consts  --      0.2464                 0.5053                 0.5562
 IR Inten    --      0.1731                12.1662                 0.2313

                     22                     23                     24
                      A                      A                      A
 Frequencies --    516.5458               542.1610               556.9899
 Red. masses --      4.3617                 3.2272                 7.3119
 Frc consts  --      0.6857                 0.5589                 1.3365
 IR Inten    --      0.1591                 2.9084                 3.2885

                     25                     26                     27
                      A                      A                      A
 Frequencies --    578.0904               619.6632               641.5579
 Red. masses --      3.3581                 2.8759                 3.4655
 Frc consts  --      0.6612                 0.6506                 0.8404
 IR Inten    --     23.5622                28.9482                21.5326

                     28                     29                     30
                      A                      A                      A
 Frequencies --    650.9420               694.8560               739.5308
 Red. masses --      5.1551                 4.1978                 1.2613
 Frc consts  --      1.2870                 1.1942                 0.4064
 IR Inten    --      7.0339                 2.8856                34.7906

                     31                     32                     33
                      A                      A                      A
 Frequencies --    746.2168               781.2301               790.7012
 Red. masses --      1.9876                 3.2729                 1.9918
 Frc consts  --      0.6521                 1.1769                 0.7337
 IR Inten    --     34.0133                 8.5915                78.2222

                     34                     35                     36
                      A                      A                      A
 Frequencies --    810.1414               822.5261               859.7295
 Red. masses --      2.6925                 1.7344                 4.2191
 Frc consts  --      1.0412                 0.6914                 1.8374
 IR Inten    --     20.2174                28.6013                 5.8910

                     37                     38                     39
                      A                      A                      A
 Frequencies --    878.2733               911.2366               945.2434
 Red. masses --      2.4348                 1.8973                 1.9368
 Frc consts  --      1.1065                 0.9282                 1.0196
 IR Inten    --      1.2258                 1.3815                 4.0376

                     40                     41                     42
                      A                      A                      A
 Frequencies --    989.2833               989.9747              1009.7962
 Red. masses --      4.0102                 2.1358                 1.8928
 Frc consts  --      2.3124                 1.2333                 1.1372
 IR Inten    --      7.1799                 5.0561                 1.7463

                     43                     44                     45
                      A                      A                      A
 Frequencies --   1019.7862              1031.0531              1038.9962
 Red. masses --      1.8298                 1.8194                 1.8785
 Frc consts  --      1.1212                 1.1396                 1.1948
 IR Inten    --     21.1290                 8.9238                 2.4574

                     46                     47                     48
                      A                      A                      A
 Frequencies --   1079.7619              1082.7814              1115.9392
 Red. masses --      1.5058                 1.7051                 2.2771
 Frc consts  --      1.0343                 1.1778                 1.6708
 IR Inten    --      2.9848                 1.8520                22.6392

                     49                     50                     51
                      A                      A                      A
 Frequencies --   1122.4579              1140.1450              1162.9831
 Red. masses --      2.9630                 1.9368                 2.2882
 Frc consts  --      2.1995                 1.4834                 1.8234
 IR Inten    --     49.6141                17.6703                40.5817

                     52                     53                     54
                      A                      A                      A
 Frequencies --   1170.8446              1177.3543              1192.3909
 Red. masses --      2.3868                 1.9918                 2.4384
 Frc consts  --      1.9278                 1.6267                 2.0426
 IR Inten    --     18.5104                 0.4104                 8.5326

                     55                     56                     57
                      A                      A                      A
 Frequencies --   1231.8795              1251.0576              1280.0264
 Red. masses --      1.1860                 1.2400                 1.3232
 Frc consts  --      1.0604                 1.1434                 1.2773
 IR Inten    --      3.5613                15.8403                68.2420

                     58                     59                     60
                      A                      A                      A
 Frequencies --   1301.1520              1302.4473              1349.6360
 Red. masses --      1.2422                 1.2078                 4.1058
 Frc consts  --      1.2391                 1.2072                 4.4064
 IR Inten    --     12.4190                20.7506                37.8912

                     61                     62                     63
                      A                      A                      A
 Frequencies --   1362.0752              1369.1847              1381.7763
 Red. masses --      1.4072                 1.2893                 1.3679
 Frc consts  --      1.5382                 1.4240                 1.5387
 IR Inten    --     30.3707                 1.3155                 1.1410

                     64                     65                     66
                      A                      A                      A
 Frequencies --   1392.3135              1395.0876              1410.3211
 Red. masses --      1.4081                 1.5636                 1.7083
 Frc consts  --      1.6082                 1.7930                 2.0019
 IR Inten    --     12.7458                26.8502                55.7637

                     67                     68                     69
                      A                      A                      A
 Frequencies --   1423.4173              1434.2247              1442.8492
 Red. masses --      1.4256                 1.6270                 1.2752
 Frc consts  --      1.7018                 1.9719                 1.5642
 IR Inten    --     13.9796                65.6821                 0.7400

                     70                     71                     72
                      A                      A                      A
 Frequencies --   1446.6488              1483.7654              1505.5101
 Red. masses --      1.2870                 1.2820                 1.0440
 Frc consts  --      1.5870                 1.6629                 1.3942
 IR Inten    --      5.1849                 7.0294                 6.1321

                     73                     74                     75
                      A                      A                      A
 Frequencies --   1512.1964              1513.5421              1519.7520
 Red. masses --      1.2361                 1.2706                 1.0685
 Frc consts  --      1.6654                 1.7149                 1.4540
 IR Inten    --      5.9633                21.2520                 4.1934

                     76                     77                     78
                      A                      A                      A
 Frequencies --   1523.9947              1533.4960              1535.7155
 Red. masses --      1.0543                 1.1188                 1.1160
 Frc consts  --      1.4427                 1.5502                 1.5508
 IR Inten    --      6.5023                 2.1851                 6.0277

                     79                     80                     81
                      A                      A                      A
 Frequencies --   1538.8658              1550.6144              1565.6320
 Red. masses --      1.2661                 1.1994                 2.9204
 Frc consts  --      1.7665                 1.6991                 4.2176
 IR Inten    --     39.2965                 3.3970                 9.5971

                     82                     83                     84
                      A                      A                      A
 Frequencies --   1601.1058              1758.9572              2945.2998
 Red. masses --      4.9448                 7.3705                 1.0837
 Frc consts  --      7.4685                13.4356                 5.5387
 IR Inten    --     40.9285               322.5666                86.7704

                     85                     86                     87
                      A                      A                      A
 Frequencies --   2953.3983              3004.1224              3053.0476
 Red. masses --      1.0742                 1.0680                 1.0384
 Frc consts  --      5.5205                 5.6788                 5.7028
 IR Inten    --    104.4383                53.9429                24.0213

                     88                     89                     90
                      A                      A                      A
 Frequencies --   3054.6700              3059.0651              3063.9065
 Red. masses --      1.0364                 1.0696                 1.0707
 Frc consts  --      5.6979                 5.8974                 5.9223
 IR Inten    --     25.8105                38.7516                18.6238

                     91                     92                     93
                      A                      A                      A
 Frequencies --   3081.4092              3086.2035              3097.9262
 Red. masses --      1.0824                 1.0861                 1.0973
 Frc consts  --      6.0553                 6.0951                 6.2045
 IR Inten    --     36.2737                42.5998                80.8248

                     94                     95                     96
                      A                      A                      A
 Frequencies --   3111.0051              3114.7592              3117.3808
 Red. masses --      1.1013                 1.1015                 1.0970
 Frc consts  --      6.2802                 6.2964                 6.2813
 IR Inten    --     13.6299                14.6384                63.5957

                     97                     98                     99
                      A                      A                      A
 Frequencies --   3121.8802              3140.6897              3142.8884
 Red. masses --      1.0973                 1.1021                 1.1004
 Frc consts  --      6.3008                 6.4051                 6.4039
 IR Inten    --     18.3374                15.4768                25.3947

                    100                    101                    102
                      A                      A                      A
 Frequencies --   3275.2208              3517.8193              3540.4795
 Red. masses --      1.0947                 1.0750                 1.0743
 Frc consts  --      6.9190                 7.8383                 7.9339
 IR Inten    --      1.5654                 0.6112                45.2646

 - Thermochemistry -
 -------------------
 Temperature   298.150 Kelvin.  Pressure   1.00000 Atm.
 Atom     1 has atomic number  6 and mass  12.00000

 Molecular mass:   253.12488 amu.
 Principal axes and moments of inertia in atomic units:
                           1         2         3
     Eigenvalues --  2515.978006406.004387239.38943
           X            0.99961   0.02654   0.00875
           Y           -0.02650   0.99964  -0.00467
           Z           -0.00887   0.00443   0.99995
 This molecule is an asymmetric top.
 Rotational symmetry number  1.
 Warning -- assumption of classical behavior for rotation
           may cause significant error
 Rotational temperatures (Kelvin)      0.03443     0.01352     0.01196
 Rotational constants (GHZ):           0.71731     0.28173     0.24929
 Zero-point vibrational energy     811508.1 (Joules/Mol)
                                  193.95508 (Kcal/Mol)
 Warning -- explicit consideration of  26 degrees of freedom as
           vibrations may cause significant error
 Vibrational temperatures:     26.92    40.33    66.38    81.86   152.70
          (Kelvin)            187.20   208.09   226.35   250.99   308.39
                              348.48   372.49   396.84   434.66   445.37
                              462.89   519.14   543.38   593.77   614.74
                              720.04   743.19   780.05   801.38   831.74
                              891.56   923.06   936.56   999.74  1064.02
                             1073.64  1124.02  1137.64  1165.61  1183.43
                             1236.96  1263.64  1311.07  1359.99  1423.36
                             1424.35  1452.87  1467.24  1483.46  1494.88
                             1553.54  1557.88  1605.59  1614.97  1640.41
                             1673.27  1684.58  1693.95  1715.58  1772.40
                             1799.99  1841.67  1872.07  1873.93  1941.83
                             1959.72  1969.95  1988.07  2003.23  2007.22
                             2029.14  2047.98  2063.53  2075.94  2081.40
                             2134.81  2166.09  2175.71  2177.65  2186.58
                             2192.69  2206.36  2209.55  2214.08  2230.99
                             2252.60  2303.63  2530.75  4237.63  4249.28
                             4322.26  4392.65  4394.99  4401.31  4408.28
                             4433.46  4440.36  4457.22  4476.04  4481.44
                             4485.22  4491.69  4518.75  4521.92  4712.31
                             5061.36  5093.96

 Zero-point correction=                           0.309087 (Hartree/Particle)
 Thermal correction to Energy=                    0.325951
 Thermal correction to Enthalpy=                  0.326895
 Thermal correction to Gibbs Free Energy=         0.262912
 Sum of electronic and zero-point Energies=          -1106.147896
 Sum of electronic and thermal Energies=             -1106.131032
 Sum of electronic and thermal Enthalpies=           -1106.130088
 Sum of electronic and thermal Free Energies=        -1106.194072

                     E (Thermal)             CV                S
                      KCal/Mol        Cal/Mol-Kelvin    Cal/Mol-Kelvin
 Total                  204.537             64.256            134.665
 Electronic               0.000              0.000              0.000
 Translational            0.889              2.981             42.486
 Rotational               0.889              2.981             33.123
 Vibrational            202.760             58.295             59.056
 Vibration     1          0.593              1.986              6.767
 Vibration     2          0.593              1.984              5.964
 Vibration     3          0.595              1.979              4.976
 Vibration     4          0.596              1.975              4.562
 Vibration     5          0.605              1.944              3.338
 Vibration     6          0.612              1.923              2.944
 Vibration     7          0.616              1.908              2.742
 Vibration     8          0.621              1.894              2.582
 Vibration     9          0.627              1.874              2.387
 Vibration    10          0.644              1.819              2.006
 Vibration    11          0.658              1.776              1.787
 Vibration    12          0.668              1.748              1.669
 Vibration    13          0.677              1.718              1.559
 Vibration    14          0.694              1.670              1.405
 Vibration    15          0.699              1.656              1.365
 Vibration    16          0.707              1.632              1.301
 Vibration    17          0.735              1.553              1.119
 Vibration    18          0.748              1.518              1.048
 Vibration    19          0.776              1.443              0.917
 Vibration    20          0.789              1.411              0.868
 Vibration    21          0.856              1.249              0.657
 Vibration    22          0.872              1.213              0.618
 Vibration    23          0.897              1.157              0.561
 Vibration    24          0.912              1.124              0.530
 Vibration    25          0.935              1.079              0.489
 Vibration    26          0.980              0.990              0.417

                           ! Non-Optimized Parameters !
 Normal termination of Gaussian 16 at Fri Dec 11 13:43:52 2020.

 ----------------------------------------------------------------------
 # B3LYP/6-311++G(d,p) empiricaldispersion=gd3bj scf=xqc pop=npa geom=c
 heck
 ----------------------------------------------------------------------

 ---------------------------------------
 CID_106739549_JID_7908_Energie_neutraal
 ---------------------------------------
 Structure from the checkpoint file:  "JID_7908.chk"
 Charge =  0 Multiplicity = 1

 SCF Done:  E(RB3LYP) =  -1106.68380975     A.U. after   15 cycles
 Normal termination of Gaussian 16 at Fri Dec 11 13:50:10 2020.

 ----------------------------------------------------------------------
 # B3LYP/6-311++G(d,p) empiricaldispersion=gd3bj scf=xqc pop=npa geom=c
 heck
 ----------------------------------------------------------------------

 -------------------------------------
 CID_106739549_JID_7908_Energie_kation
 -------------------------------------
 Structure from the checkpoint file:  "JID_7908.chk"
 Charge =  1 Multiplicity = 2

 SCF Done:  E(UB3LYP) =  -1106.39336562     A.U. after   26 cycles
 Normal termination of Gaussian 16 at Fri Dec 11 14:04:40 2020.
 Gaussian 16:  ES64L-G16RevA.03 25-Dec-2016

 ----------------------------------------------------------------------
 # B3LYP/6-311++G(d,p) empiricaldispersion=gd3bj scf=xqc pop=npa geom=c
 heck
 ----------------------------------------------------------------------

 ------------------------------------
 CID_106739549_JID_7908_Energie_anion
 ------------------------------------
 Structure from the checkpoint file:  "JID_7908.chk"
 Charge = -1 Multiplicity = 2

                         Standard orientation:
 ---------------------------------------------------------------------
 Center     Atomic      Atomic             Coordinates (Angstroms)
 Number     Number       Type             X           Y           Z
 ---------------------------------------------------------------------
      1          6           0       -0.776087   -0.633682    2.134085
      2          6           0       -2.105677   -0.950679    1.446401
      3          6           0       -2.950292    0.310660    1.162451
      4          6           0       -2.711186    0.929303   -0.232540
      5          6           0       -2.971029   -0.122198   -1.343605
      6          6           0       -2.926369   -1.561399   -0.796409
      7          7           0       -1.842221   -1.664983    0.180507
      8          6           0       -1.421320    1.773256   -0.232853
      9          8           0       -1.435467    2.819801    0.408501
     10          7           0       -0.311793    1.456092   -0.981191
     11          6           0        0.193860    0.145324   -1.357660
     12          6           0        1.540777   -0.091176   -0.726454
     13          7           0        2.346928    0.856442   -0.351512
     14          6           0        3.520565    0.356128    0.188984
     15          6           0        3.597764   -1.007234    0.213950
     16         16           0        2.151158   -1.713753   -0.443505
     17          6           0        4.561618    1.313718    0.682191
     18          1           0       -0.169513   -1.539945    2.246840
     19          1           0       -0.950932   -0.213208    3.130552
     20          1           0       -0.191160    0.088047    1.556965
     21          1           0       -2.697934   -1.588092    2.127166
     22          1           0       -4.013512    0.052480    1.227796
     23          1           0       -2.761170    1.069284    1.926939
     24          1           0       -3.460220    1.720240   -0.335340
     25          1           0       -2.258087   -0.002884   -2.163777
     26          1           0       -3.961517    0.056002   -1.776924
     27          1           0       -2.729031   -2.269771   -1.608067
     28          1           0       -3.908833   -1.833198   -0.369808
     29          1           0       -1.616061   -2.636671    0.374763
     30          1           0        0.426295    2.137891   -0.825297
     31          1           0       -0.485786   -0.634179   -1.006130
     32          1           0        0.291499    0.066655   -2.451055
     33          1           0        4.405020   -1.624217    0.582757
     34          1           0        4.898558    1.970489   -0.127928
     35          1           0        4.151864    1.955318    1.470538
     36          1           0        5.429579    0.782415    1.082220
 ---------------------------------------------------------------------

 SCF Done:  E(UB3LYP) =  -1106.67473662     A.U. after   33 cycles
 SCF Done:  E(UB3LYP) =  -1106.67482904     a.u. after    7 cycles

 The electronic state is 2-A.
 Alpha  occ. eigenvalues --  -88.78054 -18.98500 -14.23485 -14.21364 -14.19903
 Alpha  occ. eigenvalues --  -10.17268 -10.13663 -10.11638 -10.11394 -10.10032
 Alpha  occ. eigenvalues --  -10.09817 -10.09561 -10.08815 -10.08348 -10.07554
 Alpha  occ. eigenvalues --  -10.07135 -10.05538  -7.86681  -5.82955  -5.82603
 Alpha  occ. eigenvalues --   -5.82289  -0.93816  -0.87106  -0.82157  -0.81496
 Alpha  occ. eigenvalues --   -0.70086  -0.69861  -0.68969  -0.67505  -0.63253
 Alpha  occ. eigenvalues --   -0.59662  -0.57211  -0.56212  -0.51490  -0.49613
 Alpha  occ. eigenvalues --   -0.48063  -0.44923  -0.43691  -0.42155  -0.40496
 Alpha  occ. eigenvalues --   -0.39045  -0.38164  -0.36432  -0.35267  -0.34265
 Alpha  occ. eigenvalues --   -0.33947  -0.33120  -0.32724  -0.32318  -0.31304
 Alpha  occ. eigenvalues --   -0.30467  -0.30078  -0.29324  -0.28588  -0.27910
 Alpha  occ. eigenvalues --   -0.27171  -0.26501  -0.26350  -0.26075  -0.24045
 Alpha  occ. eigenvalues --   -0.22771  -0.20995  -0.18819  -0.18490  -0.16527
 Alpha  occ. eigenvalues --   -0.15387  -0.14381  -0.12677   0.04075
 Alpha virt. eigenvalues --    0.05508   0.05938   0.07311   0.07654   0.07954
 Alpha virt. eigenvalues --    0.08562   0.09399   0.09644   0.09903   0.10367
 Alpha virt. eigenvalues --    0.10870   0.11041   0.11433   0.11666   0.12424

  Beta  occ. eigenvalues --  -88.78041 -18.98493 -14.23481 -14.21340 -14.19869
  Beta  occ. eigenvalues --  -10.17262 -10.13527 -10.11648 -10.11388 -10.10016
  Beta  occ. eigenvalues --  -10.09739 -10.09530 -10.08813 -10.08336 -10.07545
  Beta  occ. eigenvalues --  -10.07119 -10.05529  -7.86668  -5.82947  -5.82598
  Beta  occ. eigenvalues --   -5.82248  -0.93802  -0.86995  -0.82133  -0.81459
  Beta  occ. eigenvalues --   -0.70043  -0.69768  -0.68877  -0.67465  -0.63209
  Beta  occ. eigenvalues --   -0.59625  -0.57132  -0.56163  -0.51445  -0.49518
  Beta  occ. eigenvalues --   -0.47980  -0.44838  -0.43632  -0.42078  -0.40430
  Beta  occ. eigenvalues --   -0.39009  -0.38062  -0.36377  -0.35187  -0.34213
  Beta  occ. eigenvalues --   -0.33901  -0.33077  -0.32672  -0.32260  -0.31247
  Beta  occ. eigenvalues --   -0.30427  -0.30043  -0.29227  -0.28531  -0.27784
  Beta  occ. eigenvalues --   -0.27149  -0.26452  -0.26300  -0.26021  -0.24003
  Beta  occ. eigenvalues --   -0.22745  -0.20951  -0.18595  -0.18396  -0.16494
  Beta  occ. eigenvalues --   -0.15341  -0.14007  -0.12592
  Beta virt. eigenvalues --    0.06067   0.06552   0.06802   0.07929   0.08062
  Beta virt. eigenvalues --    0.08421   0.08860   0.09491   0.09852   0.10271
  Beta virt. eigenvalues --    0.10688   0.11002   0.11273   0.11541   0.11735

 Mulliken charges and spin densities:
               1          2
     1  C   -0.193842  -0.527337
     2  C    0.080565   0.080496
     3  C    0.228481  -0.798349
     4  C    0.714211  -0.221193
     5  C   -0.632879   0.209238
     6  C    0.786566  -1.193027
     7  N   -0.452434   0.147141
     8  C   -0.470648  -0.047691
     9  O   -0.296115   0.011810
    10  N   -0.086511   0.000371
    11  C   -0.211092   0.017344
    12  C   -0.244444   0.371761
    13  N    0.096074   0.020306
    14  C   -0.755954   0.248829
    15  C    0.149999   0.194776
    16  S    0.284123  -0.547813
    17  C    0.210554  -0.910072
    18  H   -0.141642   0.288059
    19  H    0.142366  -0.029346
    20  H    0.102378   0.131120
    21  H   -0.538722   0.727529
    22  H   -0.012379   0.185740
    23  H    0.162105   0.036080
    24  H    0.133652   0.118430
    25  H    0.245196  -0.068628
    26  H   -0.271593   0.444379
    27  H   -0.408396   0.569512
    28  H   -0.356322   0.499952
    29  H   -0.098908   0.391951
    30  H    0.313591  -0.000042
    31  H    0.782641  -0.502498
    32  H    0.156694   0.038224
    33  H   -0.498526   0.745740
    34  H    0.062668   0.085836
    35  H    0.112357   0.044082
    36  H   -0.093814   0.237293
 Sum of Mulliken charges =  -1.00000   1.00000

 Dipole moment (field-independent basis, Debye):
    X=              2.9952    Y=              2.5696    Z=             -2.4076  Tot=              4.6228
 Quadrupole moment (field-independent basis, Debye-Ang):
   XX=           -193.3992   YY=           -166.3932   ZZ=           -135.2935
   XY=             -5.5788   XZ=              0.9611   YZ=              1.5630

 Summary of Natural Population Analysis:

                                       Natural Population
                Natural  -----------------------------------------------
    Atom  No    Charge         Core      Valence    Rydberg      Total
 -----------------------------------------------------------------------
      C    1   -0.28544      0.99963     2.27941    0.00640     3.28544
      C    2   -0.00740      0.99960     1.99419    0.01361     3.00740
      C    3   -0.19099      0.99959     2.18179    0.00961     3.19099
      C    4   -0.15278      0.99954     2.14095    0.01229     3.15278
      C    5   -0.19436      0.99962     2.18589    0.00885     3.19436
      C    6   -0.08790      0.99962     2.07666    0.01162     3.08790
      N    7   -0.35649      0.99973     2.84130    0.01547     3.85649
      C    8    0.35240      0.99963     1.62488    0.02308     2.64760
      O    9   -0.32964      0.99988     3.32413    0.00563     4.32964
      N   10   -0.31868      0.99966     2.81009    0.00893     3.81868
      C   11   -0.13191      0.99952     2.12184    0.01056     3.13191
      C   12    0.06345      0.99961     1.91985    0.01709     2.93655
      N   13   -0.26004      0.99962     2.74999    0.01044     3.76004
      C   14    0.06124      0.99950     1.92505    0.01420     2.93876
      C   15   -0.20077      0.99945     2.19029    0.01103     3.20077
      S   16    0.19562      4.99943     2.78535    0.01961     7.80438
      C   17   -0.29230      0.99963     2.28774    0.00493     3.29230
      H   18    0.10202      0.00000     0.39697    0.00101     0.39798
      H   19    0.09631      0.00000     0.40295    0.00075     0.40369
      H   20    0.10084      0.00000     0.39771    0.00145     0.39916
      H   21    0.08439      0.00000     0.41375    0.00186     0.41561
      H   22    0.10218      0.00000     0.39640    0.00142     0.39782
      H   23    0.11067      0.00000     0.38814    0.00119     0.38933
      H   24    0.11650      0.00000     0.38235    0.00115     0.38350
      H   25    0.09819      0.00000     0.40047    0.00134     0.40181
      H   26    0.10184      0.00000     0.39717    0.00099     0.39816
      H   27    0.09704      0.00000     0.40186    0.00110     0.40296
      H   28    0.08407      0.00000     0.41313    0.00279     0.41593
      H   29    0.18554      0.00000     0.30937    0.00509     0.31446
      H   30    0.20083      0.00000     0.29644    0.00273     0.29917
      H   31    0.13473      0.00000     0.36273    0.00254     0.36527
      H   32    0.09741      0.00000     0.40137    0.00121     0.40259
      H   33    0.11128      0.00000     0.38729    0.00143     0.38872
      H   34    0.10410      0.00000     0.39461    0.00129     0.39590
      H   35    0.10570      0.00000     0.39316    0.00114     0.39430
      H   36    0.10232      0.00000     0.39683    0.00084     0.39768
 =======================================================================
   * Total *   -0.00000     20.99325    46.77210    0.23464    68.00000

 Normal termination of Gaussian 16 at Fri Dec 11 16:19:25 2020.
