 Gaussian 16, Revision A.03,

 -----------------------------------------------------------
 # opt freq B3LYP/6-31G(d) empiricaldispersion=gd3bj scf=xqc
 -----------------------------------------------------------

 -------------------------------
 CID_145733820_JID_3757_neutraal
 -------------------------------
 Symbolic Z-matrix:
 Charge =  0 Multiplicity = 1

 SCF Done:  E(RB3LYP) =  -1275.96862799     A.U. after   15 cycles
 SCF Done:  E(RB3LYP) =  -1275.97542805     A.U. after   13 cycles
 SCF Done:  E(RB3LYP) =  -1275.97730284     A.U. after   14 cycles
 SCF Done:  E(RB3LYP) =  -1275.97869433     A.U. after   15 cycles
 SCF Done:  E(RB3LYP) =  -1275.97970785     A.U. after   13 cycles
 SCF Done:  E(RB3LYP) =  -1275.98058756     A.U. after   13 cycles
 SCF Done:  E(RB3LYP) =  -1275.98085050     A.U. after   13 cycles
 SCF Done:  E(RB3LYP) =  -1275.98097938     A.U. after   11 cycles
 SCF Done:  E(RB3LYP) =  -1275.98101699     A.U. after   11 cycles
 SCF Done:  E(RB3LYP) =  -1275.98103034     A.U. after   10 cycles
 SCF Done:  E(RB3LYP) =  -1275.98108791     A.U. after    8 cycles
 SCF Done:  E(RB3LYP) =  -1275.98108875     A.U. after   10 cycles
 SCF Done:  E(RB3LYP) =  -1275.98108898     A.U. after    8 cycles
 SCF Done:  E(RB3LYP) =  -1275.98108921     A.U. after    8 cycles
 SCF Done:  E(RB3LYP) =  -1275.98108927     A.U. after    7 cycles
 Optimization completed.
    -- Stationary point found.
 Normal termination of Gaussian 16 at Mon Dec 14 16:34:19 2020.

 --------------------------------------------------------------------
 #N Geom=AllCheck Guess=TCheck SCRF=Check GenChk RB3LYP/6-31G(d) Freq
 --------------------------------------------------------------------

 Structure from the checkpoint file:  "JID_3757.chk"
 -------------------------------
 CID_145733820_JID_3757_neutraal
 -------------------------------
 Charge =  0 Multiplicity = 1

 SCF Done:  E(RB3LYP) =  -1275.98108927     A.U. after    1 cycles

  Exact polarizability: 180.621   2.990 145.444   0.779  10.965  96.491
 Approx polarizability: 242.243   6.557 262.043   3.947  37.962 170.081

                      1                      2                      3
                      A                      A                      A
 Frequencies --     12.3263                34.9466                59.7936
 Red. masses --      5.0529                 4.2759                 6.6828
 Frc consts  --      0.0005                 0.0031                 0.0141
 IR Inten    --      0.7794                 5.6036                 5.7446

                      4                      5                      6
                      A                      A                      A
 Frequencies --     70.6845               110.6589               160.8476
 Red. masses --      4.6288                 4.9732                 7.2527
 Frc consts  --      0.0136                 0.0359                 0.1106
 IR Inten    --      0.9731                 4.2749                 2.1440

                      7                      8                      9
                      A                      A                      A
 Frequencies --    191.5395               252.5579               252.9812
 Red. masses --      4.0536                 1.3385                 1.6769
 Frc consts  --      0.0876                 0.0503                 0.0632
 IR Inten    --      3.5724               158.7497                56.5876

                     10                     11                     12
                      A                      A                      A
 Frequencies --    265.2717               334.0382               356.4685
 Red. masses --      1.6635                 4.5113                 2.2177
 Frc consts  --      0.0690                 0.2966                 0.1660
 IR Inten    --      5.3852                 2.6391                 1.3608

                     13                     14                     15
                      A                      A                      A
 Frequencies --    373.7122               411.9181               426.1744
 Red. masses --      6.6549                 4.1553                 3.1970
 Frc consts  --      0.5476                 0.4154                 0.3421
 IR Inten    --      0.8820                 5.3207                 0.0566

                     16                     17                     18
                      A                      A                      A
 Frequencies --    447.4360               511.9625               526.8705
 Red. masses --      4.4935                 1.8798                 2.8789
 Frc consts  --      0.5300                 0.2903                 0.4709
 IR Inten    --      0.9498                 2.0204                12.8207

                     19                     20                     21
                      A                      A                      A
 Frequencies --    552.4316               569.8629               589.7018
 Red. masses --      3.5239                 2.1323                 5.8210
 Frc consts  --      0.6336                 0.4080                 1.1926
 IR Inten    --     13.5380                 5.7490                19.8309

                     22                     23                     24
                      A                      A                      A
 Frequencies --    654.5479               670.3086               741.3703
 Red. masses --      6.5010                 5.1285                 4.3728
 Frc consts  --      1.6410                 1.3577                 1.4160
 IR Inten    --      0.7030                44.9182                 9.8354

                     25                     26                     27
                      A                      A                      A
 Frequencies --    758.0223               828.8725               847.2950
 Red. masses --      4.6320                 1.2540                 1.9852
 Frc consts  --      1.5681                 0.5076                 0.8397
 IR Inten    --      1.7010                 2.9601                30.3708

                     28                     29                     30
                      A                      A                      A
 Frequencies --    857.4003               867.6906               897.6083
 Red. masses --      3.7977                 2.6382                 1.9666
 Frc consts  --      1.6449                 1.1703                 0.9336
 IR Inten    --     23.3446                96.0736                14.3008

                     31                     32                     33
                      A                      A                      A
 Frequencies --    956.4054               960.4141              1035.8250
 Red. masses --      1.2986                 1.3134                 2.7844
 Frc consts  --      0.6999                 0.7138                 1.7601
 IR Inten    --      0.2356                 2.1435                 0.3232

                     34                     35                     36
                      A                      A                      A
 Frequencies --   1082.9722              1143.4405              1186.6711
 Red. masses --      6.2268                 1.3174                 1.2715
 Frc consts  --      4.3028                 1.0148                 1.0549
 IR Inten    --     53.1286                10.9266                 0.7345

                     37                     38                     39
                      A                      A                      A
 Frequencies --   1202.7220              1215.6055              1220.1534
 Red. masses --      1.1248                 1.1612                 1.3838
 Frc consts  --      0.9586                 1.0110                 1.2138
 IR Inten    --      4.9081                42.2939                14.7836

                     40                     41                     42
                      A                      A                      A
 Frequencies --   1240.1892              1246.5071              1299.5509
 Red. masses --      1.8330                 2.6167                 1.6267
 Frc consts  --      1.6611                 2.3955                 1.6186
 IR Inten    --     71.7347                71.1211               110.3080

                     43                     44                     45
                      A                      A                      A
 Frequencies --   1306.1659              1352.0022              1375.3415
 Red. masses --      2.8709                 1.5177                 3.6434
 Frc consts  --      2.8858                 1.6345                 4.0605
 IR Inten    --    176.8385                 7.7415                33.8304

                     46                     47                     48
                      A                      A                      A
 Frequencies --   1386.3808              1475.1027              1483.8022
 Red. masses --      4.2390                 2.6657                 1.1512
 Frc consts  --      4.8004                 3.4174                 1.4933
 IR Inten    --    177.2066                 1.2571                11.8658

                     49                     50                     51
                      A                      A                      A
 Frequencies --   1500.6693              1521.1998              1536.0190
 Red. masses --      1.1983                 1.0477                 1.0631
 Frc consts  --      1.5899                 1.4284                 1.4779
 IR Inten    --     16.6072                 5.4481                43.1893

                     52                     53                     54
                      A                      A                      A
 Frequencies --   1570.0080              1637.2728              1655.7729
 Red. masses --      2.4588                 6.5772                 1.2255
 Frc consts  --      3.5709                10.3881                 1.9795
 IR Inten    --    105.3410                13.2192               187.5316

                     55                     56                     57
                      A                      A                      A
 Frequencies --   1676.6145              3026.6078              3083.3231
 Red. masses --      5.7110                 1.0347                 1.0593
 Frc consts  --      9.4586                 5.5844                 5.9334
 IR Inten    --     75.9435                54.2568                13.8519

                     58                     59                     60
                      A                      A                      A
 Frequencies --   3085.4574              3140.1839              3159.4239
 Red. masses --      1.1066                 1.1070                 1.0999
 Frc consts  --      6.2071                 6.4316                 6.4685
 IR Inten    --     43.0107                 2.6855                28.8441

                     61                     62                     63
                      A                      A                      A
 Frequencies --   3179.1824              3209.9236              3216.7743
 Red. masses --      1.0890                 1.0891                 1.0930
 Frc consts  --      6.4848                 6.6119                 6.6636
 IR Inten    --     14.3371                 1.9201                 8.9361

                     64                     65                     66
                      A                      A                      A
 Frequencies --   3230.2404              3566.4509              3696.6022
 Red. masses --      1.0922                 1.0450                 1.1048
 Frc consts  --      6.7146                 7.8312                 8.8949
 IR Inten    --     10.8633                71.6502                44.7925

 - Thermochemistry -
 -------------------
 Temperature   298.150 Kelvin.  Pressure   1.00000 Atm.
 Atom     1 has atomic number  6 and mass  12.00000

 Molecular mass:   213.02821 amu.
 Principal axes and moments of inertia in atomic units:
                           1         2         3
     Eigenvalues --  1435.386676347.868617015.93418
           X            0.99991  -0.01328  -0.00186
           Y            0.01320   0.99931  -0.03485
           Z            0.00232   0.03482   0.99939
 This molecule is an asymmetric top.
 Rotational symmetry number  1.
 Warning -- assumption of classical behavior for rotation
           may cause significant error
 Rotational temperatures (Kelvin)      0.06034     0.01364     0.01235
 Rotational constants (GHZ):           1.25732     0.28431     0.25723
 Zero-point vibrational energy     493437.3 (Joules/Mol)
                                  117.93435 (Kcal/Mol)
 Warning -- explicit consideration of  21 degrees of freedom as
           vibrations may cause significant error
 Vibrational temperatures:     17.73    50.28    86.03   101.70   159.21
          (Kelvin)            231.42   275.58   363.37   363.98   381.67
                              480.61   512.88   537.69   592.66   613.17
                              643.76   736.60   758.05   794.83   819.91
                              848.45   941.75   964.42  1066.67  1090.62
                             1192.56  1219.07  1233.61  1248.41  1291.46
                             1376.05  1381.82  1490.32  1558.16  1645.16
                             1707.36  1730.45  1748.99  1755.53  1784.36
                             1793.45  1869.76  1879.28  1945.23  1978.81
                             1994.69  2122.34  2134.86  2159.13  2188.67
                             2209.99  2258.89  2355.67  2382.29  2412.27
                             4354.61  4436.21  4439.28  4518.02  4545.71
                             4574.13  4618.36  4628.22  4647.60  5131.33
                             5318.59

 Zero-point correction=                           0.187940 (Hartree/Particle)
 Thermal correction to Energy=                    0.201480
 Thermal correction to Enthalpy=                  0.202424
 Thermal correction to Gibbs Free Energy=         0.144964
 Sum of electronic and zero-point Energies=          -1275.793149
 Sum of electronic and thermal Energies=             -1275.779609
 Sum of electronic and thermal Enthalpies=           -1275.778665
 Sum of electronic and thermal Free Energies=        -1275.836125

                     E (Thermal)             CV                S
                      KCal/Mol        Cal/Mol-Kelvin    Cal/Mol-Kelvin
 Total                  126.431             49.589            120.935
 Electronic               0.000              0.000              0.000
 Translational            0.889              2.981             41.972
 Rotational               0.889              2.981             32.525
 Vibrational            124.653             43.628             46.438
 Vibration     1          0.593              1.987              7.596
 Vibration     2          0.594              1.983              5.527
 Vibration     3          0.597              1.973              4.464
 Vibration     4          0.598              1.968              4.134
 Vibration     5          0.606              1.941              3.257
 Vibration     6          0.622              1.890              2.540
 Vibration     7          0.634              1.852              2.213
 Vibration     8          0.664              1.758              1.713
 Vibration     9          0.664              1.758              1.710
 Vibration    10          0.671              1.737              1.627
 Vibration    11          0.716              1.608              1.240
 Vibration    12          0.732              1.562              1.137
 Vibration    13          0.745              1.526              1.065
 Vibration    14          0.776              1.444              0.920
 Vibration    15          0.788              1.413              0.871
 Vibration    16          0.807              1.367              0.804
 Vibration    17          0.867              1.223              0.629
 Vibration    18          0.882              1.191              0.594
 Vibration    19          0.908              1.134              0.539
 Vibration    20          0.926              1.096              0.505
 Vibration    21          0.947              1.054              0.468

                           ! Non-Optimized Parameters !
 Normal termination of Gaussian 16 at Mon Dec 14 16:39:28 2020.

 ----------------------------------------------------------------------
 # B3LYP/6-311++G(d,p) empiricaldispersion=gd3bj scf=xqc pop=npa geom=c
 heck
 ----------------------------------------------------------------------

 ---------------------------------------
 CID_145733820_JID_3757_Energie_neutraal
 ---------------------------------------
 Structure from the checkpoint file:  "JID_3757.chk"
 Charge =  0 Multiplicity = 1

 SCF Done:  E(RB3LYP) =  -1276.17200308     A.U. after   16 cycles
 Normal termination of Gaussian 16 at Mon Dec 14 16:42:12 2020.

 ----------------------------------------------------------------------
 # B3LYP/6-311++G(d,p) empiricaldispersion=gd3bj scf=xqc pop=npa geom=c
 heck
 ----------------------------------------------------------------------

 -------------------------------------
 CID_145733820_JID_3757_Energie_kation
 -------------------------------------
 Structure from the checkpoint file:  "JID_3757.chk"
 Charge =  1 Multiplicity = 2

 SCF Done:  E(UB3LYP) =  -1275.88870627     A.U. after   29 cycles
 Normal termination of Gaussian 16 at Mon Dec 14 16:49:04 2020.
 Gaussian 16:  ES64L-G16RevA.03 25-Dec-2016

 ----------------------------------------------------------------------
 # B3LYP/6-311++G(d,p) empiricaldispersion=gd3bj scf=xqc pop=npa geom=c
 heck
 ----------------------------------------------------------------------

 ------------------------------------
 CID_145733820_JID_3757_Energie_anion
 ------------------------------------
 Structure from the checkpoint file:  "JID_3757.chk"
 Charge = -1 Multiplicity = 2

                         Standard orientation:
 ---------------------------------------------------------------------
 Center     Atomic      Atomic             Coordinates (Angstroms)
 Number     Number       Type             X           Y           Z
 ---------------------------------------------------------------------
      1          6           0        4.697331   -1.478459    0.489920
      2          8           0        4.239278   -0.136699    0.488563
      3          6           0        2.949986    0.096549    0.108405
      4          6           0        2.545356    1.439069    0.121117
      5          6           0        1.252351    1.776446   -0.251032
      6          6           0        0.330306    0.795086   -0.645017
      7          6           0        0.746596   -0.538423   -0.654586
      8          6           0        2.044026   -0.895058   -0.282991
      9          6           0       -1.070744    1.170730   -1.029260
     10         16           0       -2.240098    1.253830    0.401481
     11          6           0       -2.974125   -0.375280    0.425560
     12         16           0       -2.866782   -1.543754   -0.754616
     13          7           0       -3.699358   -0.550329    1.549664
     14          1           0        5.736474   -1.440515    0.820960
     15          1           0        4.651220   -1.920564   -0.514003
     16          1           0        4.117009   -2.101290    1.183287
     17          1           0        3.263482    2.194536    0.422864
     18          1           0        0.950150    2.821122   -0.236321
     19          1           0        0.044381   -1.310785   -0.951755
     20          1           0        2.333420   -1.938938   -0.305832
     21          1           0       -1.116334    2.172575   -1.464618
     22          1           0       -1.518478    0.459782   -1.728819
     23          1           0       -3.700277    0.126196    2.301836
     24          1           0       -4.196179   -1.421386    1.673710
 ---------------------------------------------------------------------

 SCF Done:  E(UB3LYP) =  -1276.16667556     A.U. after   33 cycles
 SCF Done:  E(UB3LYP) =  -1276.16667556     a.u. after    1 cycles

 The electronic state is 2-A.
 Alpha  occ. eigenvalues --  -88.73954 -88.66922 -19.05697 -14.22286 -10.13375
 Alpha  occ. eigenvalues --  -10.13201 -10.12578 -10.09502 -10.07734 -10.07487
 Alpha  occ. eigenvalues --  -10.07258 -10.07148 -10.06738  -7.82564  -7.75675
 Alpha  occ. eigenvalues --   -5.78925  -5.78558  -5.78001  -5.72048  -5.71507
 Alpha  occ. eigenvalues --   -5.71267  -0.97328  -0.82719  -0.75918  -0.69721
 Alpha  occ. eigenvalues --   -0.65527  -0.64912  -0.61590  -0.59043  -0.54625
 Alpha  occ. eigenvalues --   -0.51494  -0.48459  -0.45546  -0.43759  -0.42279
 Alpha  occ. eigenvalues --   -0.39398  -0.37427  -0.37233  -0.34842  -0.34094
 Alpha  occ. eigenvalues --   -0.32403  -0.31804  -0.29906  -0.28311  -0.27752
 Alpha  occ. eigenvalues --   -0.26657  -0.26185  -0.26093  -0.23205  -0.22355
 Alpha  occ. eigenvalues --   -0.20551  -0.15779  -0.14061  -0.12023  -0.10783
 Alpha  occ. eigenvalues --   -0.09529   0.04367
 Alpha virt. eigenvalues --    0.05791   0.07120   0.07879   0.08307   0.08548
 Alpha virt. eigenvalues --    0.08968   0.09844   0.10129   0.10542   0.11021
 Alpha virt. eigenvalues --    0.12044   0.12850   0.13442   0.13546   0.14193

  Beta  occ. eigenvalues --  -88.73952 -88.66906 -19.05684 -14.22152 -10.13350
  Beta  occ. eigenvalues --  -10.12642 -10.12535 -10.09473 -10.07729 -10.07478
  Beta  occ. eigenvalues --  -10.07256 -10.07147 -10.06703  -7.82560  -7.75661
  Beta  occ. eigenvalues --   -5.78927  -5.78568  -5.77984  -5.72060  -5.71439
  Beta  occ. eigenvalues --   -5.71256  -0.97296  -0.82230  -0.75880  -0.69608
  Beta  occ. eigenvalues --   -0.65406  -0.64798  -0.61304  -0.58866  -0.54506
  Beta  occ. eigenvalues --   -0.51459  -0.48348  -0.45246  -0.43710  -0.42136
  Beta  occ. eigenvalues --   -0.39359  -0.37378  -0.37199  -0.34795  -0.33969
  Beta  occ. eigenvalues --   -0.32369  -0.31603  -0.29777  -0.28024  -0.27447
  Beta  occ. eigenvalues --   -0.26419  -0.25974  -0.24958  -0.23157  -0.22215
  Beta  occ. eigenvalues --   -0.20384  -0.15711  -0.13680  -0.11822  -0.10221
  Beta  occ. eigenvalues --   -0.09481
  Beta virt. eigenvalues --    0.06768   0.07344   0.07831   0.08301   0.08996
  Beta virt. eigenvalues --    0.09014   0.09505   0.10428   0.10641   0.10770
  Beta virt. eigenvalues --    0.11071   0.12270   0.12858   0.13490   0.13735

 Mulliken charges and spin densities:
               1          2
     1  C    0.734868  -1.057396
     2  O   -0.206376   0.049837
     3  C   -0.946655   0.464307
     4  C   -0.652622   0.087222
     5  C   -0.576512   0.203976
     6  C    1.553317  -0.632956
     7  C    0.597872  -0.646280
     8  C   -0.036719   0.178978
     9  C   -0.118396  -0.198272
    10  S    0.070350  -0.074017
    11  C   -0.018981   0.134265
    12  S   -0.775305   0.134893
    13  N   -0.241991   0.040651
    14  H   -0.705962   0.880863
    15  H   -0.112617   0.261082
    16  H   -0.162184   0.317965
    17  H    0.114353   0.050894
    18  H    0.056400   0.061898
    19  H   -0.166038   0.262271
    20  H    0.046829   0.163478
    21  H    0.257996   0.000257
    22  H    0.110587  -0.007447
    23  H   -0.007347   0.249001
    24  H    0.185135   0.074532
 Sum of Mulliken charges =  -1.00000   1.00000

 Dipole moment (field-independent basis, Debye):
    X=             -1.6850    Y=              4.8457    Z=             -0.6683  Tot=              5.1736
 Quadrupole moment (field-independent basis, Debye-Ang):
   XX=           -180.7661   YY=           -118.0019   ZZ=           -112.9861
   XY=              6.2901   XZ=             -9.0198   YZ=             -2.0075

 Summary of Natural Population Analysis:

                                       Natural Population
                Natural  -----------------------------------------------
    Atom  No    Charge         Core      Valence    Rydberg      Total
 -----------------------------------------------------------------------
      C    1   -0.10095      0.99960     2.09211    0.00924     3.10095
      O    2   -0.27457      0.99986     3.26467    0.01004     4.27457
      C    3    0.16146      0.99939     1.82551    0.01364     2.83854
      C    4   -0.12298      0.99953     2.11470    0.00875     3.12298
      C    5   -0.09041      0.99952     2.08252    0.00837     3.09041
      C    6   -0.04405      0.99949     2.03331    0.01125     3.04405
      C    7   -0.07802      0.99953     2.06928    0.00922     3.07802
      C    8   -0.14489      0.99952     2.13713    0.00823     3.14489
      C    9   -0.25050      0.99954     2.24043    0.01054     3.25050
      S   10    0.10405      4.99947     2.87716    0.01933     7.89595
      C   11    0.04757      0.99971     1.93227    0.02045     2.95243
      S   12   -0.12786      4.99949     3.11329    0.01508     8.12786
      N   13   -0.38088      0.99966     2.86793    0.01329     3.88088
      H   14    0.09465      0.00000     0.40367    0.00168     0.40535
      H   15    0.08367      0.00000     0.41485    0.00148     0.41633
      H   16    0.08595      0.00000     0.41237    0.00168     0.41405
      H   17    0.10249      0.00000     0.39615    0.00136     0.39751
      H   18    0.09686      0.00000     0.40212    0.00102     0.40314
      H   19    0.11502      0.00000     0.38374    0.00124     0.38498
      H   20    0.10592      0.00000     0.39294    0.00115     0.39408
      H   21    0.10275      0.00000     0.39638    0.00087     0.39725
      H   22    0.12664      0.00000     0.37189    0.00147     0.37336
      H   23    0.19141      0.00000     0.30637    0.00222     0.30859
      H   24    0.19670      0.00000     0.30157    0.00173     0.30330
 =======================================================================
   * Total *   -0.00000     20.99431    34.83235    0.17334    56.00000

 Normal termination of Gaussian 16 at Mon Dec 14 16:57:02 2020.
