 Gaussian 16, Revision A.03,

 -----------------------------------------------------------
 # opt freq B3LYP/6-31G(d) empiricaldispersion=gd3bj scf=xqc
 -----------------------------------------------------------

 -------------------------------
 CID_153229664_JID_4228_neutraal
 -------------------------------
 Symbolic Z-matrix:
 Charge =  0 Multiplicity = 1

 SCF Done:  E(RB3LYP) =  -629.715653845     A.U. after   15 cycles
 SCF Done:  E(RB3LYP) =  -629.724877631     A.U. after   12 cycles
 SCF Done:  E(RB3LYP) =  -629.727108937     A.U. after   12 cycles
 SCF Done:  E(RB3LYP) =  -629.727792990     A.U. after   12 cycles
 SCF Done:  E(RB3LYP) =  -629.728489110     A.U. after   12 cycles
 SCF Done:  E(RB3LYP) =  -629.729119871     A.U. after   11 cycles
 SCF Done:  E(RB3LYP) =  -629.729433380     A.U. after   11 cycles
 SCF Done:  E(RB3LYP) =  -629.729542493     A.U. after   10 cycles
 SCF Done:  E(RB3LYP) =  -629.729545785     A.U. after   10 cycles
 SCF Done:  E(RB3LYP) =  -629.729550596     A.U. after    9 cycles
 SCF Done:  E(RB3LYP) =  -629.729551350     A.U. after    7 cycles
 SCF Done:  E(RB3LYP) =  -629.729551485     A.U. after    7 cycles
 Optimization completed.
    -- Stationary point found.
 Normal termination of Gaussian 16 at Thu Dec 10 09:18:17 2020.

 --------------------------------------------------------------------
 #N Geom=AllCheck Guess=TCheck SCRF=Check GenChk RB3LYP/6-31G(d) Freq
 --------------------------------------------------------------------

 Structure from the checkpoint file:  "JID_4228.chk"
 -------------------------------
 CID_153229664_JID_4228_neutraal
 -------------------------------
 Charge =  0 Multiplicity = 1

 SCF Done:  E(RB3LYP) =  -629.729551485     A.U. after    1 cycles

  Exact polarizability: 171.094   4.422 112.308  -3.473  -0.317  67.942
 Approx polarizability: 234.101   5.288 211.607  -9.116   5.793 112.626

                      1                      2                      3
                      A                      A                      A
 Frequencies --     79.5702               133.5667               155.7250
 Red. masses --      4.2184                 3.5982                 2.2603
 Frc consts  --      0.0157                 0.0378                 0.0323
 IR Inten    --      1.0842                 1.0943                 3.5681

                      4                      5                      6
                      A                      A                      A
 Frequencies --    187.3505               220.4599               265.1467
 Red. masses --      1.4479                 3.9054                 3.7718
 Frc consts  --      0.0299                 0.1118                 0.1562
 IR Inten    --      0.6898                 0.7763                 2.3552

                      7                      8                      9
                      A                      A                      A
 Frequencies --    312.0122               345.6874               410.4911
 Red. masses --      6.3185                 4.8624                 4.5813
 Frc consts  --      0.3624                 0.3424                 0.4548
 IR Inten    --      3.3728                 0.3793                 3.6460

                     10                     11                     12
                      A                      A                      A
 Frequencies --    432.6242               464.4896               471.9307
 Red. masses --      4.0195                 3.5363                 4.7925
 Frc consts  --      0.4432                 0.4495                 0.6289
 IR Inten    --      1.3495                 2.4792                 2.1153

                     13                     14                     15
                      A                      A                      A
 Frequencies --    552.9003               576.5655               599.7828
 Red. masses --      5.3016                 4.6810                 5.4936
 Frc consts  --      0.9549                 0.9168                 1.1644
 IR Inten    --      0.2668                 0.5702                 2.9538

                     16                     17                     18
                      A                      A                      A
 Frequencies --    637.2342               677.9292               721.4965
 Red. masses --      5.2741                 6.5865                 4.9187
 Frc consts  --      1.2618                 1.7835                 1.5086
 IR Inten    --      3.1695                 3.7831                13.6582

                     19                     20                     21
                      A                      A                      A
 Frequencies --    750.3807               763.8961               788.2317
 Red. masses --      5.0051                 1.2572                 7.1991
 Frc consts  --      1.6604                 0.4322                 2.6353
 IR Inten    --      0.1747                56.0528                 6.6305

                     22                     23                     24
                      A                      A                      A
 Frequencies --    838.1851               867.6792               885.9010
 Red. masses --      5.6243                 1.5843                 3.7723
 Frc consts  --      2.3281                 0.7028                 1.7443
 IR Inten    --     14.4919                 3.4495                 1.8885

                     25                     26                     27
                      A                      A                      A
 Frequencies --    908.2969               939.0705               959.4387
 Red. masses --      5.2278                 1.4059                 2.6497
 Frc consts  --      2.5411                 0.7305                 1.4371
 IR Inten    --     65.0714                 1.9854                 3.5439

                     28                     29                     30
                      A                      A                      A
 Frequencies --    972.7396               974.0151              1002.4884
 Red. masses --      1.9000                 1.3366                 3.1251
 Frc consts  --      1.0593                 0.7471                 1.8504
 IR Inten    --      1.5154                 0.2289                 5.5889

                     31                     32                     33
                      A                      A                      A
 Frequencies --   1009.9121              1045.0626              1055.1465
 Red. masses --      1.6425                 2.0809                 2.0365
 Frc consts  --      0.9870                 1.3390                 1.3358
 IR Inten    --      1.7183                 1.2379                31.6489

                     34                     35                     36
                      A                      A                      A
 Frequencies --   1076.6556              1083.9905              1102.4311
 Red. masses --      1.8121                 3.2861                 2.9555
 Frc consts  --      1.2376                 2.2750                 2.1163
 IR Inten    --      5.4368                33.2948                73.0529

                     37                     38                     39
                      A                      A                      A
 Frequencies --   1142.0319              1188.1642              1200.0877
 Red. masses --      1.5365                 1.1579                 1.5832
 Frc consts  --      1.1807                 0.9631                 1.3434
 IR Inten    --     14.5811                 3.2294                 1.4978

                     40                     41                     42
                      A                      A                      A
 Frequencies --   1218.2635              1266.2315              1314.1264
 Red. masses --      2.3202                 2.4624                 2.1225
 Frc consts  --      2.0289                 2.3261                 2.1596
 IR Inten    --    113.9004                13.0587                21.1248

                     43                     44                     45
                      A                      A                      A
 Frequencies --   1347.7491              1362.9948              1383.1753
 Red. masses --      3.2049                 2.3453                 3.2066
 Frc consts  --      3.4299                 2.5670                 3.6145
 IR Inten    --      2.8165                15.5404                38.7695

                     46                     47                     48
                      A                      A                      A
 Frequencies --   1406.6949              1443.9192              1504.5433
 Red. masses --      3.9006                 1.4738                 1.0710
 Frc consts  --      4.5475                 1.8104                 1.4284
 IR Inten    --     34.7210                15.9302                 9.0064

                     49                     50                     51
                      A                      A                      A
 Frequencies --   1506.7345              1511.5876              1526.7158
 Red. masses --      1.0642                 2.6362                 2.9340
 Frc consts  --      1.4234                 3.5489                 4.0292
 IR Inten    --      8.7666                61.2554                11.2261

                     52                     53                     54
                      A                      A                      A
 Frequencies --   1656.5290              1664.7559              1675.8189
 Red. masses --      6.7117                 7.0071                 7.3009
 Frc consts  --     10.8513                11.4417                12.0804
 IR Inten    --      4.2690                 6.0178                24.0326

                     55                     56                     57
                      A                      A                      A
 Frequencies --   3050.1083              3102.2087              3158.1092
 Red. masses --      1.0380                 1.1007                 1.1006
 Frc consts  --      5.6895                 6.2412                 6.4675
 IR Inten    --     18.3003                12.2573                 7.4378

                     58                     59                     60
                      A                      A                      A
 Frequencies --   3181.2498              3193.6443              3207.2111
 Red. masses --      1.0915                 1.0863                 1.0904
 Frc consts  --      6.5082                 6.5277                 6.6084
 IR Inten    --      5.7602                 2.5499                13.7332

                     61                     62                     63
                      A                      A                      A
 Frequencies --   3215.7642              3219.6344              3226.4511
 Red. masses --      1.0926                 1.0947                 1.0950
 Frc consts  --      6.6573                 6.6857                 6.7159
 IR Inten    --      8.8844                15.6911                 7.7003

 - Thermochemistry -
 -------------------
 Temperature   298.150 Kelvin.  Pressure   1.00000 Atm.
 Atom     1 has atomic number  6 and mass  12.00000

 Molecular mass:   187.06333 amu.
 Principal axes and moments of inertia in atomic units:
                           1         2         3
     Eigenvalues --   959.266473739.547244309.12654
           X            0.99985   0.01524   0.00776
           Y           -0.01518   0.99986  -0.00755
           Z           -0.00787   0.00743   0.99994
 This molecule is an asymmetric top.
 Rotational symmetry number  1.
 Warning -- assumption of classical behavior for rotation
           may cause significant error
 Rotational temperatures (Kelvin)      0.09029     0.02316     0.02010
 Rotational constants (GHZ):           1.88138     0.48261     0.41882
 Zero-point vibrational energy     467398.9 (Joules/Mol)
                                  111.71101 (Kcal/Mol)
 Warning -- explicit consideration of  15 degrees of freedom as
           vibrations may cause significant error
 Vibrational temperatures:    114.48   192.17   224.05   269.56   317.19
          (Kelvin)            381.49   448.92   497.37   590.61   622.45
                              668.30   679.00   795.50   829.55   862.95
                              916.84   975.39  1038.07  1079.63  1099.08
                             1134.09  1205.96  1248.40  1274.61  1306.84
                             1351.11  1380.42  1399.56  1401.39  1442.36
                             1453.04  1503.61  1518.12  1549.07  1559.62
                             1586.15  1643.13  1709.50  1726.66  1752.81
                             1821.82  1890.73  1939.11  1961.05  1990.08
                             2023.92  2077.48  2164.70  2167.85  2174.84
                             2196.60  2383.38  2395.21  2411.13  4388.43
                             4463.39  4543.81  4577.11  4594.94  4614.46
                             4626.77  4632.34  4642.14

 Zero-point correction=                           0.178023 (Hartree/Particle)
 Thermal correction to Energy=                    0.188292
 Thermal correction to Enthalpy=                  0.189237
 Thermal correction to Gibbs Free Energy=         0.142245
 Sum of electronic and zero-point Energies=           -629.551529
 Sum of electronic and thermal Energies=              -629.541259
 Sum of electronic and thermal Enthalpies=            -629.540315
 Sum of electronic and thermal Free Energies=         -629.587307

                     E (Thermal)             CV                S
                      KCal/Mol        Cal/Mol-Kelvin    Cal/Mol-Kelvin
 Total                  118.155             42.072             98.902
 Electronic               0.000              0.000              0.000
 Translational            0.889              2.981             41.585
 Rotational               0.889              2.981             31.114
 Vibrational            116.378             36.110             26.203
 Vibration     1          0.600              1.963              3.901
 Vibration     2          0.613              1.920              2.894
 Vibration     3          0.620              1.896              2.601
 Vibration     4          0.632              1.857              2.254
 Vibration     5          0.647              1.810              1.955
 Vibration     6          0.671              1.737              1.628
 Vibration     7          0.700              1.651              1.352
 Vibration     8          0.724              1.584              1.186
 Vibration     9          0.775              1.447              0.925
 Vibration    10          0.794              1.399              0.850
 Vibration    11          0.822              1.329              0.753
 Vibration    12          0.829              1.312              0.732
 Vibration    13          0.908              1.133              0.538
 Vibration    14          0.933              1.082              0.492
 Vibration    15          0.958              1.032              0.450

 Optimization completed.
    -- Stationary point found.
 Normal termination of Gaussian 16 at Thu Dec 10 09:23:58 2020.

 ----------------------------------------------------------------------
 # B3LYP/6-311++G(d,p) empiricaldispersion=gd3bj scf=xqc pop=npa geom=c
 heck
 ----------------------------------------------------------------------

 ---------------------------------------
 CID_153229664_JID_4228_Energie_neutraal
 ---------------------------------------
 Structure from the checkpoint file:  "JID_4228.chk"
 Charge =  0 Multiplicity = 1

 SCF Done:  E(RB3LYP) =  -629.891373966     A.U. after   15 cycles
 Normal termination of Gaussian 16 at Thu Dec 10 09:26:16 2020.

 ----------------------------------------------------------------------
 # B3LYP/6-311++G(d,p) empiricaldispersion=gd3bj scf=xqc pop=npa geom=c
 heck
 ----------------------------------------------------------------------

 -------------------------------------
 CID_153229664_JID_4228_Energie_kation
 -------------------------------------
 Structure from the checkpoint file:  "JID_4228.chk"
 Charge =  1 Multiplicity = 2

 SCF Done:  E(UB3LYP) =  -629.590345254     A.U. after   27 cycles
 Normal termination of Gaussian 16 at Thu Dec 10 09:31:57 2020.
 Gaussian 16:  ES64L-G16RevA.03 25-Dec-2016

 ----------------------------------------------------------------------
 # B3LYP/6-311++G(d,p) empiricaldispersion=gd3bj scf=xqc pop=npa geom=c
 heck
 ----------------------------------------------------------------------

 ------------------------------------
 CID_153229664_JID_4228_Energie_anion
 ------------------------------------
 Structure from the checkpoint file:  "JID_4228.chk"
 Charge = -1 Multiplicity = 2

                         Standard orientation:
 ---------------------------------------------------------------------
 Center     Atomic      Atomic             Coordinates (Angstroms)
 Number     Number       Type             X           Y           Z
 ---------------------------------------------------------------------
      1          6           0        3.994260    0.327952    0.885521
      2          6           0        2.690891   -0.095562    0.290109
      3          7           0        2.629223   -1.111638   -0.503125
      4          8           0        1.280383   -1.342734   -0.870974
      5          6           0        0.497032   -0.318975   -0.326670
      6          6           0        1.386411    0.553134    0.564604
      7          6           0        0.722295    1.136473   -0.668630
      8          8           0       -0.512308    1.806021   -0.463887
      9          6           0       -1.464058    0.860473   -0.146257
     10          6           0       -2.801786    1.135398    0.092277
     11          6           0       -3.635827    0.045526    0.370302
     12          6           0       -3.139610   -1.261653    0.416192
     13          6           0       -1.781389   -1.516215    0.195101
     14          6           0       -0.947864   -0.440448   -0.079725
     15          1           0        3.933895    0.317811    1.980868
     16          1           0        4.245489    1.351805    0.583979
     17          1           0        4.793859   -0.345374    0.569159
     18          1           0        1.126816    0.912324    1.557354
     19          1           0        1.296284    1.518396   -1.505467
     20          1           0       -3.180246    2.150525    0.042618
     21          1           0       -4.692713    0.222983    0.546742
     22          1           0       -3.812755   -2.085475    0.631937
     23          1           0       -1.381919   -2.524439    0.236640
 ---------------------------------------------------------------------

 SCF Done:  E(UB3LYP) =  -629.878221729     A.U. after   33 cycles
 SCF Done:  E(UB3LYP) =  -629.878221784     a.u. after    2 cycles

 The electronic state is 2-A.
 Alpha  occ. eigenvalues --  -19.07650 -19.07199 -14.25937 -10.15316 -10.14791
 Alpha  occ. eigenvalues --  -10.13729 -10.12177 -10.10232 -10.08627 -10.08146
 Alpha  occ. eigenvalues --  -10.07841 -10.07788 -10.07617 -10.07426  -1.01507
 Alpha  occ. eigenvalues --   -0.99163  -0.78233  -0.77660  -0.75875  -0.66255
 Alpha  occ. eigenvalues --   -0.65409  -0.63037  -0.56496  -0.54215  -0.51831
 Alpha  occ. eigenvalues --   -0.49839  -0.47304  -0.42792  -0.41625  -0.38961
 Alpha  occ. eigenvalues --   -0.38544  -0.35705  -0.35325  -0.34500  -0.33548
 Alpha  occ. eigenvalues --   -0.32668  -0.31138  -0.30755  -0.29231  -0.28903
 Alpha  occ. eigenvalues --   -0.27419  -0.26305  -0.24898  -0.22629  -0.21504
 Alpha  occ. eigenvalues --   -0.20532  -0.16197  -0.14106  -0.12854   0.04587
 Alpha virt. eigenvalues --    0.06092   0.06906   0.07893   0.08281   0.08696
 Alpha virt. eigenvalues --    0.09033   0.09304   0.09810   0.10903   0.11276
 Alpha virt. eigenvalues --    0.11709   0.13438   0.14111   0.14403   0.15559

  Beta  occ. eigenvalues --  -19.07635 -19.07197 -14.25854 -10.15313 -10.14773
  Beta  occ. eigenvalues --  -10.13734 -10.12155 -10.10204 -10.08572 -10.08081
  Beta  occ. eigenvalues --  -10.07786 -10.07713 -10.07628 -10.07356  -1.01455
  Beta  occ. eigenvalues --   -0.99143  -0.78159  -0.77586  -0.75779  -0.66111
  Beta  occ. eigenvalues --   -0.65316  -0.62918  -0.56397  -0.54122  -0.51777
  Beta  occ. eigenvalues --   -0.49765  -0.47219  -0.42717  -0.41564  -0.38892
  Beta  occ. eigenvalues --   -0.38484  -0.35621  -0.35263  -0.34433  -0.33425
  Beta  occ. eigenvalues --   -0.32585  -0.31053  -0.30700  -0.29146  -0.28818
  Beta  occ. eigenvalues --   -0.27366  -0.26160  -0.24837  -0.22473  -0.21330
  Beta  occ. eigenvalues --   -0.20420  -0.15856  -0.13898  -0.12680
  Beta virt. eigenvalues --    0.06747   0.07436   0.07674   0.08195   0.08916
  Beta virt. eigenvalues --    0.09018   0.09308   0.09704   0.10452   0.11141
  Beta virt. eigenvalues --    0.11837   0.12440   0.13524   0.14076   0.14457

 Mulliken charges and spin densities:
               1          2
     1  C    3.783955  -4.331403
     2  C   -1.683463   1.755196
     3  N   -0.303646   0.075524
     4  O    0.108238  -0.016034
     5  C   -0.445134   0.026058
     6  C    0.020702   0.306526
     7  C    0.556262  -0.908913
     8  O   -0.102930   0.001436
     9  C   -0.267499  -0.019167
    10  C   -0.947411   0.538011
    11  C    0.271216  -0.487500
    12  C    0.100609  -0.473686
    13  C   -0.955564   0.725598
    14  C    1.330402  -0.311573
    15  H   -0.693193   0.874088
    16  H   -0.436166   0.601294
    17  H   -0.193664   0.350088
    18  H   -0.405072   0.666701
    19  H   -0.085514   0.329106
    20  H   -0.078178   0.239763
    21  H   -0.437198   0.589910
    22  H   -0.181349   0.331294
    23  H    0.044596   0.137684
 Sum of Mulliken charges =  -1.00000   1.00000

 Dipole moment (field-independent basis, Debye):
    X=             -3.7479    Y=             -0.7662    Z=             -3.3026  Tot=              5.0538
 Quadrupole moment (field-independent basis, Debye-Ang):
   XX=           -169.8713   YY=           -111.0170   ZZ=           -113.4864
   XY=             -4.5014   XZ=             -9.1351   YZ=             -5.6782

 Summary of Natural Population Analysis:

                                       Natural Population
                Natural  -----------------------------------------------
    Atom  No    Charge         Core      Valence    Rydberg      Total
 -----------------------------------------------------------------------
      C    1   -0.29979      0.99962     2.29388    0.00629     3.29979
      C    2    0.10799      0.99961     1.87607    0.01633     2.89201
      N    3   -0.06340      0.99962     2.55123    0.01254     3.56340
      O    4   -0.20015      0.99986     3.19210    0.00819     4.20015
      C    5    0.12639      0.99939     1.85681    0.01740     2.87361
      C    6   -0.14646      0.99951     2.13491    0.01204     3.14646
      C    7    0.06199      0.99946     1.92468    0.01386     2.93801
      O    8   -0.26519      0.99987     3.25764    0.00768     4.26519
      C    9    0.16480      0.99934     1.82207    0.01379     2.83520
      C   10   -0.12174      0.99951     2.11210    0.01012     3.12174
      C   11   -0.08239      0.99958     2.07292    0.00989     3.08239
      C   12   -0.11926      0.99958     2.10897    0.01071     3.11926
      C   13   -0.07724      0.99953     2.06967    0.00803     3.07724
      C   14   -0.05184      0.99942     2.04349    0.00892     3.05184
      H   15    0.11430      0.00000     0.38012    0.00559     0.38570
      H   16    0.10924      0.00000     0.38900    0.00176     0.39076
      H   17    0.11102      0.00000     0.38746    0.00152     0.38898
      H   18    0.12081      0.00000     0.37735    0.00184     0.37919
      H   19    0.10083      0.00000     0.39776    0.00141     0.39917
      H   20    0.10568      0.00000     0.39321    0.00110     0.39432
      H   21    0.10014      0.00000     0.39853    0.00133     0.39986
      H   22    0.10036      0.00000     0.39872    0.00091     0.39964
      H   23    0.10389      0.00000     0.39476    0.00135     0.39611
 =======================================================================
   * Total *   -0.00000     13.99392    34.83346    0.17262    49.00000

 Normal termination of Gaussian 16 at Thu Dec 10 09:45:21 2020.
