 Gaussian 16, Revision A.03,

 -----------------------------------------------------------
 # opt freq B3LYP/6-31G(d) empiricaldispersion=gd3bj scf=xqc
 -----------------------------------------------------------

 -------------------------------
 CID_154173004_JID_5550_neutraal
 -------------------------------
 Symbolic Z-matrix:
 Charge =  0 Multiplicity = 1

 SCF Done:  E(RB3LYP) =  -620.811557071     A.U. after   15 cycles
 SCF Done:  E(RB3LYP) =  -620.815124736     A.U. after   13 cycles
 SCF Done:  E(RB3LYP) =  -620.814599383     A.U. after   13 cycles
 SCF Done:  E(RB3LYP) =  -620.810920711     A.U. after   13 cycles
 SCF Done:  E(RB3LYP) =  -620.806135355     A.U. after   13 cycles
 SCF Done:  E(RB3LYP) =  -620.815340749     A.U. after    9 cycles
 SCF Done:  E(RB3LYP) =  -620.817836921     A.U. after   13 cycles
 SCF Done:  E(RB3LYP) =  -620.818299819     A.U. after   13 cycles
 SCF Done:  E(RB3LYP) =  -620.818537960     A.U. after   13 cycles
 SCF Done:  E(RB3LYP) =  -620.818921338     A.U. after   12 cycles
 SCF Done:  E(RB3LYP) =  -620.819424809     A.U. after    9 cycles
 SCF Done:  E(RB3LYP) =  -620.819425578     A.U. after    8 cycles
 SCF Done:  E(RB3LYP) =  -620.819425731     A.U. after    7 cycles
 SCF Done:  E(RB3LYP) =  -620.819425758     A.U. after    7 cycles
 Optimization completed.
    -- Stationary point found.
 Normal termination of Gaussian 16 at Thu Dec 10 16:36:39 2020.

 --------------------------------------------------------------------
 #N Geom=AllCheck Guess=TCheck SCRF=Check GenChk RB3LYP/6-31G(d) Freq
 --------------------------------------------------------------------

 Structure from the checkpoint file:  "JID_5550.chk"
 -------------------------------
 CID_154173004_JID_5550_neutraal
 -------------------------------
 Charge =  0 Multiplicity = 1

 SCF Done:  E(RB3LYP) =  -620.819425758     A.U. after    1 cycles

  Exact polarizability: 192.659  -3.856 162.639  -2.086  -1.436  93.499
 Approx polarizability: 268.493 -15.747 268.920  -6.944  -2.636 142.399

                      1                      2                      3
                      A                      A                      A
 Frequencies --     42.4398                47.5449                91.1493
 Red. masses --      3.6469                 2.7366                 3.7036
 Frc consts  --      0.0039                 0.0036                 0.0181
 IR Inten    --      2.7592                 0.1387                 1.1180

                      4                      5                      6
                      A                      A                      A
 Frequencies --    100.0370               150.6263               187.0450
 Red. masses --      3.1719                 1.2843                 1.7016
 Frc consts  --      0.0187                 0.0172                 0.0351
 IR Inten    --      0.4779                 0.2452                 0.5620

                      7                      8                      9
                      A                      A                      A
 Frequencies --    198.7206               228.0683               246.1270
 Red. masses --      1.4402                 1.3487                 1.2926
 Frc consts  --      0.0335                 0.0413                 0.0461
 IR Inten    --      0.5218                 0.6982                 1.1099

                     10                     11                     12
                      A                      A                      A
 Frequencies --    252.7773               260.4877               272.1286
 Red. masses --      3.2704                 1.9711                 2.4567
 Frc consts  --      0.1231                 0.0788                 0.1072
 IR Inten    --      0.4686                 1.5540                 0.6161

                     13                     14                     15
                      A                      A                      A
 Frequencies --    297.3718               308.4274               347.1143
 Red. masses --      2.5257                 1.2048                 2.0915
 Frc consts  --      0.1316                 0.0675                 0.1485
 IR Inten    --      0.7388                 0.1753                 0.5197

                     16                     17                     18
                      A                      A                      A
 Frequencies --    353.7743               367.5985               383.1890
 Red. masses --      1.7557                 2.5136                 2.8432
 Frc consts  --      0.1295                 0.2001                 0.2460
 IR Inten    --      0.2871                 0.8924                 1.7785

                     19                     20                     21
                      A                      A                      A
 Frequencies --    387.1304               394.8569               440.1740
 Red. masses --      2.3198                 2.2220                 3.0560
 Frc consts  --      0.2048                 0.2041                 0.3489
 IR Inten    --      0.3310                 2.0481                 0.9355

                     22                     23                     24
                      A                      A                      A
 Frequencies --    470.3568               517.7676               544.8867
 Red. masses --      2.6418                 3.4231                 3.1999
 Frc consts  --      0.3444                 0.5407                 0.5598
 IR Inten    --      1.5815                 0.9421                 2.2535

                     25                     26                     27
                      A                      A                      A
 Frequencies --    565.3976               573.0961               609.1866
 Red. masses --      3.0668                 3.4910                 3.6197
 Frc consts  --      0.5776                 0.6755                 0.7914
 IR Inten    --      1.3777                19.6061                 6.0455

                     28                     29                     30
                      A                      A                      A
 Frequencies --    633.7945               658.7686               714.0918
 Red. masses --      2.9318                 3.2318                 4.3011
 Frc consts  --      0.6939                 0.8263                 1.2922
 IR Inten    --      0.1601                 4.9893                 8.8595

                     31                     32                     33
                      A                      A                      A
 Frequencies --    766.8479               781.7835               825.6771
 Red. masses --      4.1742                 4.5425                 1.3183
 Frc consts  --      1.4462                 1.6358                 0.5295
 IR Inten    --      3.0750                 0.4264                17.3730

                     34                     35                     36
                      A                      A                      A
 Frequencies --    863.4870               928.3455               943.1703
 Red. masses --      2.7175                 2.8476                 1.7856
 Frc consts  --      1.1938                 1.4459                 0.9359
 IR Inten    --      6.0907                 9.8466                 0.9253

                     37                     38                     39
                      A                      A                      A
 Frequencies --    946.2983               950.3432               973.4862
 Red. masses --      1.9746                 1.3102                 1.2008
 Frc consts  --      1.0418                 0.6972                 0.6705
 IR Inten    --      4.2774                 0.1057                 0.2611

                     40                     41                     42
                      A                      A                      A
 Frequencies --    992.7551              1041.2714              1043.3490
 Red. masses --      2.0768                 1.5477                 1.4839
 Frc consts  --      1.2060                 0.9887                 0.9517
 IR Inten    --     25.8699                 0.3861                 4.0898

                     43                     44                     45
                      A                      A                      A
 Frequencies --   1051.6221              1060.7397              1068.7703
 Red. masses --      1.5478                 1.4581                 1.4976
 Frc consts  --      1.0085                 0.9666                 1.0079
 IR Inten    --      1.8269                 4.7752                 0.5271

                     46                     47                     48
                      A                      A                      A
 Frequencies --   1075.0145              1079.7151              1115.6008
 Red. masses --      1.4812                 1.4723                 3.1019
 Frc consts  --      1.0085                 1.0113                 2.2745
 IR Inten    --      5.8810                 0.2530                 1.3684

                     49                     50                     51
                      A                      A                      A
 Frequencies --   1206.9738              1221.0329              1239.8578
 Red. masses --      2.1766                 1.6473                 2.7108
 Frc consts  --      1.8682                 1.4471                 2.4552
 IR Inten    --     21.5513                14.8136                 5.5199

                     52                     53                     54
                      A                      A                      A
 Frequencies --   1245.8048              1255.3395              1280.5764
 Red. masses --      2.2256                 4.1481                 2.8078
 Frc consts  --      2.0351                 3.8514                 2.7128
 IR Inten    --     26.6537                89.7743                 8.4155

                     55                     56                     57
                      A                      A                      A
 Frequencies --   1292.9558              1325.3206              1405.4922
 Red. masses --      2.5402                 6.2236                 1.4004
 Frc consts  --      2.5020                 6.4408                 1.6299
 IR Inten    --     63.4013                51.2332                23.6975

                     58                     59                     60
                      A                      A                      A
 Frequencies --   1422.8073              1428.9645              1429.3062
 Red. masses --      2.8146                 1.2317                 1.2133
 Frc consts  --      3.3570                 1.4818                 1.4603
 IR Inten    --      8.5421                 7.5690                 2.2915

                     61                     62                     63
                      A                      A                      A
 Frequencies --   1443.4848              1447.8417              1465.1344
 Red. masses --      1.2085                 1.2380                 1.2067
 Frc consts  --      1.4836                 1.5290                 1.5262
 IR Inten    --      2.7156                 8.8405                 7.0257

                     64                     65                     66
                      A                      A                      A
 Frequencies --   1487.1074              1503.1148              1503.4457
 Red. masses --      2.0974                 1.0983                 1.0566
 Frc consts  --      2.7328                 1.4620                 1.4071
 IR Inten    --     24.6666                 0.6483                14.0258

                     67                     68                     69
                      A                      A                      A
 Frequencies --   1510.8264              1511.6244              1518.4980
 Red. masses --      1.0663                 1.0534                 1.0749
 Frc consts  --      1.4340                 1.4182                 1.4604
 IR Inten    --      0.4155                 8.5289                 4.6199

                     70                     71                     72
                      A                      A                      A
 Frequencies --   1523.9609              1528.5973              1529.6752
 Red. masses --      1.1314                 1.0674                 1.0853
 Frc consts  --      1.5482                 1.4695                 1.4963
 IR Inten    --      9.5474                 3.4159                 0.6899

                     73                     74                     75
                      A                      A                      A
 Frequencies --   1539.5543              1553.5378              1559.6214
 Red. masses --      1.0594                 1.0615                 1.0522
 Frc consts  --      1.4794                 1.5094                 1.5080
 IR Inten    --      0.2169                16.4282                 8.8445

                     76                     77                     78
                      A                      A                      A
 Frequencies --   1581.6906              1613.3365              1641.8555
 Red. masses --      1.0606                 4.3949                 5.9514
 Frc consts  --      1.5634                 6.7399                 9.4524
 IR Inten    --      5.3722                 7.9149                51.6362

                     79                     80                     81
                      A                      A                      A
 Frequencies --   1768.2130              3048.5951              3056.3425
 Red. masses --     10.3640                 1.0373                 1.0386
 Frc consts  --     19.0917                 5.6800                 5.7163
 IR Inten    --    166.8535                28.8670                 3.1422

                     82                     83                     84
                      A                      A                      A
 Frequencies --   3061.0898              3065.1815              3071.3174
 Red. masses --      1.0434                 1.0384                 1.0438
 Frc consts  --      5.7601                 5.7482                 5.8011
 IR Inten    --      4.3012                26.9857                41.9141

                     85                     86                     87
                      A                      A                      A
 Frequencies --   3094.2124              3112.1400              3115.3379
 Red. masses --      1.0397                 1.1005                 1.1026
 Frc consts  --      5.8647                 6.2797                 6.3047
 IR Inten    --     12.2980                24.6668                 5.2416

                     88                     89                     90
                      A                      A                      A
 Frequencies --   3119.1752              3120.3779              3127.8735
 Red. masses --      1.0989                 1.1013                 1.1009
 Frc consts  --      6.2995                 6.3181                 6.3461
 IR Inten    --     10.6934                27.4482                65.8532

                     91                     92                     93
                      A                      A                      A
 Frequencies --   3129.7408              3147.6876              3153.3174
 Red. masses --      1.1007                 1.1002                 1.0983
 Frc consts  --      6.3525                 6.4226                 6.4345
 IR Inten    --     36.7879                15.4873                12.2116

                     94                     95                     96
                      A                      A                      A
 Frequencies --   3169.1178              3181.5410              3182.7741
 Red. masses --      1.1020                 1.1011                 1.0890
 Frc consts  --      6.5209                 6.5667                 6.4999
 IR Inten    --     13.9117                20.4810                17.0347

                     97                     98                     99
                      A                      A                      A
 Frequencies --   3194.9398              3212.0441              3227.8117
 Red. masses --      1.0927                 1.0908                 1.0916
 Frc consts  --      6.5718                 6.6306                 6.7009
 IR Inten    --     23.5656                19.3709                13.3665

 - Thermochemistry -
 -------------------
 Temperature   298.150 Kelvin.  Pressure   1.00000 Atm.
 Atom     1 has atomic number  6 and mass  12.00000

 Molecular mass:   204.15142 amu.
 Principal axes and moments of inertia in atomic units:
                           1         2         3
     Eigenvalues --  1823.317024170.688075465.86875
           X            0.99980   0.01981   0.00292
           Y           -0.01980   0.99980  -0.00421
           Z           -0.00300   0.00415   0.99999
 This molecule is an asymmetric top.
 Rotational symmetry number  1.
 Warning -- assumption of classical behavior for rotation
           may cause significant error
 Rotational temperatures (Kelvin)      0.04750     0.02077     0.01585
 Rotational constants (GHZ):           0.98981     0.43272     0.33018
 Zero-point vibrational energy     811837.2 (Joules/Mol)
                                  194.03375 (Kcal/Mol)
 Warning -- explicit consideration of  27 degrees of freedom as
           vibrations may cause significant error
 Vibrational temperatures:     61.06    68.41   131.14   143.93   216.72
          (Kelvin)            269.12   285.91   328.14   354.12   363.69
                              374.78   391.53   427.85   443.76   499.42
                              509.00   528.89   551.32   556.99   568.11
                              633.31   676.74   744.95   783.97   813.48
                              824.56   876.48   911.89   947.82  1027.42
                             1103.32  1124.81  1187.97  1242.37  1335.68
                             1357.01  1361.51  1367.33  1400.63  1428.35
                             1498.16  1501.15  1513.05  1526.17  1537.72
                             1546.71  1553.47  1605.10  1736.57  1756.79
                             1783.88  1792.44  1806.15  1842.46  1860.27
                             1906.84  2022.19  2047.10  2055.96  2056.45
                             2076.85  2083.12  2108.00  2139.62  2162.65
                             2163.12  2173.74  2174.89  2184.78  2192.64
                             2199.31  2200.86  2215.08  2235.19  2243.95
                             2275.70  2321.23  2362.26  2544.06  4386.25
                             4397.40  4404.23  4410.11  4418.94  4451.88
                             4477.68  4482.28  4487.80  4489.53  4500.31
                             4503.00  4528.82  4536.92  4559.65  4577.53
                             4579.30  4596.81  4621.42  4644.10

 Zero-point correction=                           0.309212 (Hartree/Particle)
 Thermal correction to Energy=                    0.325116
 Thermal correction to Enthalpy=                  0.326060
 Thermal correction to Gibbs Free Energy=         0.267237
 Sum of electronic and zero-point Energies=           -620.510213
 Sum of electronic and thermal Energies=              -620.494310
 Sum of electronic and thermal Enthalpies=            -620.493366
 Sum of electronic and thermal Free Energies=         -620.552188

                     E (Thermal)             CV                S
                      KCal/Mol        Cal/Mol-Kelvin    Cal/Mol-Kelvin
 Total                  204.013             62.314            123.802
 Electronic               0.000              0.000              0.000
 Translational            0.889              2.981             41.845
 Rotational               0.889              2.981             32.097
 Vibrational            202.236             56.352             49.860
 Vibration     1          0.595              1.980              5.142
 Vibration     2          0.595              1.979              4.917
 Vibration     3          0.602              1.955              3.635
 Vibration     4          0.604              1.949              3.454
 Vibration     5          0.618              1.902              2.664
 Vibration     6          0.632              1.858              2.257
 Vibration     7          0.637              1.842              2.145
 Vibration     8          0.651              1.798              1.894
 Vibration     9          0.661              1.769              1.758
 Vibration    10          0.664              1.758              1.711
 Vibration    11          0.669              1.745              1.658
 Vibration    12          0.675              1.725              1.583
 Vibration    13          0.691              1.679              1.432
 Vibration    14          0.698              1.658              1.371
 Vibration    15          0.725              1.581              1.179
 Vibration    16          0.730              1.568              1.149
 Vibration    17          0.740              1.539              1.090
 Vibration    18          0.752              1.506              1.027
 Vibration    19          0.756              1.498              1.011
 Vibration    20          0.762              1.481              0.982
 Vibration    21          0.800              1.383              0.826
 Vibration    22          0.827              1.316              0.737
 Vibration    23          0.873              1.211              0.615
 Vibration    24          0.900              1.151              0.555
 Vibration    25          0.921              1.106              0.513
 Vibration    26          0.929              1.089              0.498
 Vibration    27          0.968              1.012              0.434

                           ! Non-Optimized Parameters !
 Normal termination of Gaussian 16 at Thu Dec 10 16:48:54 2020.

 ----------------------------------------------------------------------
 # B3LYP/6-311++G(d,p) empiricaldispersion=gd3bj scf=xqc pop=npa geom=c
 heck
 ----------------------------------------------------------------------

 ---------------------------------------
 CID_154173004_JID_5550_Energie_neutraal
 ---------------------------------------
 Structure from the checkpoint file:  "JID_5550.chk"
 Charge =  0 Multiplicity = 1

 SCF Done:  E(RB3LYP) =  -620.985760778     A.U. after   15 cycles
 Normal termination of Gaussian 16 at Thu Dec 10 16:54:39 2020.

 ----------------------------------------------------------------------
 # B3LYP/6-311++G(d,p) empiricaldispersion=gd3bj scf=xqc pop=npa geom=c
 heck
 ----------------------------------------------------------------------

 -------------------------------------
 CID_154173004_JID_5550_Energie_kation
 -------------------------------------
 Structure from the checkpoint file:  "JID_5550.chk"
 Charge =  1 Multiplicity = 2

 SCF Done:  E(UB3LYP) =  -620.677695104     A.U. after   33 cycles
 SCF Done:  E(UB3LYP) =  -620.677695104     a.u. after    1 cycles
 Normal termination of Gaussian 16 at Thu Dec 10 17:18:02 2020.
 Gaussian 16:  ES64L-G16RevA.03 25-Dec-2016

 ----------------------------------------------------------------------
 # B3LYP/6-311++G(d,p) empiricaldispersion=gd3bj scf=xqc pop=npa geom=c
 heck
 ----------------------------------------------------------------------

 ------------------------------------
 CID_154173004_JID_5550_Energie_anion
 ------------------------------------
 Structure from the checkpoint file:  "JID_5550.chk"
 Charge = -1 Multiplicity = 2

                         Standard orientation:
 ---------------------------------------------------------------------
 Center     Atomic      Atomic             Coordinates (Angstroms)
 Number     Number       Type             X           Y           Z
 ---------------------------------------------------------------------
      1          6           0       -2.058806    2.438994    0.285932
      2          6           0       -0.837234    1.564764    0.064243
      3          6           0       -0.820553    0.142693    0.055759
      4          6           0        0.445290   -0.499042    0.176743
      5          6           0        1.643175    0.241634   -0.014858
      6          6           0        1.578493    1.630408   -0.163373
      7          6           0        0.362383    2.275151   -0.062055
      8          6           0        2.985483   -0.414701   -0.104718
      9          8           0        3.123678   -1.615030   -0.296347
     10          6           0        4.229696    0.459745    0.016728
     11          6           0        0.581547   -1.934470    0.652190
     12          6           0       -2.138542   -0.683913   -0.103313
     13          6           0       -1.908109   -2.002193   -0.892144
     14          6           0       -2.771443   -0.997428    1.269113
     15          6           0       -3.190796    0.064834   -0.966432
     16          1           0       -2.601950    2.660012   -0.638132
     17          1           0       -2.765646    2.001742    0.993739
     18          1           0       -1.733471    3.396433    0.704190
     19          1           0        2.479409    2.212411   -0.317713
     20          1           0        0.326801    3.361144   -0.081978
     21          1           0        4.345061    1.103281   -0.863627
     22          1           0        4.188912    1.109198    0.897456
     23          1           0        5.097758   -0.198244    0.080179
     24          1           0       -0.291883   -2.243677    1.223567
     25          1           0        0.750050   -2.645155   -0.159982
     26          1           0        1.449839   -2.018570    1.306734
     27          1           0       -1.397850   -2.779289   -0.330736
     28          1           0       -2.878983   -2.414261   -1.184895
     29          1           0       -1.336539   -1.811407   -1.807060
     30          1           0       -3.007949   -0.078242    1.815615
     31          1           0       -3.704215   -1.559335    1.137376
     32          1           0       -2.107381   -1.594297    1.901022
     33          1           0       -3.710501    0.857888   -0.434033
     34          1           0       -2.736405    0.488935   -1.868422
     35          1           0       -3.957987   -0.647192   -1.285410
 ---------------------------------------------------------------------

 SCF Done:  E(UB3LYP) =  -620.986818025     A.U. after   33 cycles
 SCF Done:  E(UB3LYP) =  -620.986818025     a.u. after    1 cycles

 The electronic state is 2-A.
 Alpha  occ. eigenvalues --  -18.91369 -10.07743 -10.06237 -10.05400 -10.04660
 Alpha  occ. eigenvalues --  -10.04248 -10.04228 -10.03933 -10.03171 -10.02508
 Alpha  occ. eigenvalues --  -10.02237 -10.01895 -10.01815 -10.01509 -10.00798
 Alpha  occ. eigenvalues --   -0.85679  -0.72423  -0.68910  -0.64232  -0.61516
 Alpha  occ. eigenvalues --   -0.58504  -0.58088  -0.56989  -0.55864  -0.53351
 Alpha  occ. eigenvalues --   -0.46949  -0.44412  -0.42414  -0.38267  -0.34936
 Alpha  occ. eigenvalues --   -0.33905  -0.33699  -0.32715  -0.31281  -0.30539
 Alpha  occ. eigenvalues --   -0.29639  -0.29044  -0.28604  -0.27726  -0.27212
 Alpha  occ. eigenvalues --   -0.26527  -0.26233  -0.25715  -0.24668  -0.24445
 Alpha  occ. eigenvalues --   -0.23924  -0.23030  -0.22455  -0.20729  -0.20509
 Alpha  occ. eigenvalues --   -0.19689  -0.18959  -0.17661  -0.10007  -0.09377
 Alpha  occ. eigenvalues --   -0.07606   0.05393
 Alpha virt. eigenvalues --    0.07337   0.08713   0.09287   0.09474   0.10373
 Alpha virt. eigenvalues --    0.10772   0.11453   0.11923   0.12179   0.12465
 Alpha virt. eigenvalues --    0.13027   0.13263   0.13562   0.14268   0.14417

  Beta  occ. eigenvalues --  -18.90834 -10.07737 -10.05917 -10.05404 -10.04659
  Beta  occ. eigenvalues --  -10.04277 -10.04222 -10.04010 -10.02975 -10.02267
  Beta  occ. eigenvalues --  -10.02129 -10.01970 -10.01830 -10.01361 -10.00688
  Beta  occ. eigenvalues --   -0.84708  -0.72234  -0.68729  -0.63838  -0.61210
  Beta  occ. eigenvalues --   -0.58278  -0.58069  -0.56961  -0.55819  -0.53219
  Beta  occ. eigenvalues --   -0.46735  -0.43775  -0.42301  -0.37933  -0.34856
  Beta  occ. eigenvalues --   -0.33734  -0.33589  -0.32541  -0.31161  -0.30306
  Beta  occ. eigenvalues --   -0.29390  -0.28615  -0.28250  -0.27673  -0.27069
  Beta  occ. eigenvalues --   -0.26491  -0.26112  -0.25528  -0.24543  -0.24350
  Beta  occ. eigenvalues --   -0.23794  -0.22806  -0.22401  -0.20373  -0.19844
  Beta  occ. eigenvalues --   -0.19453  -0.18005  -0.16557  -0.09137  -0.07923
  Beta  occ. eigenvalues --   -0.07117
  Beta virt. eigenvalues --    0.07282   0.08687   0.09298   0.09337   0.10268
  Beta virt. eigenvalues --    0.10657   0.11100   0.11641   0.11909   0.12458
  Beta virt. eigenvalues --    0.12528   0.13060   0.13411   0.13574   0.14165

 Mulliken charges and spin densities:
               1          2
     1  C   -0.366602  -0.328775
     2  C    0.747437   0.170879
     3  C   -0.168218   0.003562
     4  C    0.175436   0.219027
     5  C    1.366368   0.006921
     6  C   -1.266793   0.359762
     7  C   -0.383497  -0.251699
     8  C   -0.026210   0.030837
     9  O   -0.363968   0.185410
    10  C   -0.682934  -0.010989
    11  C   -0.809411   0.044315
    12  C    0.537076   0.309001
    13  C   -0.653771  -0.044712
    14  C   -0.735832  -0.018698
    15  C   -0.464557  -0.198762
    16  H   -0.036585   0.200980
    17  H    0.128813  -0.020084
    18  H    0.150689  -0.020622
    19  H    0.066192   0.006916
    20  H    0.065569   0.048229
    21  H    0.049238   0.091921
    22  H    0.121396  -0.001443
    23  H    0.149379  -0.002084
    24  H    0.050167   0.007115
    25  H    0.192143   0.004766
    26  H    0.181247   0.002466
    27  H    0.126319   0.011146
    28  H    0.083270   0.019684
    29  H    0.137413   0.026491
    30  H    0.124595   0.008411
    31  H    0.130299   0.003404
    32  H    0.126623   0.001084
    33  H    0.067968   0.051589
    34  H    0.126057   0.026244
    35  H    0.054685   0.057710
 Sum of Mulliken charges =  -1.00000   1.00000

 Dipole moment (field-independent basis, Debye):
    X=             -5.4236    Y=              0.7108    Z=              1.6599  Tot=              5.7163
 Quadrupole moment (field-independent basis, Debye-Ang):
   XX=           -139.5309   YY=           -118.0664   ZZ=           -106.0755
   XY=             11.2974   XZ=              0.6460   YZ=              0.6789

 Summary of Natural Population Analysis:

                                       Natural Population
                Natural  -----------------------------------------------
    Atom  No    Charge         Core      Valence    Rydberg      Total
 -----------------------------------------------------------------------
      C    1   -0.29595      0.99965     2.29066    0.00564     3.29595
      C    2    0.04715      0.99948     1.94387    0.00950     2.95285
      C    3   -0.03684      0.99942     2.02680    0.01061     3.03684
      C    4    0.04967      0.99947     1.94264    0.00822     2.95033
      C    5   -0.05487      0.99944     2.04504    0.01039     3.05487
      C    6   -0.06111      0.99953     2.05158    0.00999     3.06111
      C    7   -0.13304      0.99953     2.12375    0.00977     3.13304
      C    8    0.30554      0.99965     1.67365    0.02116     2.69446
      O    9   -0.25684      0.99988     3.25044    0.00653     4.25684
      C   10   -0.33196      0.99964     2.32708    0.00524     3.33196
      C   11   -0.29821      0.99964     2.29340    0.00517     3.29821
      C   12   -0.04806      0.99958     2.03924    0.00924     3.04806
      C   13   -0.28261      0.99964     2.27702    0.00594     3.28261
      C   14   -0.28059      0.99963     2.27523    0.00573     3.28059
      C   15   -0.28238      0.99964     2.27690    0.00584     3.28238
      H   16    0.10239      0.00000     0.39633    0.00128     0.39761
      H   17    0.09440      0.00000     0.40476    0.00084     0.40560
      H   18    0.09718      0.00000     0.40204    0.00078     0.40282
      H   19    0.09174      0.00000     0.40649    0.00177     0.40826
      H   20    0.08862      0.00000     0.41033    0.00105     0.41138
      H   21    0.10050      0.00000     0.39760    0.00191     0.39950
      H   22    0.09830      0.00000     0.40071    0.00099     0.40170
      H   23    0.10049      0.00000     0.39722    0.00229     0.39951
      H   24    0.08538      0.00000     0.41364    0.00098     0.41462
      H   25    0.10907      0.00000     0.38983    0.00110     0.39093
      H   26    0.11293      0.00000     0.38620    0.00087     0.38707
      H   27    0.10334      0.00000     0.39571    0.00094     0.39666
      H   28    0.08918      0.00000     0.40979    0.00102     0.41082
      H   29    0.10469      0.00000     0.39450    0.00082     0.39531
      H   30    0.09712      0.00000     0.40207    0.00081     0.40288
      H   31    0.09001      0.00000     0.40905    0.00094     0.40999
      H   32    0.09957      0.00000     0.39966    0.00077     0.40043
      H   33    0.09978      0.00000     0.39933    0.00089     0.40022
      H   34    0.10393      0.00000     0.39525    0.00082     0.39607
      H   35    0.09149      0.00000     0.40761    0.00091     0.40851
 =======================================================================
   * Total *    0.00000     14.99382    40.85542    0.15076    56.00000

 Normal termination of Gaussian 16 at Thu Dec 10 17:33:50 2020.
