 Gaussian 16, Revision A.03,

 -----------------------------------------------------------
 # opt freq B3LYP/6-31G(d) empiricaldispersion=gd3bj scf=xqc
 -----------------------------------------------------------

 ------------------------------
 CID_62334991_JID_8811_neutraal
 ------------------------------
 Symbolic Z-matrix:
 Charge =  0 Multiplicity = 1

 SCF Done:  E(RB3LYP) =  -805.502274266     A.U. after   15 cycles
 SCF Done:  E(RB3LYP) =  -805.506316787     A.U. after   13 cycles
 SCF Done:  E(RB3LYP) =  -805.502916723     A.U. after   14 cycles
 SCF Done:  E(RB3LYP) =  -805.507092756     A.U. after   12 cycles
 SCF Done:  E(RB3LYP) =  -805.508200706     A.U. after   12 cycles
 SCF Done:  E(RB3LYP) =  -805.509128151     A.U. after   13 cycles
 SCF Done:  E(RB3LYP) =  -805.509592331     A.U. after   12 cycles
 SCF Done:  E(RB3LYP) =  -805.510190011     A.U. after   11 cycles
 SCF Done:  E(RB3LYP) =  -805.510335304     A.U. after   12 cycles
 SCF Done:  E(RB3LYP) =  -805.510528316     A.U. after   11 cycles
 SCF Done:  E(RB3LYP) =  -805.510893851     A.U. after    8 cycles
 SCF Done:  E(RB3LYP) =  -805.510893971     A.U. after    8 cycles
 SCF Done:  E(RB3LYP) =  -805.510893965     A.U. after    8 cycles
 SCF Done:  E(RB3LYP) =  -805.510893942     A.U. after    8 cycles
 SCF Done:  E(RB3LYP) =  -805.510893930     A.U. after    7 cycles
 Optimization completed.
    -- Stationary point found.
 Normal termination of Gaussian 16 at Fri Dec 11 22:24:04 2020.

 --------------------------------------------------------------------
 #N Geom=AllCheck Guess=TCheck SCRF=Check GenChk RB3LYP/6-31G(d) Freq
 --------------------------------------------------------------------

 Structure from the checkpoint file:  "JID_8811.chk"
 ------------------------------
 CID_62334991_JID_8811_neutraal
 ------------------------------
 Charge =  0 Multiplicity = 1

 SCF Done:  E(RB3LYP) =  -805.510893929     A.U. after    1 cycles

  Exact polarizability: 230.728  35.206 128.084  -5.309   3.214 139.529
 Approx polarizability: 311.968  60.066 184.958 -16.530   7.538 238.786

                      1                      2                      3
                      A                      A                      A
 Frequencies --     14.1843                22.4293                36.6997
 Red. masses --      3.8004                 5.8671                 4.5636
 Frc consts  --      0.0005                 0.0017                 0.0036
 IR Inten    --      0.2818                 0.8070                 2.4384

                      4                      5                      6
                      A                      A                      A
 Frequencies --     43.8822                77.7716                99.0191
 Red. masses --      3.8994                 6.1275                 3.6672
 Frc consts  --      0.0044                 0.0218                 0.0212
 IR Inten    --      0.7820                 0.9095                 1.0004

                      7                      8                      9
                      A                      A                      A
 Frequencies --    120.2108               144.5273               153.5493
 Red. masses --      5.2398                 5.3513                 3.0620
 Frc consts  --      0.0446                 0.0659                 0.0425
 IR Inten    --      1.8957                 6.9960                 2.7412

                     10                     11                     12
                      A                      A                      A
 Frequencies --    192.9083               213.3382               227.5237
 Red. masses --      3.7689                 2.4185                 1.9058
 Frc consts  --      0.0826                 0.0649                 0.0581
 IR Inten    --      2.5143                 1.0860                 0.4995

                     13                     14                     15
                      A                      A                      A
 Frequencies --    245.5668               250.1596               270.5200
 Red. masses --      1.3683                 1.4051                 2.3260
 Frc consts  --      0.0486                 0.0518                 0.1003
 IR Inten    --      1.4724                 0.1438                 2.9802

                     16                     17                     18
                      A                      A                      A
 Frequencies --    276.6746               315.8307               362.7692
 Red. masses --      4.8600                 2.4630                 4.3043
 Frc consts  --      0.2192                 0.1448                 0.3337
 IR Inten    --      0.7457                 4.5038                 0.4212

                     19                     20                     21
                      A                      A                      A
 Frequencies --    411.5651               414.3123               419.6662
 Red. masses --      2.3496                 2.8161                 3.1234
 Frc consts  --      0.2345                 0.2848                 0.3241
 IR Inten    --      1.5962                 3.9763                 0.2638

                     22                     23                     24
                      A                      A                      A
 Frequencies --    431.6920               461.6794               485.5327
 Red. masses --      2.9231                 2.0810                 5.1273
 Frc consts  --      0.3210                 0.2613                 0.7122
 IR Inten    --      7.0143                 2.6763                 0.2924

                     25                     26                     27
                      A                      A                      A
 Frequencies --    510.6426               534.0140               562.2368
 Red. masses --      3.5252                 2.9324                 6.3312
 Frc consts  --      0.5416                 0.4927                 1.1792
 IR Inten    --      8.7195                 5.7342                 1.0408

                     28                     29                     30
                      A                      A                      A
 Frequencies --    566.6962               571.5947               642.8740
 Red. masses --      3.1399                 1.0559                 2.6725
 Frc consts  --      0.5941                 0.2033                 0.6508
 IR Inten    --     17.6353                45.3474                 1.6173

                     31                     32                     33
                      A                      A                      A
 Frequencies --    661.3904               720.8274               726.5244
 Red. masses --      6.9564                 4.0692                 4.1550
 Frc consts  --      1.7929                 1.2457                 1.2922
 IR Inten    --      0.0727                10.9913                 1.0120

                     34                     35                     36
                      A                      A                      A
 Frequencies --    770.2510               816.4521               826.5547
 Red. masses --      3.2900                 2.4431                 1.4348
 Frc consts  --      1.1500                 0.9595                 0.5775
 IR Inten    --      6.8979                13.1756                 4.3350

                     37                     38                     39
                      A                      A                      A
 Frequencies --    848.9645               852.8699               882.2122
 Red. masses --      2.2902                 2.3391                 2.1440
 Frc consts  --      0.9725                 1.0024                 0.9832
 IR Inten    --     32.1254                20.4623                 1.6877

                     40                     41                     42
                      A                      A                      A
 Frequencies --    891.7343               925.6784               953.1753
 Red. masses --      2.5657                 1.7272                 1.3211
 Frc consts  --      1.2021                 0.8720                 0.7072
 IR Inten    --      5.4289                 4.7670                 0.6842

                     43                     44                     45
                      A                      A                      A
 Frequencies --    968.5777               969.7591               973.1671
 Red. masses --      2.0277                 1.3080                 2.0319
 Frc consts  --      1.1208                 0.7247                 1.1338
 IR Inten    --     41.9323                 1.1533                13.6616

                     46                     47                     48
                      A                      A                      A
 Frequencies --   1034.3335              1039.9623              1069.7894
 Red. masses --      2.6580                 1.9646                 2.9405
 Frc consts  --      1.6754                 1.2519                 1.9828
 IR Inten    --      0.4822                33.4495                27.5833

                     49                     50                     51
                      A                      A                      A
 Frequencies --   1090.4988              1092.9485              1117.6851
 Red. masses --      2.3306                 2.1565                 1.7818
 Frc consts  --      1.6330                 1.5178                 1.3114
 IR Inten    --     13.8368                59.1958                19.7593

                     52                     53                     54
                      A                      A                      A
 Frequencies --   1125.2572              1148.8899              1163.9029
 Red. masses --      2.1217                 1.2986                 1.6997
 Frc consts  --      1.5829                 1.0099                 1.3566
 IR Inten    --     35.6792                 7.7998                20.4282

                     55                     56                     57
                      A                      A                      A
 Frequencies --   1171.8627              1186.1773              1208.0336
 Red. masses --      1.7347                 1.8179                 1.2467
 Frc consts  --      1.4035                 1.5070                 1.0720
 IR Inten    --     36.0910                15.1151                60.9772

                     58                     59                     60
                      A                      A                      A
 Frequencies --   1239.6187              1246.3465              1266.3621
 Red. masses --      3.1445                 1.5839                 1.3139
 Frc consts  --      2.8470                 1.4496                 1.2415
 IR Inten    --      0.8347                 8.1129                 3.8441

                     61                     62                     63
                      A                      A                      A
 Frequencies --   1278.9909              1304.5342              1310.9838
 Red. masses --      1.2978                 2.4625                 1.8721
 Frc consts  --      1.2509                 2.4691                 1.8957
 IR Inten    --     41.1013               234.4928               120.5147

                     64                     65                     66
                      A                      A                      A
 Frequencies --   1344.5651              1352.9840              1356.5330
 Red. masses --      1.3960                 1.4529                 5.4442
 Frc consts  --      1.4869                 1.5670                 5.9026
 IR Inten    --      2.7061                 7.3778                70.3320

                     67                     68                     69
                      A                      A                      A
 Frequencies --   1381.8839              1397.9688              1414.8469
 Red. masses --      1.3147                 1.2401                 1.4009
 Frc consts  --      1.4791                 1.4279                 1.6522
 IR Inten    --      5.5666                13.1005                12.2571

                     70                     71                     72
                      A                      A                      A
 Frequencies --   1418.5772              1423.1029              1440.8650
 Red. masses --      1.2287                 1.3632                 1.2877
 Frc consts  --      1.4568                 1.6266                 1.5752
 IR Inten    --     12.5288                 7.0099                31.1905

                     73                     74                     75
                      A                      A                      A
 Frequencies --   1443.1154              1468.3864              1469.8668
 Red. masses --      1.3416                 1.3520                 2.6856
 Frc consts  --      1.6462                 1.7175                 3.4186
 IR Inten    --     20.4224                95.0090                12.3430

                     76                     77                     78
                      A                      A                      A
 Frequencies --   1486.1530              1498.3959              1514.1594
 Red. masses --      1.1509                 1.0858                 1.0693
 Frc consts  --      1.4977                 1.4364                 1.4445
 IR Inten    --      6.1199                 6.6273                 0.3663

                     79                     80                     81
                      A                      A                      A
 Frequencies --   1520.6300              1523.1801              1529.8370
 Red. masses --      1.0679                 1.0659                 1.1205
 Frc consts  --      1.4549                 1.4570                 1.5450
 IR Inten    --     16.8249                13.7475                49.3955

                     82                     83                     84
                      A                      A                      A
 Frequencies --   1538.7824              1546.1035              1550.9448
 Red. masses --      1.0831                 1.0875                 1.1533
 Frc consts  --      1.5110                 1.5316                 1.6345
 IR Inten    --     20.4242                19.0089                28.6510

                     85                     86                     87
                      A                      A                      A
 Frequencies --   1564.8793              1620.5014              1671.6413
 Red. masses --      2.0260                 6.6703                 5.6463
 Frc consts  --      2.9232                10.3203                 9.2961
 IR Inten    --     73.7584                15.4574               155.7715

                     88                     89                     90
                      A                      A                      A
 Frequencies --   2347.4035              2971.5052              3006.8893
 Red. masses --     12.6768                 1.0584                 1.0755
 Frc consts  --     41.1563                 5.5063                 5.7294
 IR Inten    --     63.8237                73.1057                42.1708

                     91                     92                     93
                      A                      A                      A
 Frequencies --   3013.4853              3032.1450              3053.2887
 Red. masses --      1.0792                 1.0643                 1.0436
 Frc consts  --      5.7740                 5.7652                 5.7322
 IR Inten    --     62.4641                33.6078                32.3954

                     94                     95                     96
                      A                      A                      A
 Frequencies --   3055.4976              3069.9259              3082.1474
 Red. masses --      1.0651                 1.0697                 1.0749
 Frc consts  --      5.8585                 5.9399                 6.0164
 IR Inten    --     18.6235                27.9606                32.1917

                     97                     98                     99
                      A                      A                      A
 Frequencies --   3089.3863              3092.6335              3104.7501
 Red. masses --      1.0958                 1.0944                 1.1009
 Frc consts  --      6.1620                 6.1673                 6.2523
 IR Inten    --     34.1469                34.7994                38.1095

                    100                    101                    102
                      A                      A                      A
 Frequencies --   3121.2492              3127.8205              3144.5436
 Red. masses --      1.0966                 1.1035                 1.0961
 Frc consts  --      6.2943                 6.3610                 6.3856
 IR Inten    --     22.0499                29.9748                26.4843

                    103                    104                    105
                      A                      A                      A
 Frequencies --   3163.6896              3214.6416              3216.1663
 Red. masses --      1.0950                 1.0886                 1.0897
 Frc consts  --      6.4571                 6.6277                 6.6408
 IR Inten    --     19.7257                 6.1150                 2.1367

                    106                    107                    108
                      A                      A                      A
 Frequencies --   3229.3442              3240.0916              3551.7274
 Red. masses --      1.0956                 1.0925                 1.0650
 Frc consts  --      6.7319                 6.7576                 7.9152
 IR Inten    --      3.0914                 6.8876               147.8965

 - Thermochemistry -
 -------------------
 Temperature   298.150 Kelvin.  Pressure   1.00000 Atm.
 Atom     1 has atomic number  6 and mass  12.00000

 Molecular mass:   248.15248 amu.
 Principal axes and moments of inertia in atomic units:
                           1         2         3
     Eigenvalues --  2085.378259895.97738**********
           X            0.99998   0.00406   0.00492
           Y           -0.00408   0.99998   0.00460
           Z           -0.00490  -0.00462   0.99998
 This molecule is an asymmetric top.
 Rotational symmetry number  1.
 Warning -- assumption of classical behavior for rotation
           may cause significant error
 Rotational temperatures (Kelvin)      0.04153     0.00875     0.00795
 Rotational constants (GHZ):           0.86543     0.18237     0.16571
 Zero-point vibrational energy     857546.8 (Joules/Mol)
                                  204.95859 (Kcal/Mol)
 Warning -- explicit consideration of  29 degrees of freedom as
           vibrations may cause significant error
 Vibrational temperatures:     20.41    32.27    52.80    63.14   111.90
          (Kelvin)            142.47   172.96   207.94   220.92   277.55
                              306.95   327.36   353.32   359.92   389.22
                              398.07   454.41   521.94   592.15   596.10
                              603.81   621.11   664.25   698.57   734.70
                              768.33   808.93   815.35   822.40   924.95
                              951.59  1037.11  1045.31  1108.22  1174.69
                             1189.23  1221.47  1227.09  1269.31  1283.01
                             1331.84  1371.41  1393.57  1395.27  1400.17
                             1488.18  1496.27  1539.19  1568.98  1572.51
                             1608.10  1618.99  1653.00  1674.60  1686.05
                             1706.64  1738.09  1783.53  1793.21  1822.01
                             1840.18  1876.93  1886.21  1934.53  1946.64
                             1951.75  1988.22  2011.37  2035.65  2041.02
                             2047.53  2073.08  2076.32  2112.68  2114.81
                             2138.24  2155.86  2178.54  2187.85  2191.52
                             2201.09  2213.96  2224.50  2231.46  2251.51
                             2331.54  2405.12  3377.39  4275.33  4326.24
                             4335.73  4362.58  4393.00  4396.18  4416.94
                             4434.52  4444.94  4449.61  4467.04  4490.78
                             4500.24  4524.30  4551.84  4625.15  4627.35
                             4646.31  4661.77  5110.14

 Zero-point correction=                           0.326622 (Hartree/Particle)
 Thermal correction to Energy=                    0.345007
 Thermal correction to Enthalpy=                  0.345951
 Thermal correction to Gibbs Free Energy=         0.277722
 Sum of electronic and zero-point Energies=           -805.184272
 Sum of electronic and thermal Energies=              -805.165887
 Sum of electronic and thermal Enthalpies=            -805.164943
 Sum of electronic and thermal Free Energies=         -805.233172

                     E (Thermal)             CV                S
                      KCal/Mol        Cal/Mol-Kelvin    Cal/Mol-Kelvin
 Total                  216.495             69.062            143.602
 Electronic               0.000              0.000              0.000
 Translational            0.889              2.981             42.427
 Rotational               0.889              2.981             33.774
 Vibrational            214.718             63.100             67.400
 Vibration     1          0.593              1.986              7.317
 Vibration     2          0.593              1.985              6.407
 Vibration     3          0.594              1.982              5.430
 Vibration     4          0.595              1.980              5.076
 Vibration     5          0.599              1.964              3.946
 Vibration     6          0.604              1.950              3.474
 Vibration     7          0.609              1.932              3.097
 Vibration     8          0.616              1.909              2.743
 Vibration     9          0.619              1.899              2.628
 Vibration    10          0.635              1.850              2.200
 Vibration    11          0.644              1.821              2.015
 Vibration    12          0.651              1.799              1.898
 Vibration    13          0.660              1.770              1.762
 Vibration    14          0.663              1.762              1.729
 Vibration    15          0.674              1.728              1.593
 Vibration    16          0.678              1.717              1.554
 Vibration    17          0.703              1.643              1.332
 Vibration    18          0.737              1.549              1.110
 Vibration    19          0.776              1.445              0.921
 Vibration    20          0.778              1.439              0.912
 Vibration    21          0.782              1.428              0.893
 Vibration    22          0.793              1.401              0.853
 Vibration    23          0.819              1.335              0.761
 Vibration    24          0.842              1.282              0.695
 Vibration    25          0.866              1.226              0.632
 Vibration    26          0.889              1.175              0.578
 Vibration    27          0.918              1.113              0.519
 Vibration    28          0.923              1.103              0.511
 Vibration    29          0.928              1.093              0.501

 Optimization completed.
    -- Stationary point found.
 Normal termination of Gaussian 16 at Fri Dec 11 22:40:04 2020.

 ----------------------------------------------------------------------
 # B3LYP/6-311++G(d,p) empiricaldispersion=gd3bj scf=xqc pop=npa geom=c
 heck
 ----------------------------------------------------------------------

 --------------------------------------
 CID_62334991_JID_8811_Energie_neutraal
 --------------------------------------
 Structure from the checkpoint file:  "JID_8811.chk"
 Charge =  0 Multiplicity = 1

 SCF Done:  E(RB3LYP) =  -805.741803546     A.U. after   15 cycles
 Normal termination of Gaussian 16 at Fri Dec 11 22:46:39 2020.

 ----------------------------------------------------------------------
 # B3LYP/6-311++G(d,p) empiricaldispersion=gd3bj scf=xqc pop=npa geom=c
 heck
 ----------------------------------------------------------------------

 ------------------------------------
 CID_62334991_JID_8811_Energie_kation
 ------------------------------------
 Structure from the checkpoint file:  "JID_8811.chk"
 Charge =  1 Multiplicity = 2

 SCF Done:  E(UB3LYP) =  -805.443009105     A.U. after   24 cycles
 Normal termination of Gaussian 16 at Fri Dec 11 23:00:49 2020.
 Gaussian 16:  ES64L-G16RevA.03 25-Dec-2016

 ----------------------------------------------------------------------
 # B3LYP/6-311++G(d,p) empiricaldispersion=gd3bj scf=xqc pop=npa geom=c
 heck
 ----------------------------------------------------------------------

 -----------------------------------
 CID_62334991_JID_8811_Energie_anion
 -----------------------------------
 Structure from the checkpoint file:  "JID_8811.chk"
 Charge = -1 Multiplicity = 2

                         Standard orientation:
 ---------------------------------------------------------------------
 Center     Atomic      Atomic             Coordinates (Angstroms)
 Number     Number       Type             X           Y           Z
 ---------------------------------------------------------------------
      1          6           0       -0.805417    1.888714   -0.034728
      2          6           0       -2.285663    2.075771   -0.379685
      3          6           0       -2.992851    0.834894   -0.987633
      4          7           0       -3.612684   -0.009726    0.039448
      5          6           0       -4.804339   -0.699002   -0.440255
      6          6           0       -2.738536   -0.876048    0.839462
      7          6           0       -2.037088   -2.057196    0.128451
      8          6           0       -0.670915   -1.742165   -0.465796
      9          8           0        0.177431   -1.329471    0.608971
     10          6           0        1.424386   -0.878835    0.321653
     11          6           0        2.158485   -0.385489    1.412129
     12          6           0        3.439779    0.102530    1.225810
     13          6           0        4.016078    0.108589   -0.058949
     14          6           0        3.279193   -0.386054   -1.143374
     15          6           0        1.990361   -0.878855   -0.960352
     16          6           0        5.339444    0.613367   -0.255669
     17          7           0        6.416659    1.023485   -0.415599
     18          8           0       -3.021302    2.522083    0.747561
     19          1           0       -0.646926    1.131622    0.735847
     20          1           0       -0.400975    2.833829    0.340467
     21          1           0       -0.226840    1.601429   -0.921956
     22          1           0       -2.337404    2.864880   -1.144288
     23          1           0       -3.816162    1.199960   -1.609419
     24          1           0       -2.314637    0.288365   -1.661133
     25          1           0       -4.608650   -1.431323   -1.243533
     26          1           0       -5.275592   -1.231402    0.392738
     27          1           0       -5.520400    0.033877   -0.824559
     28          1           0       -1.990236   -0.256375    1.336088
     29          1           0       -3.369970   -1.286457    1.635484
     30          1           0       -1.899593   -2.867557    0.854315
     31          1           0       -2.674065   -2.460665   -0.667758
     32          1           0       -0.245247   -2.633081   -0.947571
     33          1           0       -0.723589   -0.942967   -1.212504
     34          1           0        1.696029   -0.393164    2.393167
     35          1           0        4.005728    0.486523    2.067804
     36          1           0        3.720767   -0.384599   -2.134348
     37          1           0        1.441838   -1.260063   -1.812455
     38          1           0       -3.568437    1.748644    0.998032
 ---------------------------------------------------------------------

 SCF Done:  E(UB3LYP) =  -805.744418755     A.U. after   33 cycles
 SCF Done:  E(UB3LYP) =  -805.744418755     a.u. after    1 cycles

 The electronic state is 2-A.
 Alpha  occ. eigenvalues --  -19.05813 -19.01932 -14.23159 -14.18815 -10.13752
 Alpha  occ. eigenvalues --  -10.13150 -10.12857 -10.11248 -10.10966 -10.10453
 Alpha  occ. eigenvalues --  -10.08979 -10.08742 -10.08566 -10.08464 -10.07835
 Alpha  occ. eigenvalues --  -10.07731 -10.07369 -10.06402  -0.97718  -0.92915
 Alpha  occ. eigenvalues --   -0.84119  -0.79134  -0.75967  -0.70491  -0.67551
 Alpha  occ. eigenvalues --   -0.65790  -0.65647  -0.61832  -0.61499  -0.56106
 Alpha  occ. eigenvalues --   -0.52806  -0.52431  -0.50059  -0.48014  -0.45409
 Alpha  occ. eigenvalues --   -0.43847  -0.41450  -0.40871  -0.40230  -0.38690
 Alpha  occ. eigenvalues --   -0.38407  -0.35950  -0.35386  -0.34162  -0.33665
 Alpha  occ. eigenvalues --   -0.33114  -0.31978  -0.31679  -0.31077  -0.30643
 Alpha  occ. eigenvalues --   -0.29989  -0.28915  -0.28644  -0.27755  -0.27387
 Alpha  occ. eigenvalues --   -0.26428  -0.25709  -0.25437  -0.25014  -0.23694
 Alpha  occ. eigenvalues --   -0.22835  -0.21810  -0.21370  -0.17930  -0.16672
 Alpha  occ. eigenvalues --   -0.14262  -0.13143   0.03484
 Alpha virt. eigenvalues --    0.04943   0.06615   0.06809   0.07473   0.07867
 Alpha virt. eigenvalues --    0.08484   0.08794   0.09275   0.09759   0.09998
 Alpha virt. eigenvalues --    0.10771   0.11009   0.11822   0.12277   0.12765

  Beta  occ. eigenvalues --  -19.05752 -19.01931 -14.23157 -14.18642 -10.13743
  Beta  occ. eigenvalues --  -10.13147 -10.12586 -10.11236 -10.10958 -10.10412
  Beta  occ. eigenvalues --  -10.08963 -10.08595 -10.08545 -10.08415 -10.07818
  Beta  occ. eigenvalues --  -10.07641 -10.07390 -10.06400  -0.97552  -0.92912
  Beta  occ. eigenvalues --   -0.84106  -0.78862  -0.75727  -0.70384  -0.67523
  Beta  occ. eigenvalues --   -0.65604  -0.65395  -0.61763  -0.61451  -0.56007
  Beta  occ. eigenvalues --   -0.52556  -0.52244  -0.49995  -0.47958  -0.45300
  Beta  occ. eigenvalues --   -0.43720  -0.41399  -0.40834  -0.40192  -0.38592
  Beta  occ. eigenvalues --   -0.38265  -0.35891  -0.35279  -0.34140  -0.33602
  Beta  occ. eigenvalues --   -0.33074  -0.31876  -0.31586  -0.30882  -0.30565
  Beta  occ. eigenvalues --   -0.29912  -0.28812  -0.28174  -0.27716  -0.27337
  Beta  occ. eigenvalues --   -0.26375  -0.25575  -0.24956  -0.24735  -0.23621
  Beta  occ. eigenvalues --   -0.22818  -0.21706  -0.20801  -0.17925  -0.16163
  Beta  occ. eigenvalues --   -0.14219  -0.12212
  Beta virt. eigenvalues --    0.05729   0.06928   0.07204   0.07525   0.07678
  Beta virt. eigenvalues --    0.08063   0.08582   0.08912   0.09588   0.09855
  Beta virt. eigenvalues --    0.10060   0.10885   0.11132   0.11852   0.12399

 Mulliken charges and spin densities:
               1          2
     1  C   -0.181089  -0.160623
     2  C   -0.666188   0.217882
     3  C    0.097472  -0.402308
     4  N   -0.151129   0.120931
     5  C    0.886452  -1.167307
     6  C   -0.819936   0.478836
     7  C    0.599237  -1.386269
     8  C   -0.312471   0.329106
     9  O   -0.054965   0.019606
    10  C    0.030825  -0.020663
    11  C   -0.225758   0.121947
    12  C   -0.305994   0.044215
    13  C    1.820025   0.070637
    14  C   -0.612288   0.342862
    15  C    0.378553  -0.149891
    16  C   -1.693917  -0.105928
    17  N   -0.275159   0.093178
    18  O   -0.184094  -0.004975
    19  H    0.122208  -0.024884
    20  H    0.162643   0.006555
    21  H    0.112038   0.029655
    22  H    0.099793   0.068644
    23  H    0.020496   0.164139
    24  H   -0.024207   0.153203
    25  H   -0.311045   0.451059
    26  H   -0.230527   0.374724
    27  H   -0.095707   0.238470
    28  H    0.195750   0.014677
    29  H   -0.041694   0.203383
    30  H    0.065812   0.102819
    31  H   -0.232750   0.401214
    32  H   -0.064427   0.256244
    33  H    0.180740  -0.110663
    34  H    0.143746   0.010586
    35  H    0.168801   0.001724
    36  H    0.170988   0.006239
    37  H   -0.037878   0.192729
    38  H    0.265645   0.018247
 Sum of Mulliken charges =  -1.00000   1.00000

 Dipole moment (field-independent basis, Debye):
    X=             -3.5815    Y=             -0.3019    Z=              1.1963  Tot=              3.7881
 Quadrupole moment (field-independent basis, Debye-Ang):
   XX=           -248.4690   YY=           -149.0149   ZZ=           -127.7725
   XY=            -16.1315   XZ=              1.7829   YZ=             -4.3782

 Summary of Natural Population Analysis:

                                       Natural Population
                Natural  -----------------------------------------------
    Atom  No    Charge         Core      Valence    Rydberg      Total
 -----------------------------------------------------------------------
      C    1   -0.29700      0.99964     2.29196    0.00541     3.29700
      C    2    0.05848      0.99959     1.92877    0.01316     2.94152
      C    3   -0.09494      0.99959     2.08370    0.01165     3.09494
      N    4   -0.29630      0.99973     2.78162    0.01494     3.79630
      C    5   -0.17351      0.99963     2.16528    0.00860     3.17351
      C    6   -0.08645      0.99959     2.07428    0.01258     3.08645
      C    7   -0.21221      0.99961     2.20277    0.00983     3.21221
      C    8   -0.01116      0.99956     1.99990    0.01170     3.01116
      O    9   -0.27480      0.99985     3.26592    0.00903     4.27480
      C   10    0.21114      0.99940     1.77635    0.01312     2.78886
      C   11   -0.13096      0.99953     2.12325    0.00817     3.13096
      C   12   -0.06059      0.99955     2.05390    0.00714     3.06059
      C   13   -0.09229      0.99942     2.08276    0.01011     3.09229
      C   14   -0.03383      0.99956     2.02499    0.00929     3.03383
      C   15   -0.16551      0.99953     2.15734    0.00864     3.16551
      C   16    0.15240      0.99964     1.83015    0.01781     2.84760
      N   17   -0.17778      0.99979     2.66725    0.01074     3.67778
      O   18   -0.38241      0.99990     3.37552    0.00700     4.38241
      H   19    0.10160      0.00000     0.39697    0.00143     0.39840
      H   20    0.10184      0.00000     0.39732    0.00083     0.39816
      H   21    0.09960      0.00000     0.39942    0.00097     0.40040
      H   22    0.07835      0.00000     0.42047    0.00117     0.42165
      H   23    0.09784      0.00000     0.40086    0.00130     0.40216
      H   24    0.08758      0.00000     0.41090    0.00152     0.41242
      H   25    0.08528      0.00000     0.41280    0.00192     0.41472
      H   26    0.09659      0.00000     0.40221    0.00121     0.40341
      H   27    0.09556      0.00000     0.40326    0.00118     0.40444
      H   28    0.10252      0.00000     0.39595    0.00153     0.39748
      H   29    0.09608      0.00000     0.40292    0.00099     0.40392
      H   30    0.10261      0.00000     0.39622    0.00117     0.39739
      H   31    0.10538      0.00000     0.39314    0.00147     0.39462
      H   32    0.08837      0.00000     0.41032    0.00132     0.41163
      H   33    0.08329      0.00000     0.41476    0.00195     0.41671
      H   34    0.10390      0.00000     0.39518    0.00092     0.39610
      H   35    0.10058      0.00000     0.39859    0.00083     0.39942
      H   36    0.09950      0.00000     0.39965    0.00086     0.40050
      H   37    0.10420      0.00000     0.39478    0.00102     0.39580
      H   38    0.23702      0.00000     0.25979    0.00319     0.26298
 =======================================================================
   * Total *   -0.00000     17.99310    48.79120    0.21570    67.00000

 Normal termination of Gaussian 16 at Fri Dec 11 23:20:23 2020.
