 Gaussian 16, Revision A.03,

 -----------------------------------------------------------
 # opt freq B3LYP/6-31G(d) empiricaldispersion=gd3bj scf=xqc
 -----------------------------------------------------------

 -------------------------------
 CID_105835258_JID_4888_neutraal
 -------------------------------
 Symbolic Z-matrix:
 Charge =  0 Multiplicity = 1

 SCF Done:  E(RB3LYP) =  -662.873731115     A.U. after   14 cycles
 SCF Done:  E(RB3LYP) =  -662.882602926     A.U. after   12 cycles
 SCF Done:  E(RB3LYP) =  -662.883865863     A.U. after   11 cycles
 SCF Done:  E(RB3LYP) =  -662.884316417     A.U. after   11 cycles
 SCF Done:  E(RB3LYP) =  -662.884506645     A.U. after   11 cycles
 SCF Done:  E(RB3LYP) =  -662.884617905     A.U. after   11 cycles
 SCF Done:  E(RB3LYP) =  -662.884697466     A.U. after   10 cycles
 SCF Done:  E(RB3LYP) =  -662.884730151     A.U. after   10 cycles
 SCF Done:  E(RB3LYP) =  -662.884741701     A.U. after    9 cycles
 SCF Done:  E(RB3LYP) =  -662.884757211     A.U. after   10 cycles
 SCF Done:  E(RB3LYP) =  -662.890156643     A.U. after   10 cycles
 SCF Done:  E(RB3LYP) =  -662.890162281     A.U. after   10 cycles
 SCF Done:  E(RB3LYP) =  -662.890162127     A.U. after    8 cycles
 SCF Done:  E(RB3LYP) =  -662.890162432     A.U. after    8 cycles
 SCF Done:  E(RB3LYP) =  -662.890162457     A.U. after    7 cycles
 Optimization completed.
    -- Stationary point found.
 Normal termination of Gaussian 16 at Thu Dec 10 11:51:12 2020.

 --------------------------------------------------------------------
 #N Geom=AllCheck Guess=TCheck SCRF=Check GenChk RB3LYP/6-31G(d) Freq
 --------------------------------------------------------------------

 Structure from the checkpoint file:  "JID_4888.chk"
 -------------------------------
 CID_105835258_JID_4888_neutraal
 -------------------------------
 Charge =  0 Multiplicity = 1

 SCF Done:  E(RB3LYP) =  -662.890162457     A.U. after    1 cycles

  Exact polarizability: 149.504  -0.383 114.272   8.779  -2.368  82.310
 Approx polarizability: 186.105  -2.748 180.341  15.381  -6.327 122.854

                      1                      2                      3
                      A                      A                      A
 Frequencies --     36.6291                48.9261                62.2714
 Red. masses --      3.9189                 4.4723                 3.1710
 Frc consts  --      0.0031                 0.0063                 0.0072
 IR Inten    --      1.5436                 0.3753                 1.3372

                      4                      5                      6
                      A                      A                      A
 Frequencies --     94.2931               128.8782               145.8914
 Red. masses --      3.1757                 2.7650                 2.8200
 Frc consts  --      0.0166                 0.0271                 0.0354
 IR Inten    --      3.1226                 1.5779                 3.8750

                      7                      8                      9
                      A                      A                      A
 Frequencies --    210.9357               220.8186               256.6059
 Red. masses --      1.3576                 2.9511                 3.2945
 Frc consts  --      0.0356                 0.0848                 0.1278
 IR Inten    --      2.8542                26.6099                 3.5019

                     10                     11                     12
                      A                      A                      A
 Frequencies --    260.3868               279.9640               337.8538
 Red. masses --      1.3214                 2.1821                 2.9128
 Frc consts  --      0.0528                 0.1008                 0.1959
 IR Inten    --     29.6558                74.3044                 5.7454

                     13                     14                     15
                      A                      A                      A
 Frequencies --    354.3508               390.3238               401.3636
 Red. masses --      2.7254                 2.2404                 2.1693
 Frc consts  --      0.2016                 0.2011                 0.2059
 IR Inten    --      1.5351                14.0458                46.6863

                     16                     17                     18
                      A                      A                      A
 Frequencies --    439.0105               469.1018               514.6499
 Red. masses --      2.8870                 2.8500                 3.1631
 Frc consts  --      0.3278                 0.3695                 0.4936
 IR Inten    --      4.3104                 2.5629                10.7897

                     19                     20                     21
                      A                      A                      A
 Frequencies --    639.1875               656.5642               688.4748
 Red. masses --      2.9048                 2.2309                 2.1764
 Frc consts  --      0.6992                 0.5666                 0.6078
 IR Inten    --     74.3213               112.9380                 9.2617

                     22                     23                     24
                      A                      A                      A
 Frequencies --    705.7579               749.8889               758.5365
 Red. masses --      2.3003                 2.7639                 3.9993
 Frc consts  --      0.6751                 0.9157                 1.3558
 IR Inten    --     61.3828               101.6025                 6.2010

                     25                     26                     27
                      A                      A                      A
 Frequencies --    778.4002               807.6331               825.7160
 Red. masses --      3.3035                 1.9650                 2.8784
 Frc consts  --      1.1793                 0.7552                 1.1563
 IR Inten    --    129.9722                 1.4835                15.8328

                     28                     29                     30
                      A                      A                      A
 Frequencies --    855.5185               891.5275               910.6333
 Red. masses --      3.7834                 2.2051                 2.6462
 Frc consts  --      1.6315                 1.0326                 1.2929
 IR Inten    --      7.0353                 0.3019                16.7397

                     31                     32                     33
                      A                      A                      A
 Frequencies --    962.1021               976.9278              1010.5783
 Red. masses --      2.6538                 2.3864                 2.0546
 Frc consts  --      1.4473                 1.3419                 1.2363
 IR Inten    --     15.8005                 2.1614                 3.7826

                     34                     35                     36
                      A                      A                      A
 Frequencies --   1024.2488              1048.7533              1080.5642
 Red. masses --      3.1456                 2.4714                 2.7416
 Frc consts  --      1.9443                 1.6016                 1.8861
 IR Inten    --     12.4266                 2.6266                 2.6549

                     37                     38                     39
                      A                      A                      A
 Frequencies --   1090.6118              1102.0542              1128.6709
 Red. masses --      1.7446                 2.5005                 2.0161
 Frc consts  --      1.2226                 1.7893                 1.5132
 IR Inten    --      7.9630                 3.9675                69.8586

                     40                     41                     42
                      A                      A                      A
 Frequencies --   1140.9952              1161.7181              1193.0197
 Red. masses --      3.9304                 2.4355                 1.3256
 Frc consts  --      3.0148                 1.9366                 1.1117
 IR Inten    --    106.9619                 4.9335                13.5494

                     43                     44                     45
                      A                      A                      A
 Frequencies --   1196.6317              1218.4083              1247.4237
 Red. masses --      1.3335                 1.4995                 1.6002
 Frc consts  --      1.1250                 1.3115                 1.4671
 IR Inten    --     10.2544                12.5818                18.5323

                     46                     47                     48
                      A                      A                      A
 Frequencies --   1256.0203              1274.1655              1314.8544
 Red. masses --      1.6277                 1.8103                 1.2386
 Frc consts  --      1.5129                 1.7316                 1.2616
 IR Inten    --     43.1225                10.3427                10.0965

                     49                     50                     51
                      A                      A                      A
 Frequencies --   1325.3414              1331.5913              1356.8123
 Red. masses --      1.8649                 1.3483                 1.4201
 Frc consts  --      1.9301                 1.4086                 1.5403
 IR Inten    --      3.1318                 0.3512                 5.2965

                     52                     53                     54
                      A                      A                      A
 Frequencies --   1367.3217              1380.0817              1407.4203
 Red. masses --      1.5369                 1.3402                 1.3102
 Frc consts  --      1.6930                 1.5040                 1.5291
 IR Inten    --      1.8511                 7.3433                40.1836

                     55                     56                     57
                      A                      A                      A
 Frequencies --   1429.5511              1498.2141              1499.6793
 Red. masses --      3.0653                 1.1970                 1.1275
 Frc consts  --      3.6908                 1.5831                 1.4941
 IR Inten    --     96.3108                11.0991                 3.0522

                     58                     59                     60
                      A                      A                      A
 Frequencies --   1508.1449              1510.2768              1518.1434
 Red. masses --      1.1101                 1.3489                 1.0744
 Frc consts  --      1.4877                 1.8128                 1.4589
 IR Inten    --      4.3225                20.3020                14.1371

                     61                     62                     63
                      A                      A                      A
 Frequencies --   1531.0786              1531.9083              1540.5251
 Red. masses --      1.2062                 3.7167                 1.0703
 Frc consts  --      1.6660                 5.1389                 1.4965
 IR Inten    --     21.7175               150.3671                 3.3095

                     64                     65                     66
                      A                      A                      A
 Frequencies --   1618.2709              1649.1717              1688.6944
 Red. masses --      2.4351                 4.4110                 1.5482
 Frc consts  --      3.7573                 7.0684                 2.6012
 IR Inten    --    207.9830               361.0432               140.8731

                     67                     68                     69
                      A                      A                      A
 Frequencies --   2998.8438              3015.1450              3048.8709
 Red. masses --      1.0399                 1.0834                 1.1019
 Frc consts  --      5.5101                 5.8033                 6.0351
 IR Inten    --     51.4351                77.7332                53.8032

                     70                     71                     72
                      A                      A                      A
 Frequencies --   3052.8670              3072.5303              3076.4111
 Red. masses --      1.0704                 1.0630                 1.0645
 Frc consts  --      5.8779                 5.9123                 5.9357
 IR Inten    --     24.2216                33.8840                34.2573

                     73                     74                     75
                      A                      A                      A
 Frequencies --   3111.1245              3116.4696              3130.9663
 Red. masses --      1.1020                 1.0873                 1.0981
 Frc consts  --      6.2846                 6.2217                 6.3421
 IR Inten    --     15.4488                32.2588                32.1985

                     76                     77                     78
                      A                      A                      A
 Frequencies --   3135.9964              3140.9514              3537.7359
 Red. masses --      1.1012                 1.0974                 1.0487
 Frc consts  --      6.3805                 6.3789                 7.7329
 IR Inten    --     14.9409                28.2435                15.6135

                     79                     80                     81
                      A                      A                      A
 Frequencies --   3558.3459              3638.5331              3670.2386
 Red. masses --      1.0758                 1.0965                 1.0809
 Frc consts  --      8.0258                 8.5529                 8.5791
 IR Inten    --    101.6353                21.6950                54.2264

 - Thermochemistry -
 -------------------
 Temperature   298.150 Kelvin.  Pressure   1.00000 Atm.
 Atom     1 has atomic number  6 and mass  12.00000

 Molecular mass:   197.12766 amu.
 Principal axes and moments of inertia in atomic units:
                           1         2         3
     Eigenvalues --  1165.898055006.282675529.38207
           X            0.99998   0.00690  -0.00083
           Y           -0.00691   0.99991  -0.01141
           Z            0.00075   0.01142   0.99993
 This molecule is an asymmetric top.
 Rotational symmetry number  1.
 Warning -- assumption of classical behavior for rotation
           may cause significant error
 Rotational temperatures (Kelvin)      0.07429     0.01730     0.01566
 Rotational constants (GHZ):           1.54794     0.36050     0.32639
 Zero-point vibrational energy     654028.9 (Joules/Mol)
                                  156.31667 (Kcal/Mol)
 Warning -- explicit consideration of  18 degrees of freedom as
           vibrations may cause significant error
 Vibrational temperatures:     52.70    70.39    89.59   135.67   185.43
          (Kelvin)            209.91   303.49   317.71   369.20   374.64
                              402.81   486.10   509.83   561.59   577.47
                              631.64   674.93   740.47   919.65   944.65
                              990.56  1015.43  1078.92  1091.36  1119.94
                             1162.00  1188.02  1230.90  1282.71  1310.20
                             1384.25  1405.58  1454.00  1473.67  1508.92
                             1554.69  1569.15  1585.61  1623.91  1641.64
                             1671.45  1716.49  1721.69  1753.02  1794.76
                             1807.13  1833.24  1891.78  1906.87  1915.86
                             1952.15  1967.27  1985.63  2024.96  2056.81
                             2155.60  2157.70  2169.88  2172.95  2184.27
                             2202.88  2204.07  2216.47  2328.33  2372.79
                             2429.65  4314.67  4338.12  4386.65  4392.39
                             4420.69  4426.27  4476.21  4483.90  4504.76
                             4512.00  4519.13  5090.01  5119.67  5235.04
                             5280.65

 Zero-point correction=                           0.249106 (Hartree/Particle)
 Thermal correction to Energy=                    0.262701
 Thermal correction to Enthalpy=                  0.263645
 Thermal correction to Gibbs Free Energy=         0.207990
 Sum of electronic and zero-point Energies=           -662.641056
 Sum of electronic and thermal Energies=              -662.627461
 Sum of electronic and thermal Enthalpies=            -662.626517
 Sum of electronic and thermal Free Energies=         -662.682173

                     E (Thermal)             CV                S
                      KCal/Mol        Cal/Mol-Kelvin    Cal/Mol-Kelvin
 Total                  164.847             51.298            117.137
 Electronic               0.000              0.000              0.000
 Translational            0.889              2.981             41.741
 Rotational               0.889              2.981             31.846
 Vibrational            163.070             45.336             43.550
 Vibration     1          0.594              1.982              5.434
 Vibration     2          0.595              1.978              4.860
 Vibration     3          0.597              1.972              4.384
 Vibration     4          0.603              1.953              3.569
 Vibration     5          0.611              1.924              2.963
 Vibration     6          0.617              1.907              2.725
 Vibration     7          0.643              1.824              2.036
 Vibration     8          0.648              1.809              1.952
 Vibration     9          0.666              1.752              1.685
 Vibration    10          0.668              1.745              1.659
 Vibration    11          0.680              1.711              1.534
 Vibration    12          0.718              1.600              1.222
 Vibration    13          0.730              1.566              1.147
 Vibration    14          0.758              1.491              0.999
 Vibration    15          0.767              1.467              0.958
 Vibration    16          0.799              1.385              0.830
 Vibration    17          0.826              1.319              0.740
 Vibration    18          0.870              1.218              0.622

 Optimization completed.
    -- Stationary point found.
 Normal termination of Gaussian 16 at Thu Dec 10 11:59:19 2020.

 ----------------------------------------------------------------------
 # B3LYP/6-311++G(d,p) empiricaldispersion=gd3bj scf=xqc pop=npa geom=c
 heck
 ----------------------------------------------------------------------

 ---------------------------------------
 CID_105835258_JID_4888_Energie_neutraal
 ---------------------------------------
 Structure from the checkpoint file:  "JID_4888.chk"
 Charge =  0 Multiplicity = 1

 SCF Done:  E(RB3LYP) =  -663.087936050     A.U. after   14 cycles
 Normal termination of Gaussian 16 at Thu Dec 10 12:02:54 2020.

 ----------------------------------------------------------------------
 # B3LYP/6-311++G(d,p) empiricaldispersion=gd3bj scf=xqc pop=npa geom=c
 heck
 ----------------------------------------------------------------------

 -------------------------------------
 CID_105835258_JID_4888_Energie_kation
 -------------------------------------
 Structure from the checkpoint file:  "JID_4888.chk"
 Charge =  1 Multiplicity = 2

 SCF Done:  E(UB3LYP) =  -662.822661169     A.U. after   21 cycles
 Normal termination of Gaussian 16 at Thu Dec 10 12:10:56 2020.
 Gaussian 16:  ES64L-G16RevA.03 25-Dec-2016

 ----------------------------------------------------------------------
 # B3LYP/6-311++G(d,p) empiricaldispersion=gd3bj scf=xqc pop=npa geom=c
 heck
 ----------------------------------------------------------------------

 ------------------------------------
 CID_105835258_JID_4888_Energie_anion
 ------------------------------------
 Structure from the checkpoint file:  "JID_4888.chk"
 Charge = -1 Multiplicity = 2

                         Standard orientation:
 ---------------------------------------------------------------------
 Center     Atomic      Atomic             Coordinates (Angstroms)
 Number     Number       Type             X           Y           Z
 ---------------------------------------------------------------------
      1          6           0       -3.625866   -1.770220    0.424591
      2          8           0       -2.774678   -0.957572   -0.355484
      3          6           0       -2.845851    0.437117   -0.033826
      4          6           0       -2.115371    0.771847    1.299767
      5          6           0       -0.813040    1.511356    0.902017
      6          6           0       -0.609191    1.185714   -0.594323
      7          6           0       -2.052136    1.183109   -1.116003
      8          7           0       -0.012308   -0.127557   -0.836770
      9          6           0        1.269607   -0.376021   -0.410869
     10          7           0        1.712165   -1.601320   -0.150623
     11          7           0        3.035357   -1.342879    0.185615
     12          6           0        3.285584   -0.019671    0.094300
     13          7           0        2.191249    0.636588   -0.256548
     14          7           0        4.535691    0.544416    0.295231
     15          1           0       -3.517322   -2.792999    0.055669
     16          1           0       -4.677013   -1.458145    0.319894
     17          1           0       -3.363510   -1.750034    1.492604
     18          1           0       -3.905292    0.732179   -0.013255
     19          1           0       -2.741341    1.377908    1.962453
     20          1           0       -1.893723   -0.158493    1.831740
     21          1           0        0.053553    1.220488    1.500664
     22          1           0       -0.940336    2.595046    1.017158
     23          1           0        0.018937    1.932951   -1.084613
     24          1           0       -2.162772    0.711927   -2.096046
     25          1           0       -2.411628    2.216331   -1.181368
     26          1           0       -0.648415   -0.906064   -0.696722
     27          1           0        3.687161   -2.108548    0.255323
     28          1           0        5.032084    0.188328    1.104710
     29          1           0        4.469554    1.555581    0.323396
 ---------------------------------------------------------------------

 SCF Done:  E(UB3LYP) =  -663.078809718     A.U. after   33 cycles
 SCF Done:  E(UB3LYP) =  -663.078809718     a.u. after    1 cycles

 The electronic state is 2-A.
 Alpha  occ. eigenvalues --  -19.04123 -14.26931 -14.22526 -14.21015 -14.20833
 Alpha  occ. eigenvalues --  -14.18657 -10.16732 -10.14031 -10.13268 -10.12716
 Alpha  occ. eigenvalues --  -10.10633 -10.07647 -10.07419 -10.06733  -0.95985
 Alpha  occ. eigenvalues --   -0.95282  -0.83919  -0.82137  -0.76982  -0.73284
 Alpha  occ. eigenvalues --   -0.68743  -0.63513  -0.61674  -0.57633  -0.52831
 Alpha  occ. eigenvalues --   -0.51114  -0.48435  -0.47635  -0.45369  -0.42160
 Alpha  occ. eigenvalues --   -0.40767  -0.39570  -0.38954  -0.37296  -0.36315
 Alpha  occ. eigenvalues --   -0.35758  -0.35103  -0.34051  -0.32332  -0.29311
 Alpha  occ. eigenvalues --   -0.27705  -0.26847  -0.26472  -0.25115  -0.24715
 Alpha  occ. eigenvalues --   -0.23431  -0.22668  -0.22395  -0.20239  -0.17746
 Alpha  occ. eigenvalues --   -0.17182  -0.14954  -0.09725   0.03940
 Alpha virt. eigenvalues --    0.05146   0.06774   0.08113   0.08193   0.08582
 Alpha virt. eigenvalues --    0.10056   0.10284   0.10448   0.10979   0.11313
 Alpha virt. eigenvalues --    0.12684   0.12902   0.13164   0.13897   0.14359

  Beta  occ. eigenvalues --  -19.04117 -14.26898 -14.22440 -14.21015 -14.20827
  Beta  occ. eigenvalues --  -14.18646 -10.16729 -10.14030 -10.13255 -10.12693
  Beta  occ. eigenvalues --  -10.10632 -10.07640 -10.07405 -10.06725  -0.95964
  Beta  occ. eigenvalues --   -0.95271  -0.83893  -0.82058  -0.76942  -0.73257
  Beta  occ. eigenvalues --   -0.68690  -0.63488  -0.61649  -0.57593  -0.52764
  Beta  occ. eigenvalues --   -0.51093  -0.48405  -0.47589  -0.45285  -0.42114
  Beta  occ. eigenvalues --   -0.40742  -0.39491  -0.38913  -0.37269  -0.36290
  Beta  occ. eigenvalues --   -0.35731  -0.35074  -0.34015  -0.32315  -0.29287
  Beta  occ. eigenvalues --   -0.27686  -0.26827  -0.26451  -0.25096  -0.24699
  Beta  occ. eigenvalues --   -0.23387  -0.22640  -0.22363  -0.20217  -0.17726
  Beta  occ. eigenvalues --   -0.17167  -0.14920  -0.09706
  Beta virt. eigenvalues --    0.05964   0.07039   0.07286   0.08449   0.09012
  Beta virt. eigenvalues --    0.09153   0.10219   0.10380   0.10912   0.11281
  Beta virt. eigenvalues --    0.11697   0.12717   0.13043   0.13412   0.14115

 Mulliken charges and spin densities:
               1          2
     1  C    0.355037  -0.601048
     2  O   -0.134058  -0.001438
     3  C   -0.477877   0.581522
     4  C    0.223043  -0.846844
     5  C   -0.316404  -0.002824
     6  C    0.211051   0.156910
     7  C    0.000753  -0.939606
     8  N   -0.028603  -0.047245
     9  C    0.642668  -0.920486
    10  N   -0.349788   0.180265
    11  N    0.096994  -0.303126
    12  C    0.376490  -0.214946
    13  N   -0.217806  -0.062648
    14  N   -0.465035   0.132849
    15  H   -0.018518   0.155338
    16  H   -0.170943   0.300028
    17  H   -0.095845   0.225476
    18  H   -0.413539   0.605163
    19  H   -0.190922   0.341141
    20  H    0.210403  -0.060350
    21  H    0.016908   0.146881
    22  H   -0.044927   0.203410
    23  H    0.228151   0.035416
    24  H    0.172646   0.018227
    25  H   -0.002295   0.140504
    26  H    0.375934  -0.068644
    27  H   -0.125809   0.452305
    28  H   -0.760551   1.027726
    29  H   -0.097156   0.366043
 Sum of Mulliken charges =  -1.00000   1.00000

 Dipole moment (field-independent basis, Debye):
    X=             -5.8159    Y=             -0.0028    Z=             -2.5514  Tot=              6.3509
 Quadrupole moment (field-independent basis, Debye-Ang):
   XX=           -192.1393   YY=           -115.0836   ZZ=           -113.4806
   XY=              2.1873   XZ=             -8.7997   YZ=             -2.4473

 Summary of Natural Population Analysis:

                                       Natural Population
                Natural  -----------------------------------------------
    Atom  No    Charge         Core      Valence    Rydberg      Total
 -----------------------------------------------------------------------
      C    1   -0.09767      0.99961     2.08901    0.00906     3.09767
      O    2   -0.30925      0.99988     3.29952    0.00985     4.30925
      C    3    0.06365      0.99956     1.92154    0.01525     2.93635
      C    4   -0.21071      0.99962     2.20309    0.00801     3.21071
      C    5   -0.19818      0.99962     2.19082    0.00774     3.19818
      C    6   -0.00892      0.99959     1.99641    0.01291     3.00892
      C    7   -0.20138      0.99959     2.19164    0.01015     3.20138
      N    8   -0.33194      0.99966     2.82160    0.01068     3.83194
      C    9    0.26821      0.99965     1.71291    0.01922     2.73179
      N   10   -0.20694      0.99970     2.69530    0.01195     3.70694
      N   11   -0.20357      0.99965     2.69088    0.01304     3.70357
      C   12    0.28547      0.99963     1.69829    0.01662     2.71453
      N   13   -0.30834      0.99967     2.79982    0.00886     3.80834
      N   14   -0.40125      0.99971     2.89144    0.01010     3.90125
      H   15    0.09023      0.00000     0.40896    0.00081     0.40977
      H   16    0.07965      0.00000     0.41886    0.00149     0.42035
      H   17    0.07976      0.00000     0.41900    0.00124     0.42024
      H   18    0.08610      0.00000     0.41193    0.00197     0.41390
      H   19    0.10259      0.00000     0.39622    0.00118     0.39741
      H   20    0.10331      0.00000     0.39545    0.00124     0.39669
      H   21    0.10930      0.00000     0.38957    0.00113     0.39070
      H   22    0.09669      0.00000     0.40221    0.00110     0.40331
      H   23    0.10508      0.00000     0.39325    0.00168     0.39492
      H   24    0.10982      0.00000     0.38899    0.00119     0.39018
      H   25    0.10371      0.00000     0.39546    0.00083     0.39629
      H   26    0.20096      0.00000     0.29618    0.00286     0.29904
      H   27    0.20215      0.00000     0.29484    0.00301     0.29785
      H   28    0.19719      0.00000     0.27531    0.02750     0.30281
      H   29    0.19430      0.00000     0.30299    0.00271     0.30570
 =======================================================================
   * Total *    0.00000     13.99513    38.79150    0.21337    53.00000

 Normal termination of Gaussian 16 at Thu Dec 10 12:23:01 2020.
