 Gaussian 16, Revision A.03,

 -----------------------------------------------------------
 # opt freq B3LYP/6-31G(d) empiricaldispersion=gd3bj scf=xqc
 -----------------------------------------------------------

 -------------------------------
 CID_116434156_JID_5065_neutraal
 -------------------------------
 Symbolic Z-matrix:
 Charge =  0 Multiplicity = 1

 SCF Done:  E(RB3LYP) =  -692.381415678     A.U. after   13 cycles
 SCF Done:  E(RB3LYP) =  -692.386097595     A.U. after   11 cycles
 SCF Done:  E(RB3LYP) =  -692.386257762     A.U. after   11 cycles
 SCF Done:  E(RB3LYP) =  -692.387342946     A.U. after   10 cycles
 SCF Done:  E(RB3LYP) =  -692.387790519     A.U. after   11 cycles
 SCF Done:  E(RB3LYP) =  -692.388331867     A.U. after   10 cycles
 SCF Done:  E(RB3LYP) =  -692.389037648     A.U. after   11 cycles
 SCF Done:  E(RB3LYP) =  -692.389513574     A.U. after   10 cycles
 SCF Done:  E(RB3LYP) =  -692.389811668     A.U. after   10 cycles
 SCF Done:  E(RB3LYP) =  -692.390162659     A.U. after   10 cycles
 SCF Done:  E(RB3LYP) =  -692.391590609     A.U. after   11 cycles
 SCF Done:  E(RB3LYP) =  -692.391596502     A.U. after    9 cycles
 SCF Done:  E(RB3LYP) =  -692.391596701     A.U. after    7 cycles
 SCF Done:  E(RB3LYP) =  -692.391597049     A.U. after    7 cycles
 SCF Done:  E(RB3LYP) =  -692.391597164     A.U. after    7 cycles
 SCF Done:  E(RB3LYP) =  -692.391597214     A.U. after    7 cycles
 Optimization completed.
    -- Stationary point found.
 Normal termination of Gaussian 16 at Thu Dec 10 15:01:09 2020.

 --------------------------------------------------------------------
 #N Geom=AllCheck Guess=TCheck SCRF=Check GenChk RB3LYP/6-31G(d) Freq
 --------------------------------------------------------------------

 Structure from the checkpoint file:  "JID_5065.chk"
 -------------------------------
 CID_116434156_JID_5065_neutraal
 -------------------------------
 Charge =  0 Multiplicity = 1

 SCF Done:  E(RB3LYP) =  -692.391597214     A.U. after    1 cycles

  Exact polarizability: 145.307  -4.410 137.104  -2.975  -1.923 111.284
 Approx polarizability: 179.774  -3.471 184.243  -1.591   0.774 179.380

                      1                      2                      3
                      A                      A                      A
 Frequencies --     13.9900                44.5424                63.9169
 Red. masses --      3.8693                 3.3582                 3.5684
 Frc consts  --      0.0004                 0.0039                 0.0086
 IR Inten    --      0.5059                 0.0953                 0.1373

                      4                      5                      6
                      A                      A                      A
 Frequencies --     81.4908               100.9374               153.8836
 Red. masses --      3.3256                 3.2092                 3.1202
 Frc consts  --      0.0130                 0.0193                 0.0435
 IR Inten    --      0.8508                 2.6587                 1.4888

                      7                      8                      9
                      A                      A                      A
 Frequencies --    160.1613               211.3334               239.1479
 Red. masses --      3.2544                 3.1088                 1.7103
 Frc consts  --      0.0492                 0.0818                 0.0576
 IR Inten    --      1.1328                 2.1769                 0.3602

                     10                     11                     12
                      A                      A                      A
 Frequencies --    255.1050               259.9093               285.1781
 Red. masses --      1.3651                 2.2516                 2.5813
 Frc consts  --      0.0523                 0.0896                 0.1237
 IR Inten    --      1.0115                 8.8428                 3.5897

                     13                     14                     15
                      A                      A                      A
 Frequencies --    304.0600               352.7317               365.0380
 Red. masses --      2.2824                 1.9469                 2.6144
 Frc consts  --      0.1243                 0.1427                 0.2053
 IR Inten    --     12.0066                 6.0353                 0.4679

                     16                     17                     18
                      A                      A                      A
 Frequencies --    414.5361               464.2463               484.2735
 Red. masses --      3.4463                 5.3392                 2.4676
 Frc consts  --      0.3489                 0.6780                 0.3410
 IR Inten    --      0.2611                 1.3082                 4.5699

                     19                     20                     21
                      A                      A                      A
 Frequencies --    489.1229               506.7691               583.6019
 Red. masses --      2.1843                 2.7354                 2.6856
 Frc consts  --      0.3079                 0.4139                 0.5389
 IR Inten    --      9.8904                 1.6352                 2.1241

                     22                     23                     24
                      A                      A                      A
 Frequencies --    616.2691               660.7347               734.5187
 Red. masses --      1.7328                 2.3918                 3.5672
 Frc consts  --      0.3877                 0.6152                 1.1339
 IR Inten    --     10.8189                 1.5339                38.5909

                     25                     26                     27
                      A                      A                      A
 Frequencies --    760.9748               789.3563               821.1261
 Red. masses --      1.6924                 2.4830                 2.0132
 Frc consts  --      0.5774                 0.9115                 0.7998
 IR Inten    --     27.8840                 8.1761               203.0082

                     28                     29                     30
                      A                      A                      A
 Frequencies --    835.7724               866.4827               874.4234
 Red. masses --      2.2265                 1.7020                 1.7041
 Frc consts  --      0.9163                 0.7529                 0.7677
 IR Inten    --     12.5018                 4.2037                 4.7816

                     31                     32                     33
                      A                      A                      A
 Frequencies --    895.0013               914.3054               940.8817
 Red. masses --      2.2427                 2.0884                 2.0794
 Frc consts  --      1.0585                 1.0286                 1.0846
 IR Inten    --     27.9173                 4.0497                 5.7117

                     34                     35                     36
                      A                      A                      A
 Frequencies --    954.7924               958.8413               977.9850
 Red. masses --      3.4171                 2.1003                 2.3169
 Frc consts  --      1.8354                 1.1377                 1.3056
 IR Inten    --     21.0074                 6.6345                 7.1418

                     37                     38                     39
                      A                      A                      A
 Frequencies --    989.2206               996.1786              1044.6265
 Red. masses --      2.2191                 2.1055                 1.7969
 Frc consts  --      1.2794                 1.2311                 1.1553
 IR Inten    --     10.5119                 9.4894                 7.8692

                     40                     41                     42
                      A                      A                      A
 Frequencies --   1064.0966              1076.4990              1085.2123
 Red. masses --      1.7756                 1.9367                 1.9518
 Frc consts  --      1.1846                 1.3223                 1.3543
 IR Inten    --     22.5933                 4.4872                 4.0051

                     43                     44                     45
                      A                      A                      A
 Frequencies --   1099.3621              1109.9207              1127.9099
 Red. masses --      2.8464                 3.5828                 3.1401
 Frc consts  --      2.0269                 2.6005                 2.3537
 IR Inten    --     15.7683                20.4699               100.8771

                     46                     47                     48
                      A                      A                      A
 Frequencies --   1142.5153              1148.9015              1155.4309
 Red. masses --      5.3648                 2.5557                 2.9782
 Frc consts  --      4.1260                 1.9876                 2.3426
 IR Inten    --     77.3860                10.0219                 1.7865

                     49                     50                     51
                      A                      A                      A
 Frequencies --   1165.2755              1182.8350              1191.1405
 Red. masses --      2.5674                 2.1688                 2.1106
 Frc consts  --      2.0540                 1.7878                 1.7644
 IR Inten    --     12.9805                14.7503                11.4368

                     52                     53                     54
                      A                      A                      A
 Frequencies --   1234.3345              1241.1716              1245.7847
 Red. masses --      1.1994                 1.2340                 1.3243
 Frc consts  --      1.0767                 1.1200                 1.2110
 IR Inten    --      9.0002                 2.8772                10.0043

                     55                     56                     57
                      A                      A                      A
 Frequencies --   1279.9329              1290.1338              1302.3474
 Red. masses --      1.2808                 1.2508                 1.2726
 Frc consts  --      1.2363                 1.2266                 1.2718
 IR Inten    --      0.2085                 3.2453                 7.9271

                     58                     59                     60
                      A                      A                      A
 Frequencies --   1309.3127              1321.8699              1329.9820
 Red. masses --      1.2185                 1.2594                 1.2150
 Frc consts  --      1.2307                 1.2965                 1.2663
 IR Inten    --      4.2736                 4.2709                 5.4957

                     61                     62                     63
                      A                      A                      A
 Frequencies --   1360.9851              1362.2469              1375.4542
 Red. masses --      1.2188                 1.2667                 1.2682
 Frc consts  --      1.3301                 1.3850                 1.4136
 IR Inten    --      4.3946                 3.3386                 5.4006

                     64                     65                     66
                      A                      A                      A
 Frequencies --   1377.9059              1388.9877              1397.6077
 Red. masses --      1.4389                 1.3362                 1.2727
 Frc consts  --      1.6096                 1.5189                 1.4647
 IR Inten    --      0.7484                 0.6831                21.6181

                     67                     68                     69
                      A                      A                      A
 Frequencies --   1410.3615              1416.2465              1421.0146
 Red. masses --      1.3119                 1.3486                 1.3570
 Frc consts  --      1.5375                 1.5937                 1.6145
 IR Inten    --      7.3237                 5.6893                 8.9144

                     70                     71                     72
                      A                      A                      A
 Frequencies --   1424.5192              1432.8634              1437.1281
 Red. masses --      1.4660                 1.2866                 1.2840
 Frc consts  --      1.7528                 1.5563                 1.5624
 IR Inten    --      3.9281                11.2639                11.7837

                     73                     74                     75
                      A                      A                      A
 Frequencies --   1494.0363              1500.6872              1506.1902
 Red. masses --      1.0794                 1.0878                 1.1701
 Frc consts  --      1.4195                 1.4434                 1.5640
 IR Inten    --      0.0923                 0.8820                 9.3545

                     76                     77                     78
                      A                      A                      A
 Frequencies --   1507.6655              1516.7685              1519.6996
 Red. masses --      1.1096                 1.0646                 1.0952
 Frc consts  --      1.4860                 1.4430                 1.4903
 IR Inten    --      3.5213                 7.5384                 3.1685

                     79                     80                     81
                      A                      A                      A
 Frequencies --   1522.0746              1525.6274              1529.6428
 Red. masses --      1.0946                 1.0596                 1.0747
 Frc consts  --      1.4941                 1.4530                 1.4815
 IR Inten    --      1.6305                 2.6587                 2.5904

                     82                     83                     84
                      A                      A                      A
 Frequencies --   1546.3600              1563.2310              2939.7451
 Red. masses --      1.1099                 1.2077                 1.0816
 Frc consts  --      1.5637                 1.7388                 5.5072
 IR Inten    --      1.0053                44.6895                31.9831

                     85                     86                     87
                      A                      A                      A
 Frequencies --   2957.9423              2966.9697              2990.5980
 Red. masses --      1.0795                 1.0737                 1.0724
 Frc consts  --      5.5647                 5.5689                 5.6509
 IR Inten    --     19.8193                91.8640                39.1884

                     88                     89                     90
                      A                      A                      A
 Frequencies --   2997.6437              3037.4702              3043.5476
 Red. masses --      1.0736                 1.0589                 1.0464
 Frc consts  --      5.6839                 5.7560                 5.7111
 IR Inten    --    135.6469                 5.2291                23.4073

                     91                     92                     93
                      A                      A                      A
 Frequencies --   3045.7228              3049.4016              3073.2124
 Red. masses --      1.0506                 1.0609                 1.0816
 Frc consts  --      5.7423                 5.8124                 6.0189
 IR Inten    --     68.1698                45.3223                28.4703

                     94                     95                     96
                      A                      A                      A
 Frequencies --   3082.1167              3087.3766              3094.4322
 Red. masses --      1.1050                 1.0652                 1.1018
 Frc consts  --      6.1844                 5.9824                 6.2159
 IR Inten    --     10.6314                33.5301                77.0569

                     97                     98                     99
                      A                      A                      A
 Frequencies --   3095.1618              3098.5486              3111.3283
 Red. masses --      1.0971                 1.1035                 1.1010
 Frc consts  --      6.1927                 6.2420                 6.2795
 IR Inten    --     21.8728                39.0432                38.2417

                    100                    101                    102
                      A                      A                      A
 Frequencies --   3120.4489              3122.2799              3137.0574
 Red. masses --      1.0941                 1.1022                 1.1035
 Frc consts  --      6.2767                 6.3306                 6.3985
 IR Inten    --     21.2097                33.0828                32.3217

                    103                    104                    105
                      A                      A                      A
 Frequencies --   3144.0198              3458.5773              3523.4916
 Red. masses --      1.0926                 1.0735                 1.0747
 Frc consts  --      6.3635                 7.5658                 7.8610
 IR Inten    --     17.9767                 2.7627                26.3834

 - Thermochemistry -
 -------------------
 Temperature   298.150 Kelvin.  Pressure   1.00000 Atm.
 Atom     1 has atomic number  6 and mass  12.00000

 Molecular mass:   214.16813 amu.
 Principal axes and moments of inertia in atomic units:
                           1         2         3
     Eigenvalues --  1814.289664881.942635982.09475
           X            0.99991  -0.01252  -0.00546
           Y            0.01246   0.99986  -0.01090
           Z            0.00560   0.01083   0.99993
 This molecule is an asymmetric top.
 Rotational symmetry number  1.
 Warning -- assumption of classical behavior for rotation
           may cause significant error
 Rotational temperatures (Kelvin)      0.04774     0.01774     0.01448
 Rotational constants (GHZ):           0.99474     0.36968     0.30169
 Zero-point vibrational energy     886934.3 (Joules/Mol)
                                  211.98238 (Kcal/Mol)
 Warning -- explicit consideration of  22 degrees of freedom as
           vibrations may cause significant error
 Vibrational temperatures:     20.13    64.09    91.96   117.25   145.23
          (Kelvin)            221.40   230.44   304.06   344.08   367.04
                              373.95   410.31   437.47   507.50   525.21
                              596.43   667.95   696.76   703.74   729.13
                              839.67   886.67   950.65  1056.81  1094.87
                             1135.71  1181.42  1202.49  1246.68  1258.10
                             1287.71  1315.48  1353.72  1373.73  1379.56
                             1407.10  1423.27  1433.28  1502.98  1531.00
                             1548.84  1561.38  1581.74  1596.93  1622.81
                             1643.82  1653.01  1662.41  1676.57  1701.84
                             1713.79  1775.93  1785.77  1792.41  1841.54
                             1856.21  1873.79  1883.81  1901.88  1913.55
                             1958.15  1959.97  1978.97  1982.50  1998.44
                             2010.85  2029.20  2037.66  2044.52  2049.57
                             2061.57  2067.71  2149.59  2159.15  2167.07
                             2169.19  2182.29  2186.51  2189.93  2195.04
                             2200.81  2224.87  2249.14  4229.64  4255.82
                             4268.81  4302.80  4312.94  4370.24  4378.99
                             4382.12  4387.41  4421.67  4434.48  4442.05
                             4452.20  4453.25  4458.12  4476.51  4489.63
                             4492.26  4513.53  4523.54  4976.12  5069.52

 Zero-point correction=                           0.337815 (Hartree/Particle)
 Thermal correction to Energy=                    0.352656
 Thermal correction to Enthalpy=                  0.353600
 Thermal correction to Gibbs Free Energy=         0.294455
 Sum of electronic and zero-point Energies=           -692.053782
 Sum of electronic and thermal Energies=              -692.038941
 Sum of electronic and thermal Enthalpies=            -692.037997
 Sum of electronic and thermal Free Energies=         -692.097143

                     E (Thermal)             CV                S
                      KCal/Mol        Cal/Mol-Kelvin    Cal/Mol-Kelvin
 Total                  221.295             57.500            124.482
 Electronic               0.000              0.000              0.000
 Translational            0.889              2.981             41.988
 Rotational               0.889              2.981             32.338
 Vibrational            219.517             51.539             50.156
 Vibration     1          0.593              1.986              7.344
 Vibration     2          0.595              1.980              5.046
 Vibration     3          0.597              1.972              4.332
 Vibration     4          0.600              1.962              3.855
 Vibration     5          0.604              1.948              3.436
 Vibration     6          0.619              1.898              2.624
 Vibration     7          0.622              1.891              2.548
 Vibration     8          0.643              1.824              2.032
 Vibration     9          0.657              1.781              1.809
 Vibration    10          0.665              1.754              1.695
 Vibration    11          0.668              1.746              1.662
 Vibration    12          0.683              1.701              1.502
 Vibration    13          0.695              1.666              1.394
 Vibration    14          0.729              1.570              1.154
 Vibration    15          0.738              1.544              1.101
 Vibration    16          0.778              1.439              0.911
 Vibration    17          0.822              1.329              0.754
 Vibration    18          0.840              1.285              0.699
 Vibration    19          0.845              1.274              0.686
 Vibration    20          0.862              1.235              0.641
 Vibration    21          0.940              1.067              0.479
 Vibration    22          0.976              0.997              0.423

 Optimization completed.
    -- Stationary point found.
 Normal termination of Gaussian 16 at Thu Dec 10 15:14:04 2020.

 ----------------------------------------------------------------------
 # B3LYP/6-311++G(d,p) empiricaldispersion=gd3bj scf=xqc pop=npa geom=c
 heck
 ----------------------------------------------------------------------

 ---------------------------------------
 CID_116434156_JID_5065_Energie_neutraal
 ---------------------------------------
 Structure from the checkpoint file:  "JID_5065.chk"
 Charge =  0 Multiplicity = 1

 SCF Done:  E(RB3LYP) =  -692.592659577     A.U. after   14 cycles
 Normal termination of Gaussian 16 at Thu Dec 10 15:19:53 2020.

 ----------------------------------------------------------------------
 # B3LYP/6-311++G(d,p) empiricaldispersion=gd3bj scf=xqc pop=npa geom=c
 heck
 ----------------------------------------------------------------------

 -------------------------------------
 CID_116434156_JID_5065_Energie_kation
 -------------------------------------
 Structure from the checkpoint file:  "JID_5065.chk"
 Charge =  1 Multiplicity = 2

 SCF Done:  E(UB3LYP) =  -692.313136471     A.U. after   23 cycles
 Normal termination of Gaussian 16 at Thu Dec 10 15:35:09 2020.
 Gaussian 16:  ES64L-G16RevA.03 25-Dec-2016

 ----------------------------------------------------------------------
 # B3LYP/6-311++G(d,p) empiricaldispersion=gd3bj scf=xqc pop=npa geom=c
 heck
 ----------------------------------------------------------------------

 ------------------------------------
 CID_116434156_JID_5065_Energie_anion
 ------------------------------------
 Structure from the checkpoint file:  "JID_5065.chk"
 Charge = -1 Multiplicity = 2

                         Standard orientation:
 ---------------------------------------------------------------------
 Center     Atomic      Atomic             Coordinates (Angstroms)
 Number     Number       Type             X           Y           Z
 ---------------------------------------------------------------------
      1          6           0       -2.299685    2.560397    0.491907
      2          6           0       -1.530635    1.234875    0.500763
      3          6           0       -2.453408    0.030292    0.770347
      4          6           0       -1.654670   -1.260774    1.116031
      5          6           0       -2.034294   -2.249016   -0.002796
      6          8           0       -2.497011   -1.441450   -1.082307
      7          6           0       -3.262744   -0.402359   -0.474090
      8          7           0       -0.826398    1.064507   -0.776744
      9          6           0        0.545721    1.540270   -0.811047
     10          6           0        1.548525    0.703176   -0.009479
     11          6           0        2.995440    1.179814   -0.166887
     12          7           0        3.976722    0.284619    0.458294
     13          6           0        3.753274   -1.099821    0.029454
     14          6           0        2.297640   -1.539199    0.193235
     15          8           0        1.419859   -0.643951   -0.478952
     16          1           0       -3.079479    2.549601   -0.277136
     17          1           0       -1.626548    3.394174    0.264410
     18          1           0       -2.765850    2.756124    1.465504
     19          1           0       -0.820311    1.271290    1.346410
     20          1           0       -3.129531    0.300031    1.588504
     21          1           0       -1.904356   -1.648051    2.108243
     22          1           0       -0.580903   -1.058886    1.088709
     23          1           0       -1.193711   -2.841897   -0.371592
     24          1           0       -2.834152   -2.932959    0.325086
     25          1           0       -4.253576   -0.785670   -0.181330
     26          1           0       -3.390061    0.387325   -1.216615
     27          1           0       -0.850577    0.093555   -1.078079
     28          1           0        0.877632    1.555020   -1.857083
     29          1           0        0.580986    2.575893   -0.449363
     30          1           0        1.287842    0.721763    1.064663
     31          1           0        3.231735    1.239053   -1.237793
     32          1           0        3.112992    2.185068    0.254722
     33          1           0        3.865046    0.334713    1.471678
     34          1           0        4.027704   -1.170858   -1.030828
     35          1           0        4.421510   -1.762391    0.592030
     36          1           0        2.120029   -2.528296   -0.242027
     37          1           0        2.037545   -1.581199    1.266474
 ---------------------------------------------------------------------

 SCF Done:  E(UB3LYP) =  -692.580329181     A.U. after   29 cycles

 The electronic state is 2-A.
 Alpha  occ. eigenvalues --  -19.03094 -19.02879 -14.20590 -14.18988 -10.12024
 Alpha  occ. eigenvalues --  -10.11898 -10.11598 -10.11564 -10.09958 -10.09956
 Alpha  occ. eigenvalues --  -10.09894 -10.09745 -10.07829 -10.06621 -10.06018
 Alpha  occ. eigenvalues --   -0.94751  -0.94660  -0.81179  -0.80850  -0.70473
 Alpha  occ. eigenvalues --   -0.67823  -0.64924  -0.62588  -0.60212  -0.56855
 Alpha  occ. eigenvalues --   -0.53900  -0.51571  -0.49930  -0.48956  -0.46292
 Alpha  occ. eigenvalues --   -0.41816  -0.40316  -0.40222  -0.39145  -0.38108
 Alpha  occ. eigenvalues --   -0.37243  -0.36006  -0.35929  -0.35422  -0.33053
 Alpha  occ. eigenvalues --   -0.32148  -0.30846  -0.30448  -0.29605  -0.29037
 Alpha  occ. eigenvalues --   -0.28277  -0.27011  -0.26602  -0.26228  -0.25390
 Alpha  occ. eigenvalues --   -0.24496  -0.23553  -0.23329  -0.22713  -0.21801
 Alpha  occ. eigenvalues --   -0.18896  -0.16525  -0.13247  -0.11808   0.04261
 Alpha virt. eigenvalues --    0.06284   0.06781   0.07583   0.08302   0.08630
 Alpha virt. eigenvalues --    0.08998   0.09761   0.09979   0.10707   0.10961
 Alpha virt. eigenvalues --    0.11286   0.11687   0.12135   0.13072   0.13553

  Beta  occ. eigenvalues --  -19.03082 -19.02877 -14.20565 -14.18986 -10.12011
  Beta  occ. eigenvalues --  -10.11874 -10.11586 -10.11550 -10.09949 -10.09949
  Beta  occ. eigenvalues --  -10.09878 -10.09738 -10.07817 -10.06601 -10.06001
  Beta  occ. eigenvalues --   -0.94737  -0.94647  -0.81136  -0.80834  -0.70446
  Beta  occ. eigenvalues --   -0.67793  -0.64895  -0.62561  -0.60175  -0.56816
  Beta  occ. eigenvalues --   -0.53863  -0.51532  -0.49882  -0.48903  -0.46261
  Beta  occ. eigenvalues --   -0.41793  -0.40274  -0.40173  -0.39107  -0.38065
  Beta  occ. eigenvalues --   -0.37219  -0.35976  -0.35893  -0.35395  -0.33030
  Beta  occ. eigenvalues --   -0.32120  -0.30821  -0.30426  -0.29584  -0.29005
  Beta  occ. eigenvalues --   -0.28247  -0.26980  -0.26573  -0.26196  -0.25355
  Beta  occ. eigenvalues --   -0.24462  -0.23525  -0.23304  -0.22696  -0.21778
  Beta  occ. eigenvalues --   -0.18833  -0.16500  -0.13216  -0.11788
  Beta virt. eigenvalues --    0.06570   0.07174   0.07386   0.08041   0.08658
  Beta virt. eigenvalues --    0.09077   0.09371   0.10157   0.10408   0.10960
  Beta virt. eigenvalues --    0.11200   0.11514   0.12086   0.12483   0.13218

 Mulliken charges and spin densities:
               1          2
     1  C    0.674703  -1.212364
     2  C   -0.175666   0.081361
     3  C   -0.538370   0.806992
     4  C    0.396094  -0.704697
     5  C   -0.215513  -0.194248
     6  O   -0.090088  -0.007552
     7  C    0.170517  -0.821657
     8  N    0.029708   0.022281
     9  C   -0.332972  -0.433340
    10  C   -0.433954   0.572471
    11  C    0.298524  -1.033317
    12  N   -0.263707   0.225059
    13  C    0.725366  -1.239505
    14  C   -0.035587   0.053091
    15  O   -0.069657   0.026887
    16  H    0.091509   0.037845
    17  H   -0.102873   0.223236
    18  H   -0.128615   0.250332
    19  H   -0.214769   0.324623
    20  H   -0.221202   0.474558
    21  H   -0.818262   0.999704
    22  H    0.574514  -0.432957
    23  H   -0.050647   0.232410
    24  H   -0.050686   0.174448
    25  H   -0.186129   0.320368
    26  H    0.203782  -0.014904
    27  H    0.333304   0.013309
    28  H    0.169481  -0.004490
    29  H    0.103651   0.034198
    30  H   -0.034559   0.225057
    31  H    0.145172   0.009269
    32  H   -0.153439   0.329635
    33  H   -0.196631   0.447192
    34  H    0.160150  -0.014911
    35  H   -0.401992   0.587871
    36  H   -0.022997   0.171327
    37  H   -0.338159   0.470417
 Sum of Mulliken charges =  -1.00000   1.00000

 Dipole moment (field-independent basis, Debye):
    X=             -0.7354    Y=              1.3828    Z=             -5.9147  Tot=              6.1185
 Quadrupole moment (field-independent basis, Debye-Ang):
   XX=           -172.0974   YY=           -135.8812   ZZ=           -139.3613
   XY=             -2.1355   XZ=             -5.4812   YZ=              1.0405

 Summary of Natural Population Analysis:

                                       Natural Population
                Natural  -----------------------------------------------
    Atom  No    Charge         Core      Valence    Rydberg      Total
 -----------------------------------------------------------------------
      C    1   -0.28468      0.99964     2.27860    0.00644     3.28468
      C    2   -0.00894      0.99958     1.99596    0.01341     3.00894
      C    3   -0.12514      0.99958     2.11269    0.01287     3.12514
      C    4   -0.20856      0.99962     2.19945    0.00949     3.20856
      C    5   -0.01216      0.99960     1.99976    0.01280     3.01216
      O    6   -0.30143      0.99990     3.29377    0.00776     4.30143
      C    7   -0.01673      0.99957     2.00384    0.01331     3.01673
      N    8   -0.35256      0.99973     2.84185    0.01099     3.85256
      C    9   -0.08937      0.99959     2.07763    0.01214     3.08937
      C   10    0.04458      0.99954     1.94191    0.01397     2.95542
      C   11   -0.09952      0.99960     2.08811    0.01181     3.09952
      N   12   -0.33567      0.99976     2.82207    0.01384     3.83567
      C   13   -0.10257      0.99963     2.09145    0.01149     3.10257
      C   14   -0.01860      0.99958     2.00630    0.01272     3.01860
      O   15   -0.30713      0.99988     3.29847    0.00878     4.30713
      H   16    0.09610      0.00000     0.40278    0.00112     0.40390
      H   17    0.09829      0.00000     0.40080    0.00092     0.40171
      H   18    0.09731      0.00000     0.40173    0.00096     0.40269
      H   19    0.08534      0.00000     0.41191    0.00275     0.41466
      H   20    0.10616      0.00000     0.39213    0.00171     0.39384
      H   21    0.10506      0.00000     0.39290    0.00204     0.39494
      H   22    0.10598      0.00000     0.39144    0.00258     0.39402
      H   23    0.09194      0.00000     0.40679    0.00127     0.40806
      H   24    0.07660      0.00000     0.42192    0.00149     0.42340
      H   25    0.08027      0.00000     0.41841    0.00132     0.41973
      H   26    0.09650      0.00000     0.40223    0.00127     0.40350
      H   27    0.18934      0.00000     0.30679    0.00387     0.31066
      H   28    0.09379      0.00000     0.40512    0.00108     0.40621
      H   29    0.09411      0.00000     0.40496    0.00093     0.40589
      H   30    0.08065      0.00000     0.41647    0.00288     0.41935
      H   31    0.08945      0.00000     0.40929    0.00127     0.41055
      H   32    0.09904      0.00000     0.40002    0.00094     0.40096
      H   33    0.17423      0.00000     0.32140    0.00438     0.32577
      H   34    0.08875      0.00000     0.41005    0.00120     0.41125
      H   35    0.09906      0.00000     0.39975    0.00119     0.40094
      H   36    0.09035      0.00000     0.40843    0.00122     0.40965
      H   37    0.08017      0.00000     0.41733    0.00250     0.41983
 =======================================================================
   * Total *    0.00000     14.99481    43.79450    0.21070    59.00000

 Normal termination of Gaussian 16 at Thu Dec 10 15:57:22 2020.
