 Gaussian 16, Revision A.03,

 -----------------------------------------------------------
 # opt freq B3LYP/6-31G(d) empiricaldispersion=gd3bj scf=xqc
 -----------------------------------------------------------

 -------------------------------
 CID_117733041_JID_1867_neutraal
 -------------------------------
 Symbolic Z-matrix:
 Charge =  0 Multiplicity = 1

 SCF Done:  E(RB3LYP) =  -501.876089880     A.U. after   14 cycles
 SCF Done:  E(RB3LYP) =  -501.881466918     A.U. after   13 cycles
 SCF Done:  E(RB3LYP) =  -501.881899000     A.U. after   12 cycles
 SCF Done:  E(RB3LYP) =  -501.882316251     A.U. after   12 cycles
 SCF Done:  E(RB3LYP) =  -501.882620373     A.U. after   12 cycles
 SCF Done:  E(RB3LYP) =  -501.882724805     A.U. after   12 cycles
 SCF Done:  E(RB3LYP) =  -501.882808095     A.U. after   12 cycles
 SCF Done:  E(RB3LYP) =  -501.882889288     A.U. after   12 cycles
 SCF Done:  E(RB3LYP) =  -501.882932183     A.U. after   12 cycles
 SCF Done:  E(RB3LYP) =  -501.882943305     A.U. after   10 cycles
 SCF Done:  E(RB3LYP) =  -501.882947383     A.U. after   10 cycles
 SCF Done:  E(RB3LYP) =  -501.882951259     A.U. after   10 cycles
 SCF Done:  E(RB3LYP) =  -501.882953260     A.U. after   10 cycles
 SCF Done:  E(RB3LYP) =  -501.882953782     A.U. after    9 cycles
 SCF Done:  E(RB3LYP) =  -501.882953800     A.U. after    7 cycles
 Optimization completed.
    -- Stationary point found.

 1\1\GINC-NODE100\FOpt\RB3LYP\6-31G(d)\C9H14O2\VSC10255\08-Dec-2020\0\\
 # opt freq B3LYP/6-31G(d) empiricaldispersion=gd3bj scf=xqc\\CID_11773
 3041_JID_1867_neutraal\\0,1\C,0.9634180284,-0.0483446049,0.0553772742\
 C,0.6358893085,-0.7464150315,-1.2644864419\C,0.9176492948,-2.256938352
 7,-1.3280602867\C,-0.1579762305,-2.8190856278,-2.2557846168\O,-0.03726
 84054,-3.7921730862,-2.9677411051\C,-1.4001004905,-1.9393007647,-2.146
 282835\C,-0.8475252495,-0.6024066803,-1.6517551729\O,-1.4664096655,0.4
 369426281,-1.5618288252\C,-2.4382270136,-2.527693197,-1.1274363741\C,-

 Normal termination of Gaussian 16 at Tue Dec  8 21:26:24 2020.

 --------------------------------------------------------------------
 #N Geom=AllCheck Guess=TCheck SCRF=Check GenChk RB3LYP/6-31G(d) Freq
 --------------------------------------------------------------------

 Structure from the checkpoint file:  "JID_1867.chk"
 -------------------------------
 CID_117733041_JID_1867_neutraal
 -------------------------------
 Charge =  0 Multiplicity = 1

 SCF Done:  E(RB3LYP) =  -501.882953800     A.U. after    1 cycles

  Exact polarizability: 105.791  -0.090  98.427  -1.733   0.333  77.315
 Approx polarizability: 134.112   6.279 150.306  -2.471   0.473 120.115

                      1                      2                      3
                      A                      A                      A
 Frequencies --     30.7733                44.2296                89.8619
 Red. masses --      4.0028                 2.6126                 3.1053
 Frc consts  --      0.0022                 0.0030                 0.0148
 IR Inten    --      2.9390                 0.0566                 4.9375

                      4                      5                      6
                      A                      A                      A
 Frequencies --    170.3394               192.6756               222.3029
 Red. masses --      3.8571                 3.8846                 1.0877
 Frc consts  --      0.0659                 0.0850                 0.0317
 IR Inten    --      0.5993                 6.1270                 0.2577

                      7                      8                      9
                      A                      A                      A
 Frequencies --    225.0264               242.0978               261.2132
 Red. masses --      1.1598                 1.1542                 2.9446
 Frc consts  --      0.0346                 0.0399                 0.1184
 IR Inten    --      0.0528                 0.1390                 1.4309

                     10                     11                     12
                      A                      A                      A
 Frequencies --    318.3345               348.9284               364.3450
 Red. masses --      3.3044                 2.9671                 2.5183
 Frc consts  --      0.1973                 0.2128                 0.1970
 IR Inten    --      4.5624                 3.1231                 0.1318

                     13                     14                     15
                      A                      A                      A
 Frequencies --    406.2212               443.8638               493.3377
 Red. masses --      2.6854                 3.0493                 2.8204
 Frc consts  --      0.2611                 0.3540                 0.4044
 IR Inten    --      3.5568                 5.3231                 4.7472

                     16                     17                     18
                      A                      A                      A
 Frequencies --    567.5794               603.9403               606.1921
 Red. masses --      3.8191                 3.9264                 5.0795
 Frc consts  --      0.7249                 0.8438                 1.0997
 IR Inten    --      8.1689                 0.5914                 2.5291

                     19                     20                     21
                      A                      A                      A
 Frequencies --    670.6385               795.9009               809.2311
 Red. masses --      4.0635                 2.3739                 3.4876
 Frc consts  --      1.0768                 0.8860                 1.3456
 IR Inten    --      6.2749                 0.5987                 7.8801

                     22                     23                     24
                      A                      A                      A
 Frequencies --    875.3239               922.0152               927.3790
 Red. masses --      2.4528                 2.2337                 1.6302
 Frc consts  --      1.1073                 1.1188                 0.8260
 IR Inten    --      2.1247                 3.4394                 0.8058

                     25                     26                     27
                      A                      A                      A
 Frequencies --    946.0330               955.0659               981.0227
 Red. masses --      2.0126                 1.2282                 1.5114
 Frc consts  --      1.0613                 0.6600                 0.8570
 IR Inten    --      3.7620                 0.6645                 0.0803

                     28                     29                     30
                      A                      A                      A
 Frequencies --   1029.2867              1059.4114              1083.7661
 Red. masses --      1.9284                 1.4443                 1.9272
 Frc consts  --      1.2037                 0.9551                 1.3337
 IR Inten    --      4.9807                33.9730                 9.8645

                     31                     32                     33
                      A                      A                      A
 Frequencies --   1135.7305              1157.7655              1163.9170
 Red. masses --      2.5753                 2.0048                 2.2158
 Frc consts  --      1.9572                 1.5833                 1.7686
 IR Inten    --      4.1038                 8.0768                16.5507

                     34                     35                     36
                      A                      A                      A
 Frequencies --   1194.1507              1202.9254              1238.3094
 Red. masses --      2.2081                 1.8027                 2.0271
 Frc consts  --      1.8552                 1.5369                 1.8314
 IR Inten    --     80.3956                 2.6547                71.4756

                     37                     38                     39
                      A                      A                      A
 Frequencies --   1252.7600              1269.2423              1279.4133
 Red. masses --      1.6842                 1.6727                 1.3860
 Frc consts  --      1.5573                 1.5877                 1.3367
 IR Inten    --      2.9669                29.0877                 4.3172

                     40                     41                     42
                      A                      A                      A
 Frequencies --   1324.6225              1352.9272              1365.4658
 Red. masses --      1.5121                 1.6559                 1.3951
 Frc consts  --      1.5632                 1.7858                 1.5325
 IR Inten    --      3.0099                 9.9252                 2.3080

                     43                     44                     45
                      A                      A                      A
 Frequencies --   1373.0216              1433.1172              1434.8973
 Red. masses --      1.2726                 1.2188                 1.2284
 Frc consts  --      1.4135                 1.4749                 1.4902
 IR Inten    --     17.2712                 4.0017                 6.6758

                     46                     47                     48
                      A                      A                      A
 Frequencies --   1454.7524              1489.3900              1517.4681
 Red. masses --      1.2191                 1.0920                 1.0487
 Frc consts  --      1.5201                 1.4273                 1.4227
 IR Inten    --      7.1207                11.9963                 2.2449

                     49                     50                     51
                      A                      A                      A
 Frequencies --   1519.5043              1526.0496              1529.3969
 Red. masses --      1.0431                 1.0470                 1.0472
 Frc consts  --      1.4190                 1.4367                 1.4431
 IR Inten    --      4.4292                 5.0208                 8.9842

                     52                     53                     54
                      A                      A                      A
 Frequencies --   1532.7085              1541.7163              1818.6852
 Red. masses --      1.0487                 1.0473                12.0085
 Frc consts  --      1.4515                 1.4667                23.4021
 IR Inten    --      3.8132                10.2187               298.7737

                     55                     56                     57
                      A                      A                      A
 Frequencies --   1856.8864              3011.8294              3016.8353
 Red. masses --     12.3793                 1.0828                 1.0814
 Frc consts  --     25.1488                 5.7869                 5.7990
 IR Inten    --     60.3970                17.6256                 3.3723

                     58                     59                     60
                      A                      A                      A
 Frequencies --   3033.2898              3049.6032              3055.0232
 Red. masses --      1.0704                 1.0392                 1.0372
 Frc consts  --      5.8024                 5.6940                 5.7037
 IR Inten    --     12.1768                16.5752                25.5668

                     61                     62                     63
                      A                      A                      A
 Frequencies --   3056.3881              3085.6320              3109.7777
 Red. masses --      1.0382                 1.0845                 1.1020
 Frc consts  --      5.7140                 6.0837                 6.2791
 IR Inten    --     33.1736                 4.5521                10.4154

                     64                     65                     66
                      A                      A                      A
 Frequencies --   3119.0946              3120.8014              3135.0683
 Red. masses --      1.1020                 1.1012                 1.0937
 Frc consts  --      6.3166                 6.3190                 6.3338
 IR Inten    --     44.2652                30.7702                13.9797

                     67                     68                     69
                      A                      A                      A
 Frequencies --   3145.6996              3147.2411              3160.9792
 Red. masses --      1.1023                 1.0999                 1.0985
 Frc consts  --      6.4267                 6.4189                 6.4670
 IR Inten    --      9.8179                19.3938                 6.4485

 - Thermochemistry -
 -------------------
 Temperature   298.150 Kelvin.  Pressure   1.00000 Atm.
 Atom     1 has atomic number  6 and mass  12.00000

 Molecular mass:   154.09938 amu.
 Principal axes and moments of inertia in atomic units:
                           1         2         3
     Eigenvalues --  1294.451151818.827762631.39728
           X            0.99793  -0.06380  -0.00833
           Y            0.06380   0.99796  -0.00009
           Z            0.00832  -0.00045   0.99997
 This molecule is an asymmetric top.
 Rotational symmetry number  1.
 Warning -- assumption of classical behavior for rotation
           may cause significant error
 Rotational temperatures (Kelvin)      0.06691     0.04762     0.03292
 Rotational constants (GHZ):           1.39421     0.99226     0.68585
 Zero-point vibrational energy     567618.6 (Joules/Mol)
                                  135.66411 (Kcal/Mol)
 Warning -- explicit consideration of  18 degrees of freedom as
           vibrations may cause significant error
 Vibrational temperatures:     44.28    63.64   129.29   245.08   277.22
          (Kelvin)            319.84   323.76   348.32   375.83   458.01
                              502.03   524.21   584.46   638.62   709.80
                              816.62   868.94   872.18   964.90  1145.12
                             1164.30  1259.40  1326.57  1334.29  1361.13
                             1374.13  1411.47  1480.91  1524.26  1559.30
                             1634.06  1665.77  1674.62  1718.12  1730.74
                             1781.65  1802.44  1826.16  1840.79  1905.84
                             1946.56  1964.60  1975.47  2061.94  2064.50
                             2093.06  2142.90  2183.30  2186.23  2195.64
                             2200.46  2205.23  2218.19  2616.68  2671.65
                             4333.35  4340.55  4364.23  4387.70  4395.50
                             4397.46  4439.54  4474.28  4487.68  4490.14
                             4510.66  4525.96  4528.18  4547.94

 Zero-point correction=                           0.216195 (Hartree/Particle)
 Thermal correction to Energy=                    0.227995
 Thermal correction to Enthalpy=                  0.228939
 Thermal correction to Gibbs Free Energy=         0.177933
 Sum of electronic and zero-point Energies=           -501.666759
 Sum of electronic and thermal Energies=              -501.654959
 Sum of electronic and thermal Enthalpies=            -501.654015
 Sum of electronic and thermal Free Energies=         -501.705021

                     E (Thermal)             CV                S
                      KCal/Mol        Cal/Mol-Kelvin    Cal/Mol-Kelvin
 Total                  143.069             43.720            107.352
 Electronic               0.000              0.000              0.000
 Translational            0.889              2.981             41.007
 Rotational               0.889              2.981             30.206
 Vibrational            141.291             37.758             36.139
 Vibration     1          0.594              1.984              5.779
 Vibration     2          0.595              1.980              5.060
 Vibration     3          0.602              1.956              3.663
 Vibration     4          0.625              1.879              2.432
 Vibration     5          0.635              1.850              2.202
 Vibration     6          0.648              1.807              1.940
 Vibration     7          0.650              1.803              1.918
 Vibration     8          0.658              1.776              1.787
 Vibration     9          0.669              1.744              1.654
 Vibration    10          0.705              1.639              1.319
 Vibration    11          0.726              1.577              1.171
 Vibration    12          0.738              1.546              1.104
 Vibration    13          0.771              1.457              0.940
 Vibration    14          0.803              1.374              0.815
 Vibration    15          0.849              1.265              0.675
 Vibration    16          0.924              1.101              0.509
 Vibration    17          0.962              1.023              0.443
 Vibration    18          0.965              1.019              0.439

 Optimization completed.
    -- Stationary point found.

 1\1\GINC-NODE100\Freq\RB3LYP\6-31G(d)\C9H14O2\VSC10255\08-Dec-2020\0\\
 #N Geom=AllCheck Guess=TCheck SCRF=Check GenChk RB3LYP/6-31G(d) Freq\\
 CID_117733041_JID_1867_neutraal\\0,1\C,0.9634180284,-0.0483446049,0.05
 53772742\C,0.6358893085,-0.7464150315,-1.2644864419\C,0.9176492948,-2.
 2569383527,-1.3280602867\C,-0.1579762305,-2.8190856278,-2.2557846168\O
 ,-0.0372684054,-3.7921730862,-2.9677411051\C,-1.4001004905,-1.93930076
 47,-2.146282835\C,-0.8475252495,-0.6024066803,-1.6517551729\O,-1.46640
 96655,0.4369426281,-1.5618288252\C,-2.4382270136,-2.527693197,-1.12743

 Normal termination of Gaussian 16 at Tue Dec  8 21:32:44 2020.

 ----------------------------------------------------------------------
 # B3LYP/6-311++G(d,p) empiricaldispersion=gd3bj scf=xqc pop=npa geom=c
 heck
 ----------------------------------------------------------------------

 ---------------------------------------
 CID_117733041_JID_1867_Energie_neutraal
 ---------------------------------------
 Structure from the checkpoint file:  "JID_1867.chk"
 Charge =  0 Multiplicity = 1

 SCF Done:  E(RB3LYP) =  -502.027909218     A.U. after   15 cycles
 Normal termination of Gaussian 16 at Tue Dec  8 21:36:26 2020.

 ----------------------------------------------------------------------
 # B3LYP/6-311++G(d,p) empiricaldispersion=gd3bj scf=xqc pop=npa geom=c
 heck
 ----------------------------------------------------------------------

 -------------------------------------
 CID_117733041_JID_1867_Energie_kation
 -------------------------------------
 Structure from the checkpoint file:  "JID_1867.chk"
 Charge =  1 Multiplicity = 2

 SCF Done:  E(UB3LYP) =  -501.703881682     A.U. after   20 cycles
 Normal termination of Gaussian 16 at Tue Dec  8 21:42:17 2020.
 Gaussian 16:  ES64L-G16RevA.03 25-Dec-2016

 ------------------------------------
 CID_117733041_JID_1867_Energie_anion
 ------------------------------------
 Structure from the checkpoint file:  "JID_1867.chk"
 Charge = -1 Multiplicity = 2

                         Standard orientation:
 ---------------------------------------------------------------------
 Center     Atomic      Atomic             Coordinates (Angstroms)
 Number     Number       Type             X           Y           Z
 ---------------------------------------------------------------------
      1          6           0       -2.850982   -0.560602    0.917068
      2          6           0       -1.947742    0.155651   -0.086803
      3          6           0       -1.259009    1.439128    0.406597
      4          6           0        0.081616    1.472394   -0.325025
      5          8           0        0.690438    2.472591   -0.636946
      6          6           0        0.513489    0.036771   -0.610257
      7          6           0       -0.801905   -0.741999   -0.589311
      8          8           0       -0.950465   -1.901937   -0.911531
      9          6           0        1.499631   -0.499704    0.485953
     10          6           0        1.968224   -1.917116    0.136726
     11          6           0        2.699308    0.438014    0.666803
     12          1           0       -2.303656   -0.780421    1.841323
     13          1           0       -3.201964   -1.507384    0.497743
     14          1           0       -3.718660    0.055057    1.174522
     15          1           0       -2.537069    0.391318   -0.986389
     16          1           0       -1.820542    2.361558    0.241968
     17          1           0       -1.049612    1.366818    1.484593
     18          1           0        1.013494   -0.038385   -1.582294
     19          1           0        0.947008   -0.542101    1.436557
     20          1           0        2.567540   -1.902155   -0.781947
     21          1           0        2.598258   -2.311602    0.941853
     22          1           0        1.129894   -2.598301   -0.020847
     23          1           0        2.405126    1.440159    0.987396
     24          1           0        3.382056    0.022934    1.416578
     25          1           0        3.252550    0.542053   -0.273737
 ---------------------------------------------------------------------

 SCF Done:  E(UB3LYP) =  -502.027603751     A.U. after   30 cycles

 The electronic state is 2-A.
 Alpha  occ. eigenvalues --  -18.96190 -18.94767 -10.09884 -10.08324 -10.05775
 Alpha  occ. eigenvalues --  -10.04234 -10.04190 -10.03789 -10.03758 -10.03756
 Alpha  occ. eigenvalues --  -10.03274  -0.89793  -0.88591  -0.70239  -0.67240
 Alpha  occ. eigenvalues --   -0.60236  -0.56723  -0.55913  -0.49268  -0.45459
 Alpha  occ. eigenvalues --   -0.40158  -0.39135  -0.34836  -0.33682  -0.32297
 Alpha  occ. eigenvalues --   -0.31111  -0.30086  -0.29037  -0.28127  -0.27216
 Alpha  occ. eigenvalues --   -0.25984  -0.25560  -0.25092  -0.23779  -0.23009
 Alpha  occ. eigenvalues --   -0.22639  -0.22341  -0.21188  -0.19594  -0.19234
 Alpha  occ. eigenvalues --   -0.11326  -0.08551   0.05313
 Alpha virt. eigenvalues --    0.08228   0.08860   0.10398   0.10512   0.11103
 Alpha virt. eigenvalues --    0.11432   0.11605   0.12444   0.13275   0.14017
 Alpha virt. eigenvalues --    0.14424   0.14502   0.15129   0.15481   0.15885

  Beta  occ. eigenvalues --  -18.95996 -18.94452 -10.09645 -10.07990 -10.05613
  Beta  occ. eigenvalues --  -10.04266 -10.04187 -10.03858 -10.03770 -10.03751
  Beta  occ. eigenvalues --  -10.03209  -0.89391  -0.87980  -0.69909  -0.67076
  Beta  occ. eigenvalues --   -0.60028  -0.56690  -0.55761  -0.48880  -0.45212
  Beta  occ. eigenvalues --   -0.39811  -0.38578  -0.34450  -0.33526  -0.32121
  Beta  occ. eigenvalues --   -0.30830  -0.29830  -0.28849  -0.27890  -0.27167
  Beta  occ. eigenvalues --   -0.25646  -0.25160  -0.24667  -0.23341  -0.22748
  Beta  occ. eigenvalues --   -0.22405  -0.22110  -0.20967  -0.19029  -0.18120
  Beta  occ. eigenvalues --   -0.11140  -0.08325
  Beta virt. eigenvalues --    0.08219   0.08904   0.10082   0.10422   0.11281
  Beta virt. eigenvalues --    0.11390   0.11597   0.12167   0.13239   0.13820
  Beta virt. eigenvalues --    0.14203   0.14518   0.15019   0.15181   0.15586

 Mulliken charges and spin densities:
               1          2
     1  C    0.568679  -1.237448
     2  C   -0.257479   0.796008
     3  C   -0.284303  -0.337013
     4  C   -0.542267   0.301228
     5  O   -0.341596   0.069425
     6  C    0.947767  -0.045471
     7  C   -0.425708  -0.039300
     8  O   -0.367638   0.121897
     9  C    0.360954  -0.209371
    10  C   -0.541868  -0.076694
    11  C   -0.647323   0.058014
    12  H    0.010270   0.104766
    13  H    0.065927   0.085580
    14  H   -0.339449   0.477013
    15  H   -0.188735   0.391684
    16  H   -0.115366   0.285459
    17  H    0.182411  -0.027714
    18  H    0.050922   0.209351
    19  H    0.082023   0.059489
    20  H    0.096294   0.015430
    21  H    0.100760   0.000309
    22  H    0.198539  -0.015182
    23  H    0.169319  -0.004604
    24  H    0.095042   0.008098
    25  H    0.122826   0.009048
 Sum of Mulliken charges =  -1.00000   1.00000

 Dipole moment (field-independent basis, Debye):
    X=              4.4157    Y=             -1.2192    Z=              2.6277  Tot=              5.2810
 Quadrupole moment (field-independent basis, Debye-Ang):
   XX=           -107.5090   YY=           -102.7549   ZZ=            -81.5737
   XY=             -3.3758   XZ=              1.3040   YZ=              0.1596

 Summary of Natural Population Analysis:

                                       Natural Population
                Natural  -----------------------------------------------
    Atom  No    Charge         Core      Valence    Rydberg      Total
 -----------------------------------------------------------------------
      C    1   -0.27769      0.99965     2.27130    0.00674     3.27769
      C    2   -0.15545      0.99957     2.14487    0.01100     3.15545
      C    3   -0.23466      0.99958     2.22567    0.00941     3.23466
      C    4    0.33053      0.99965     1.64578    0.02404     2.66947
      O    5   -0.28405      0.99987     3.27728    0.00691     4.28405
      C    6   -0.19812      0.99950     2.18655    0.01207     3.19812
      C    7    0.34580      0.99963     1.63088    0.02369     2.65420
      O    8   -0.27813      0.99987     3.27157    0.00669     4.27813
      C    9   -0.08320      0.99960     2.07498    0.00861     3.08320
      C   10   -0.28668      0.99965     2.28209    0.00493     3.28668
      C   11   -0.28528      0.99965     2.28073    0.00490     3.28528
      H   12    0.09148      0.00000     0.40762    0.00090     0.40852
      H   13    0.10531      0.00000     0.39366    0.00103     0.39469
      H   14    0.09602      0.00000     0.40258    0.00140     0.40398
      H   15    0.11051      0.00000     0.38666    0.00283     0.38949
      H   16    0.10753      0.00000     0.39071    0.00175     0.39247
      H   17    0.10358      0.00000     0.39531    0.00111     0.39642
      H   18    0.11607      0.00000     0.38200    0.00193     0.38393
      H   19    0.08724      0.00000     0.41103    0.00173     0.41276
      H   20    0.09240      0.00000     0.40673    0.00087     0.40760
      H   21    0.08859      0.00000     0.41057    0.00084     0.41141
      H   22    0.11566      0.00000     0.38349    0.00085     0.38434
      H   23    0.10602      0.00000     0.39326    0.00072     0.39398
      H   24    0.08983      0.00000     0.40932    0.00086     0.41017
      H   25    0.09669      0.00000     0.40248    0.00084     0.40331
 =======================================================================
   * Total *    0.00000     10.99623    30.86712    0.13666    42.00000

 Normal termination of Gaussian 16 at Tue Dec  8 21:50:41 2020.
