 Gaussian 16, Revision A.03,

 -----------------------------------------------------------
 # opt freq B3LYP/6-31G(d) empiricaldispersion=gd3bj scf=xqc
 -----------------------------------------------------------

 -------------------------------
 CID_116731040_JID_4085_neutraal
 -------------------------------
 Symbolic Z-matrix:
 Charge =  0 Multiplicity = 1

 SCF Done:  E(RB3LYP) =  -630.803944696     A.U. after   14 cycles
 SCF Done:  E(RB3LYP) =  -630.808207730     A.U. after   12 cycles
 SCF Done:  E(RB3LYP) =  -630.808605619     A.U. after   12 cycles
 SCF Done:  E(RB3LYP) =  -630.808818645     A.U. after   11 cycles
 SCF Done:  E(RB3LYP) =  -630.808939163     A.U. after   11 cycles
 SCF Done:  E(RB3LYP) =  -630.809007836     A.U. after   11 cycles
 SCF Done:  E(RB3LYP) =  -630.809031621     A.U. after   10 cycles
 SCF Done:  E(RB3LYP) =  -630.809048879     A.U. after   10 cycles
 SCF Done:  E(RB3LYP) =  -630.809063625     A.U. after    9 cycles
 SCF Done:  E(RB3LYP) =  -630.809069863     A.U. after    9 cycles
 SCF Done:  E(RB3LYP) =  -630.815199233     A.U. after   10 cycles
 SCF Done:  E(RB3LYP) =  -630.815210428     A.U. after    9 cycles
 SCF Done:  E(RB3LYP) =  -630.815213949     A.U. after    8 cycles
 SCF Done:  E(RB3LYP) =  -630.815214227     A.U. after    8 cycles
 SCF Done:  E(RB3LYP) =  -630.815214256     A.U. after    7 cycles
 Optimization completed.
    -- Stationary point found.
 Normal termination of Gaussian 16 at Thu Dec 10 09:26:48 2020.

 --------------------------------------------------------------------
 #N Geom=AllCheck Guess=TCheck SCRF=Check GenChk RB3LYP/6-31G(d) Freq
 --------------------------------------------------------------------

 Structure from the checkpoint file:  "JID_4085.chk"
 -------------------------------
 CID_116731040_JID_4085_neutraal
 -------------------------------
 Charge =  0 Multiplicity = 1

 SCF Done:  E(RB3LYP) =  -630.815214257     A.U. after    1 cycles

  Exact polarizability: 161.611   2.476 101.653  -0.465   8.293 112.340
 Approx polarizability: 210.050   4.686 143.675   0.167  22.859 189.719

                      1                      2                      3
                      A                      A                      A
 Frequencies --     23.7307                59.4101                64.0075
 Red. masses --      4.1166                 2.6503                 1.9539
 Frc consts  --      0.0014                 0.0055                 0.0047
 IR Inten    --      0.8870                 1.5776                 0.6667

                      4                      5                      6
                      A                      A                      A
 Frequencies --     93.1179               108.8771               137.8592
 Red. masses --      3.2735                 2.1180                 3.6721
 Frc consts  --      0.0167                 0.0148                 0.0411
 IR Inten    --      2.0661                 0.5747                 1.5193

                      7                      8                      9
                      A                      A                      A
 Frequencies --    173.6613               181.2067               208.2328
 Red. masses --      1.9343                 2.3473                 1.1258
 Frc consts  --      0.0344                 0.0454                 0.0288
 IR Inten    --      1.4091                 4.7394                 1.1706

                     10                     11                     12
                      A                      A                      A
 Frequencies --    226.5740               232.3846               255.5683
 Red. masses --      1.5711                 1.9010                 2.2415
 Frc consts  --      0.0475                 0.0605                 0.0863
 IR Inten    --      2.3070                 5.9094                 1.9301

                     13                     14                     15
                      A                      A                      A
 Frequencies --    269.1905               297.2788               306.8461
 Red. masses --      1.8557                 2.1865                 3.5366
 Frc consts  --      0.0792                 0.1138                 0.1962
 IR Inten    --     37.9395                24.5529                11.1780

                     16                     17                     18
                      A                      A                      A
 Frequencies --    332.9442               384.9776               421.2513
 Red. masses --      3.4431                 2.8276                 2.3886
 Frc consts  --      0.2249                 0.2469                 0.2497
 IR Inten    --      3.5054                 6.7146                 0.7264

                     19                     20                     21
                      A                      A                      A
 Frequencies --    458.5793               479.9858               543.5724
 Red. masses --      3.4653                 4.8211                 3.9138
 Frc consts  --      0.4294                 0.6544                 0.6813
 IR Inten    --      2.1535                 1.4964                14.8978

                     22                     23                     24
                      A                      A                      A
 Frequencies --    593.3455               644.2500               700.8900
 Red. masses --      3.8432                 4.2169                 6.1383
 Frc consts  --      0.7972                 1.0312                 1.7766
 IR Inten    --      5.6846                 5.1295                20.2318

                     25                     26                     27
                      A                      A                      A
 Frequencies --    798.8627               839.8218               859.3840
 Red. masses --      4.1610                 6.4065                 2.2825
 Frc consts  --      1.5646                 2.6622                 0.9932
 IR Inten    --      7.0902                19.7792                 5.3999

                     28                     29                     30
                      A                      A                      A
 Frequencies --    867.3548               887.0347               906.4527
 Red. masses --      1.2779                 1.3733                 2.7804
 Frc consts  --      0.5664                 0.6367                 1.3460
 IR Inten    --     51.2774                68.0233                 9.5803

                     31                     32                     33
                      A                      A                      A
 Frequencies --    944.4752               955.4856               983.2462
 Red. masses --      1.7100                 1.6936                 2.0749
 Frc consts  --      0.8987                 0.9110                 1.1819
 IR Inten    --      5.4558                10.4250                11.0626

                     34                     35                     36
                      A                      A                      A
 Frequencies --    988.3752              1003.2849              1011.6464
 Red. masses --      1.7661                 1.6626                 1.4307
 Frc consts  --      1.0165                 0.9860                 0.8627
 IR Inten    --      2.3987                31.6621                 1.0696

                     37                     38                     39
                      A                      A                      A
 Frequencies --   1019.6146              1092.1721              1114.5885
 Red. masses --      6.5870                 2.4765                 1.6396
 Frc consts  --      4.0347                 1.7405                 1.2001
 IR Inten    --     10.7495                 3.6234                23.1509

                     40                     41                     42
                      A                      A                      A
 Frequencies --   1120.5852              1151.3189              1182.7276
 Red. masses --      3.7758                 2.2592                 2.2872
 Frc consts  --      2.7935                 1.7644                 1.8851
 IR Inten    --     89.1365                16.0124                17.4474

                     43                     44                     45
                      A                      A                      A
 Frequencies --   1186.7672              1194.1846              1208.1062
 Red. masses --      1.2537                 1.3100                 1.6902
 Frc consts  --      1.0403                 1.1007                 1.4534
 IR Inten    --      3.9585                 1.8600                 5.6133

                     46                     47                     48
                      A                      A                      A
 Frequencies --   1234.8697              1251.7563              1279.4309
 Red. masses --      1.5534                 5.2218                 2.0735
 Frc consts  --      1.3956                 4.8207                 1.9998
 IR Inten    --      6.7530                 1.0013                 1.8036

                     49                     50                     51
                      A                      A                      A
 Frequencies --   1299.8697              1326.2202              1337.5767
 Red. masses --      1.4914                 2.9973                 1.3641
 Frc consts  --      1.4847                 3.1061                 1.4379
 IR Inten    --      4.6126                 8.9207                12.7004

                     52                     53                     54
                      A                      A                      A
 Frequencies --   1374.2050              1379.4420              1415.5635
 Red. masses --      1.3289                 1.6150                 1.2722
 Frc consts  --      1.4786                 1.8106                 1.5020
 IR Inten    --      0.3441                13.3227                 1.1403

                     55                     56                     57
                      A                      A                      A
 Frequencies --   1421.6392              1428.9185              1448.9103
 Red. masses --      1.5399                 1.2633                 1.2295
 Frc consts  --      1.8336                 1.5198                 1.5208
 IR Inten    --     16.1423                 1.5378                 7.7875

                     58                     59                     60
                      A                      A                      A
 Frequencies --   1455.9311              1489.7708              1502.8008
 Red. masses --      2.8431                 2.2160                 1.2009
 Frc consts  --      3.5508                 2.8977                 1.5980
 IR Inten    --     67.4533                17.0218                 5.7159

                     61                     62                     63
                      A                      A                      A
 Frequencies --   1515.5108              1516.2924              1520.0474
 Red. masses --      1.0937                 1.0614                 1.0468
 Frc consts  --      1.4800                 1.4378                 1.4250
 IR Inten    --      5.9137                 2.3997                 1.9600

                     64                     65                     66
                      A                      A                      A
 Frequencies --   1521.0190              1534.5333              1539.6879
 Red. masses --      1.0548                 1.0510                 1.0485
 Frc consts  --      1.4378                 1.4581                 1.4645
 IR Inten    --      1.9903                 4.0786                 9.2297

                     67                     68                     69
                      A                      A                      A
 Frequencies --   1546.0158              1615.1376              1633.2316
 Red. masses --      1.0559                 6.3480                 5.9508
 Frc consts  --      1.4869                 9.7568                 9.3524
 IR Inten    --      5.3497                68.8073               147.2699

                     70                     71                     72
                      A                      A                      A
 Frequencies --   1699.8375              3004.3711              3028.0693
 Red. masses --      1.0953                 1.0685                 1.0385
 Frc consts  --      1.8646                 5.6824                 5.6104
 IR Inten    --     37.9062                38.0230                46.2045

                     73                     74                     75
                      A                      A                      A
 Frequencies --   3042.0781              3046.7547              3060.6503
 Red. masses --      1.0378                 1.0407                 1.0931
 Frc consts  --      5.6588                 5.6916                 6.0328
 IR Inten    --     20.7933                30.3335                15.4244

                     76                     77                     78
                      A                      A                      A
 Frequencies --   3064.1203              3091.8050              3094.2310
 Red. masses --      1.0795                 1.0949                 1.0896
 Frc consts  --      5.9716                 6.1665                 6.1464
 IR Inten    --     12.1649                53.3282                 4.5491

                     79                     80                     81
                      A                      A                      A
 Frequencies --   3103.2296              3112.1922              3124.9993
 Red. masses --      1.1008                 1.0990                 1.1012
 Frc consts  --      6.2460                 6.2719                 6.3360
 IR Inten    --      2.6063                74.4467                39.9432

                     82                     83                     84
                      A                      A                      A
 Frequencies --   3134.9068              3139.4686              3171.6991
 Red. masses --      1.1035                 1.0994                 1.0909
 Frc consts  --      6.3894                 6.3843                 6.4659
 IR Inten    --     41.0978                20.8270                30.1725

                     85                     86                     87
                      A                      A                      A
 Frequencies --   3244.8893              3478.3625              3566.4315
 Red. masses --      1.0933                 1.0508                 1.0921
 Frc consts  --      6.7823                 7.4905                 8.1843
 IR Inten    --      1.5106                 0.2866                 0.1263

 - Thermochemistry -
 -------------------
 Temperature   298.150 Kelvin.  Pressure   1.00000 Atm.
 Atom     1 has atomic number  6 and mass  12.00000

 Molecular mass:   195.13716 amu.
 Principal axes and moments of inertia in atomic units:
                           1         2         3
     Eigenvalues --  1375.334184868.666055086.49257
           X            0.99997  -0.00209   0.00694
           Y            0.00198   0.99987   0.01589
           Z           -0.00697  -0.01588   0.99985
 This molecule is an asymmetric top.
 Rotational symmetry number  1.
 Warning -- assumption of classical behavior for rotation
           may cause significant error
 Rotational temperatures (Kelvin)      0.06298     0.01779     0.01703
 Rotational constants (GHZ):           1.31222     0.37068     0.35481
 Zero-point vibrational energy     707649.2 (Joules/Mol)
                                  169.13222 (Kcal/Mol)
 Warning -- explicit consideration of  22 degrees of freedom as
           vibrations may cause significant error
 Vibrational temperatures:     34.14    85.48    92.09   133.98   156.65
          (Kelvin)            198.35   249.86   260.72   299.60   325.99
                              334.35   367.71   387.31   427.72   441.48
                              479.03   553.90   606.09   659.79   690.59
                              782.08   853.69   926.93  1008.42  1149.39
                             1208.32  1236.46  1247.93  1276.25  1304.18
                             1358.89  1374.73  1414.67  1422.05  1443.50
                             1455.53  1467.00  1571.39  1603.64  1612.27
                             1656.49  1701.68  1707.49  1718.17  1738.20
                             1776.70  1801.00  1840.82  1870.22  1908.14
                             1924.47  1977.17  1984.71  2036.68  2045.42
                             2055.89  2084.66  2094.76  2143.45  2162.20
                             2180.48  2181.61  2187.01  2188.41  2207.85
                             2215.27  2224.37  2323.82  2349.86  2445.69
                             4322.62  4356.72  4376.87  4383.60  4403.59
                             4408.59  4448.42  4451.91  4464.86  4477.75
                             4496.18  4510.43  4517.00  4563.37  4668.67
                             5004.59  5131.30

 Zero-point correction=                           0.269529 (Hartree/Particle)
 Thermal correction to Energy=                    0.284632
 Thermal correction to Enthalpy=                  0.285576
 Thermal correction to Gibbs Free Energy=         0.226707
 Sum of electronic and zero-point Energies=           -630.545685
 Sum of electronic and thermal Energies=              -630.530582
 Sum of electronic and thermal Enthalpies=            -630.529638
 Sum of electronic and thermal Free Energies=         -630.588507

                     E (Thermal)             CV                S
                      KCal/Mol        Cal/Mol-Kelvin    Cal/Mol-Kelvin
 Total                  178.609             55.218            123.901
 Electronic               0.000              0.000              0.000
 Translational            0.889              2.981             41.711
 Rotational               0.889              2.981             31.899
 Vibrational            176.832             49.256             50.291
 Vibration     1          0.593              1.985              6.295
 Vibration     2          0.597              1.974              4.477
 Vibration     3          0.597              1.971              4.330
 Vibration     4          0.602              1.954              3.593
 Vibration     5          0.606              1.942              3.289
 Vibration     6          0.614              1.916              2.833
 Vibration     7          0.627              1.875              2.395
 Vibration     8          0.630              1.865              2.316
 Vibration     9          0.642              1.828              2.059
 Vibration    10          0.650              1.801              1.906
 Vibration    11          0.653              1.791              1.860
 Vibration    12          0.666              1.753              1.692
 Vibration    13          0.674              1.730              1.601
 Vibration    14          0.691              1.679              1.432
 Vibration    15          0.697              1.661              1.379
 Vibration    16          0.715              1.610              1.246
 Vibration    17          0.754              1.502              1.020
 Vibration    18          0.784              1.424              0.888
 Vibration    19          0.817              1.342              0.770
 Vibration    20          0.836              1.294              0.710
 Vibration    21          0.899              1.154              0.558
 Vibration    22          0.951              1.046              0.461

 Optimization completed.
    -- Stationary point found.
 Normal termination of Gaussian 16 at Thu Dec 10 09:34:52 2020.

 ----------------------------------------------------------------------
 # B3LYP/6-311++G(d,p) empiricaldispersion=gd3bj scf=xqc pop=npa geom=c
 heck
 ----------------------------------------------------------------------

 ---------------------------------------
 CID_116731040_JID_4085_Energie_neutraal
 ---------------------------------------
 Structure from the checkpoint file:  "JID_4085.chk"
 Charge =  0 Multiplicity = 1

 SCF Done:  E(RB3LYP) =  -630.996318255     A.U. after   14 cycles
 Normal termination of Gaussian 16 at Thu Dec 10 09:38:13 2020.

 ----------------------------------------------------------------------
 # B3LYP/6-311++G(d,p) empiricaldispersion=gd3bj scf=xqc pop=npa geom=c
 heck
 ----------------------------------------------------------------------

 -------------------------------------
 CID_116731040_JID_4085_Energie_kation
 -------------------------------------
 Structure from the checkpoint file:  "JID_4085.chk"
 Charge =  1 Multiplicity = 2

 SCF Done:  E(UB3LYP) =  -630.679884372     A.U. after   26 cycles
 Normal termination of Gaussian 16 at Thu Dec 10 09:46:35 2020.
 Gaussian 16:  ES64L-G16RevA.03 25-Dec-2016

 ----------------------------------------------------------------------
 # B3LYP/6-311++G(d,p) empiricaldispersion=gd3bj scf=xqc pop=npa geom=c
 heck
 ----------------------------------------------------------------------

 ------------------------------------
 CID_116731040_JID_4085_Energie_anion
 ------------------------------------
 Structure from the checkpoint file:  "JID_4085.chk"
 Charge = -1 Multiplicity = 2

                         Standard orientation:
 ---------------------------------------------------------------------
 Center     Atomic      Atomic             Coordinates (Angstroms)
 Number     Number       Type             X           Y           Z
 ---------------------------------------------------------------------
      1          6           0        1.895118   -2.133857    0.787601
      2          6           0        2.438419   -0.772128    0.334333
      3          6           0        3.802117   -0.924411   -0.347383
      4          6           0        1.437109   -0.092618   -0.615447
      5          6           0        0.066118    0.119347    0.006843
      6          7           0        0.012416    0.643209    1.242750
      7          6           0       -1.210906    0.857250    1.741136
      8          6           0       -2.373187    0.551490    1.042046
      9          6           0       -2.208397   -0.002187   -0.228990
     10          7           0       -0.989658   -0.218628   -0.745168
     11          6           0       -3.380712   -0.374562   -1.109334
     12          7           0       -4.615626   -0.533505   -0.340559
     13          8           0        1.918298    1.128870   -1.190646
     14          6           0        2.263505    2.171601   -0.292311
     15          1           0        1.706579   -2.787491   -0.073778
     16          1           0        0.959770   -2.031037    1.346692
     17          1           0        2.618912   -2.639106    1.436642
     18          1           0        2.544907   -0.142651    1.225630
     19          1           0        3.725269   -1.583797   -1.221370
     20          1           0        4.189900    0.036869   -0.694673
     21          1           0        4.531743   -1.365579    0.341151
     22          1           0        1.284748   -0.736261   -1.487113
     23          1           0       -1.254991    1.285730    2.741317
     24          1           0       -3.363936    0.721200    1.445349
     25          1           0       -3.531855    0.445688   -1.823885
     26          1           0       -3.078657   -1.248668   -1.707542
     27          1           0       -5.408401   -0.601190   -0.974156
     28          1           0       -4.587419   -1.408688    0.180246
     29          1           0        1.423856    2.469140    0.345909
     30          1           0        3.109116    1.901354    0.354854
     31          1           0        2.559049    3.016440   -0.920223
 ---------------------------------------------------------------------

 SCF Done:  E(UB3LYP) =  -630.990743783     A.U. after   33 cycles
 SCF Done:  E(UB3LYP) =  -630.990743783     a.u. after    1 cycles

 The electronic state is 2-A.
 Alpha  occ. eigenvalues --  -19.01639 -14.16757 -14.16395 -14.16393 -10.10685
 Alpha  occ. eigenvalues --  -10.10396 -10.10294 -10.07231 -10.06757 -10.06634
 Alpha  occ. eigenvalues --  -10.06615 -10.06485 -10.06157 -10.04007  -0.92502
 Alpha  occ. eigenvalues --   -0.84249  -0.76305  -0.74047  -0.70730  -0.65632
 Alpha  occ. eigenvalues --   -0.61004  -0.59041  -0.56312  -0.54854  -0.50105
 Alpha  occ. eigenvalues --   -0.48535  -0.44520  -0.39569  -0.38712  -0.38192
 Alpha  occ. eigenvalues --   -0.36388  -0.35602  -0.34325  -0.33929  -0.31718
 Alpha  occ. eigenvalues --   -0.31134  -0.30496  -0.29378  -0.28978  -0.28467
 Alpha  occ. eigenvalues --   -0.27111  -0.26366  -0.25922  -0.24674  -0.23762
 Alpha  occ. eigenvalues --   -0.23364  -0.20149  -0.17791  -0.17379  -0.14437
 Alpha  occ. eigenvalues --   -0.14075  -0.12104  -0.11272   0.05136
 Alpha virt. eigenvalues --    0.06961   0.07878   0.08449   0.08994   0.09766
 Alpha virt. eigenvalues --    0.09905   0.10119   0.10588   0.11366   0.11890
 Alpha virt. eigenvalues --    0.12363   0.12547   0.12852   0.13417   0.14558

  Beta  occ. eigenvalues --  -19.01639 -14.16681 -14.16210 -14.16128 -10.10685
  Beta  occ. eigenvalues --  -10.10395 -10.10340 -10.07231 -10.06634 -10.06508
  Beta  occ. eigenvalues --  -10.06499 -10.06300 -10.06156 -10.04091  -0.92502
  Beta  occ. eigenvalues --   -0.83871  -0.76054  -0.73595  -0.70711  -0.65395
  Beta  occ. eigenvalues --   -0.60946  -0.59035  -0.55980  -0.54836  -0.49917
  Beta  occ. eigenvalues --   -0.48337  -0.44400  -0.39481  -0.38603  -0.38049
  Beta  occ. eigenvalues --   -0.36325  -0.35479  -0.34290  -0.33838  -0.31698
  Beta  occ. eigenvalues --   -0.31014  -0.30361  -0.29291  -0.28699  -0.28187
  Beta  occ. eigenvalues --   -0.27022  -0.26216  -0.25593  -0.24547  -0.23699
  Beta  occ. eigenvalues --   -0.23218  -0.20101  -0.17609  -0.15906  -0.14089
  Beta  occ. eigenvalues --   -0.13580  -0.11920  -0.11009
  Beta virt. eigenvalues --    0.06908   0.08362   0.08503   0.09046   0.09758
  Beta virt. eigenvalues --    0.09969   0.10310   0.10460   0.11183   0.11517
  Beta virt. eigenvalues --    0.12249   0.12526   0.12614   0.12870   0.13391

 Mulliken charges and spin densities:
               1          2
     1  C   -0.631980  -0.053157
     2  C    0.174787   0.043327
     3  C   -0.494766  -0.002976
     4  C   -0.133952  -0.038431
     5  C   -1.280975   0.074823
     6  N    0.045277   0.126426
     7  C   -0.004605   0.072559
     8  C    0.291156  -0.425166
     9  C   -0.412409   0.806130
    10  N    0.020856   0.155095
    11  C    1.215923  -1.587482
    12  N   -0.330470  -0.051181
    13  O   -0.059158   0.001609
    14  C   -0.272893   0.000281
    15  H    0.108086   0.007841
    16  H    0.139352   0.027607
    17  H    0.135600  -0.002341
    18  H    0.175049  -0.001270
    19  H    0.129802   0.002898
    20  H    0.128422  -0.000862
    21  H    0.113851   0.003142
    22  H    0.245100  -0.000241
    23  H    0.098011   0.020013
    24  H    0.057929   0.144991
    25  H   -0.376444   0.586358
    26  H    0.063033   0.074252
    27  H   -0.430363   0.680299
    28  H   -0.109865   0.319634
    29  H    0.149633   0.009939
    30  H    0.111149   0.001728
    31  H    0.134868   0.004156
 Sum of Mulliken charges =  -1.00000   1.00000

 Dipole moment (field-independent basis, Debye):
    X=             11.3821    Y=             -0.2521    Z=              2.6998  Tot=             11.7006
 Quadrupole moment (field-independent basis, Debye-Ang):
   XX=           -170.9037   YY=           -102.0910   ZZ=           -109.7978
   XY=             -3.4495   XZ=             -9.5057   YZ=              0.4769

 Summary of Natural Population Analysis:

                                       Natural Population
                Natural  -----------------------------------------------
    Atom  No    Charge         Core      Valence    Rydberg      Total
 -----------------------------------------------------------------------
      C    1   -0.28367      0.99966     2.27939    0.00462     3.28367
      C    2   -0.12899      0.99960     2.12184    0.00754     3.12899
      C    3   -0.28456      0.99966     2.27968    0.00522     3.28456
      C    4    0.05729      0.99942     1.92601    0.01729     2.94271
      C    5    0.19271      0.99958     1.78678    0.02093     2.80729
      N    6   -0.24480      0.99967     2.73408    0.01104     3.74480
      C    7    0.08179      0.99960     1.90457    0.01404     2.91821
      C    8   -0.16328      0.99950     2.15490    0.00888     3.16328
      C    9    0.17191      0.99954     1.81457    0.01398     2.82809
      N   10   -0.23783      0.99965     2.72767    0.01051     3.73783
      C   11   -0.10639      0.99959     2.09356    0.01324     3.10639
      N   12   -0.42337      0.99978     2.91235    0.01124     3.92337
      O   13   -0.29991      0.99989     3.29031    0.00972     4.29991
      C   14   -0.10250      0.99961     2.09472    0.00818     3.10250
      H   15    0.09484      0.00000     0.40431    0.00086     0.40516
      H   16    0.10976      0.00000     0.38953    0.00072     0.39024
      H   17    0.09270      0.00000     0.40651    0.00079     0.40730
      H   18    0.10365      0.00000     0.39472    0.00163     0.39635
      H   19    0.09444      0.00000     0.40463    0.00093     0.40556
      H   20    0.10226      0.00000     0.39685    0.00089     0.39774
      H   21    0.09240      0.00000     0.40679    0.00080     0.40760
      H   22    0.09817      0.00000     0.40057    0.00125     0.40183
      H   23    0.07921      0.00000     0.41975    0.00104     0.42079
      H   24    0.11289      0.00000     0.38572    0.00139     0.38711
      H   25    0.10273      0.00000     0.39465    0.00262     0.39727
      H   26    0.08701      0.00000     0.41100    0.00198     0.41299
      H   27    0.18017      0.00000     0.31011    0.00972     0.31983
      H   28    0.17246      0.00000     0.32519    0.00235     0.32754
      H   29    0.09393      0.00000     0.40467    0.00140     0.40607
      H   30    0.07247      0.00000     0.42624    0.00129     0.42753
      H   31    0.08254      0.00000     0.41663    0.00083     0.41746
 =======================================================================
   * Total *    0.00002     13.99474    38.81831    0.18692    52.99998

 Normal termination of Gaussian 16 at Thu Dec 10 09:57:00 2020.
