 Gaussian 16, Revision A.03,

 -----------------------------------------------------------
 # opt freq B3LYP/6-31G(d) empiricaldispersion=gd3bj scf=xqc
 -----------------------------------------------------------

 -------------------------------
 CID_131607095_JID_5710_neutraal
 -------------------------------
 Symbolic Z-matrix:
 Charge =  0 Multiplicity = 1

 SCF Done:  E(RB3LYP) =  -654.122874042     A.U. after   15 cycles
 SCF Done:  E(RB3LYP) =  -654.129029969     A.U. after   13 cycles
 SCF Done:  E(RB3LYP) =  -654.129987755     A.U. after   13 cycles
 SCF Done:  E(RB3LYP) =  -654.130229666     A.U. after   12 cycles
 SCF Done:  E(RB3LYP) =  -654.130563908     A.U. after   12 cycles
 SCF Done:  E(RB3LYP) =  -654.130755861     A.U. after   11 cycles
 SCF Done:  E(RB3LYP) =  -654.130868368     A.U. after   11 cycles
 SCF Done:  E(RB3LYP) =  -654.130914198     A.U. after   10 cycles
 SCF Done:  E(RB3LYP) =  -654.130952208     A.U. after   11 cycles
 SCF Done:  E(RB3LYP) =  -654.130974066     A.U. after   10 cycles
 SCF Done:  E(RB3LYP) =  -654.130985746     A.U. after    9 cycles
 SCF Done:  E(RB3LYP) =  -654.130993467     A.U. after    9 cycles
 SCF Done:  E(RB3LYP) =  -654.130998395     A.U. after    9 cycles
 SCF Done:  E(RB3LYP) =  -654.131000329     A.U. after    9 cycles
 SCF Done:  E(RB3LYP) =  -654.131000908     A.U. after    8 cycles
 Optimization completed.
    -- Stationary point found.
 Normal termination of Gaussian 16 at Thu Dec 10 16:40:56 2020.

 --------------------------------------------------------------------
 #N Geom=AllCheck Guess=TCheck SCRF=Check GenChk RB3LYP/6-31G(d) Freq
 --------------------------------------------------------------------

 Structure from the checkpoint file:  "JID_5710.chk"
 -------------------------------
 CID_131607095_JID_5710_neutraal
 -------------------------------
 Charge =  0 Multiplicity = 1

 SCF Done:  E(RB3LYP) =  -654.131000908     A.U. after    1 cycles

  Exact polarizability: 184.730  -7.286 151.430   9.406   6.730  97.082
 Approx polarizability: 255.005 -10.597 228.565  21.727  12.803 148.396

                      1                      2                      3
                      A                      A                      A
 Frequencies --     41.5133                61.0078                70.0544
 Red. masses --      2.9626                 3.9681                 2.8702
 Frc consts  --      0.0030                 0.0087                 0.0083
 IR Inten    --      0.0112                 0.3873                 1.8421

                      4                      5                      6
                      A                      A                      A
 Frequencies --     93.8909               102.8973               121.2671
 Red. masses --      1.4252                 1.6000                 2.0845
 Frc consts  --      0.0074                 0.0100                 0.0181
 IR Inten    --      1.7763                 0.6559                 3.8125

                      7                      8                      9
                      A                      A                      A
 Frequencies --    152.6570               176.5753               196.5437
 Red. masses --      2.0281                 3.0948                 3.2547
 Frc consts  --      0.0278                 0.0569                 0.0741
 IR Inten    --      0.9893                 1.4823                 0.1727

                     10                     11                     12
                      A                      A                      A
 Frequencies --    234.4689               249.0729               258.5237
 Red. masses --      1.1432                 1.7531                 4.5859
 Frc consts  --      0.0370                 0.0641                 0.1806
 IR Inten    --      0.9961                 1.3266                 6.9059

                     13                     14                     15
                      A                      A                      A
 Frequencies --    277.3703               289.4310               306.1860
 Red. masses --      2.5310                 1.2375                 1.1683
 Frc consts  --      0.1147                 0.0611                 0.0645
 IR Inten    --      0.0997                 0.5998                 0.9095

                     16                     17                     18
                      A                      A                      A
 Frequencies --    319.8681               341.1209               347.5565
 Red. masses --      2.5186                 4.3748                 3.1755
 Frc consts  --      0.1518                 0.2999                 0.2260
 IR Inten    --      7.6079                 1.0804                 0.0588

                     19                     20                     21
                      A                      A                      A
 Frequencies --    370.0085               391.5639               399.5557
 Red. masses --      2.1501                 2.3655                 1.1083
 Frc consts  --      0.1734                 0.2137                 0.1042
 IR Inten    --      4.7911                 0.9867                98.5659

                     22                     23                     24
                      A                      A                      A
 Frequencies --    420.0314               444.4680               485.0428
 Red. masses --      1.8214                 3.7931                 3.1969
 Frc consts  --      0.1893                 0.4415                 0.4431
 IR Inten    --      1.3800                 6.3236                 5.3540

                     25                     26                     27
                      A                      A                      A
 Frequencies --    564.3209               579.6400               611.3956
 Red. masses --      2.9402                 3.0502                 4.2645
 Frc consts  --      0.5517                 0.6038                 0.9392
 IR Inten    --      1.1796                 3.7017                11.2388

                     28                     29                     30
                      A                      A                      A
 Frequencies --    632.8128               693.0763               707.4008
 Red. masses --      4.0901                 3.9794                 3.4376
 Frc consts  --      0.9650                 1.1262                 1.0135
 IR Inten    --     12.8499                 7.2620                15.5002

                     31                     32                     33
                      A                      A                      A
 Frequencies --    749.9874               771.2003               808.4865
 Red. masses --      3.1333                 4.8819                 1.4815
 Frc consts  --      1.0384                 1.7107                 0.5706
 IR Inten    --      7.7556                 8.1925                46.3056

                     34                     35                     36
                      A                      A                      A
 Frequencies --    838.5094               858.7991               904.1499
 Red. masses --      2.2374                 1.7613                 1.9714
 Frc consts  --      0.9269                 0.7654                 0.9495
 IR Inten    --     78.3811               141.4635                 0.5908

                     37                     38                     39
                      A                      A                      A
 Frequencies --    918.9739               952.5433               954.0350
 Red. masses --      2.1939                 1.6302                 1.5728
 Frc consts  --      1.0916                 0.8715                 0.8435
 IR Inten    --      1.9911                 5.5872                 0.7256

                     40                     41                     42
                      A                      A                      A
 Frequencies --    961.0300               976.2681              1046.0938
 Red. masses --      2.2603                 1.2026                 1.8571
 Frc consts  --      1.2300                 0.6753                 1.1973
 IR Inten    --     62.8476                 0.0358                 3.5798

                     43                     44                     45
                      A                      A                      A
 Frequencies --   1053.3389              1061.4711              1065.6951
 Red. masses --      1.7840                 1.4337                 1.4228
 Frc consts  --      1.1662                 0.9517                 0.9521
 IR Inten    --      4.0254                 0.5027                 0.5998

                     46                     47                     48
                      A                      A                      A
 Frequencies --   1122.3194              1158.9988              1160.8988
 Red. masses --      1.7335                 1.5905                 1.3134
 Frc consts  --      1.2865                 1.2588                 1.0429
 IR Inten    --     11.8003                 4.5783                 5.1569

                     49                     50                     51
                      A                      A                      A
 Frequencies --   1192.6525              1237.3719              1246.8960
 Red. masses --      1.6830                 1.8307                 2.1839
 Frc consts  --      1.4105                 1.6515                 2.0005
 IR Inten    --     30.8894                 6.0350                13.6487

                     52                     53                     54
                      A                      A                      A
 Frequencies --   1268.1094              1277.3902              1295.5262
 Red. masses --      2.6395                 2.6843                 3.9225
 Frc consts  --      2.5008                 2.5806                 3.8789
 IR Inten    --     43.3003                16.6170                87.3672

                     55                     56                     57
                      A                      A                      A
 Frequencies --   1323.6373              1366.2601              1399.8252
 Red. masses --      2.1330                 1.5674                 2.2027
 Frc consts  --      2.2018                 1.7238                 2.5431
 IR Inten    --      4.5958                10.5985                12.2970

                     58                     59                     60
                      A                      A                      A
 Frequencies --   1404.9367              1427.0164              1428.2963
 Red. masses --      1.5493                 1.2547                 1.2707
 Frc consts  --      1.8018                 1.5053                 1.5273
 IR Inten    --     10.4147                 5.1443                 6.1853

                     61                     62                     63
                      A                      A                      A
 Frequencies --   1446.8081              1457.8177              1473.0614
 Red. masses --      3.6314                 1.2827                 1.3783
 Frc consts  --      4.4787                 1.6061                 1.7621
 IR Inten    --     20.9377                 4.2852                30.9589

                     64                     65                     66
                      A                      A                      A
 Frequencies --   1497.9333              1504.8507              1506.0825
 Red. masses --      1.0800                 1.1073                 1.0481
 Frc consts  --      1.4277                 1.4774                 1.4008
 IR Inten    --     19.4269                12.7299                 7.9115

                     67                     68                     69
                      A                      A                      A
 Frequencies --   1511.4536              1518.4543              1520.9597
 Red. masses --      1.0501                 1.0569                 1.0671
 Frc consts  --      1.4135                 1.4358                 1.4545
 IR Inten    --      1.1793                 3.1559                 1.5876

                     70                     71                     72
                      A                      A                      A
 Frequencies --   1521.3589              1535.5776              1537.2995
 Red. masses --      1.0788                 1.1879                 1.0713
 Frc consts  --      1.4712                 1.6504                 1.4916
 IR Inten    --     19.7568                18.3840                 1.9319

                     73                     74                     75
                      A                      A                      A
 Frequencies --   1540.3282              1551.7186              1562.2506
 Red. masses --      1.0645                 1.1233                 2.5705
 Frc consts  --      1.4881                 1.5936                 3.6963
 IR Inten    --      4.5791                18.5355               115.8143

                     76                     77                     78
                      A                      A                      A
 Frequencies --   1572.0427              1617.2292              1686.7987
 Red. masses --      2.3162                 6.7536                 1.7661
 Frc consts  --      3.3725                10.4070                 2.9608
 IR Inten    --    168.9829                64.5097               229.7605

                     79                     80                     81
                      A                      A                      A
 Frequencies --   1717.4419              3033.2178              3036.4001
 Red. masses --      4.1046                 1.0541                 1.0400
 Frc consts  --      7.1332                 5.7143                 5.6496
 IR Inten    --    193.3747                10.7861                52.9226

                     82                     83                     84
                      A                      A                      A
 Frequencies --   3039.5747              3047.2715              3051.1264
 Red. masses --      1.0356                 1.0392                 1.0376
 Frc consts  --      5.6375                 5.6858                 5.6913
 IR Inten    --     30.4717                11.3110                 4.9783

                     85                     86                     87
                      A                      A                      A
 Frequencies --   3054.6849              3075.6214              3100.5891
 Red. masses --      1.0415                 1.1001                 1.1022
 Frc consts  --      5.7261                 6.1311                 6.2431
 IR Inten    --     57.7605                15.6382                 4.3973

                     88                     89                     90
                      A                      A                      A
 Frequencies --   3103.2562              3105.6147              3109.4659
 Red. masses --      1.1018                 1.1016                 1.1000
 Frc consts  --      6.2518                 6.2598                 6.2663
 IR Inten    --     10.6185                46.8781                10.8791

                     91                     92                     93
                      A                      A                      A
 Frequencies --   3110.7616              3117.9249              3121.7192
 Red. masses --      1.1011                 1.1019                 1.0978
 Frc consts  --      6.2776                 6.3113                 6.3031
 IR Inten    --     80.5750                29.8855                12.0196

                     94                     95                     96
                      A                      A                      A
 Frequencies --   3128.5078              3165.4686              3168.0742
 Red. masses --      1.1004                 1.1016                 1.1011
 Frc consts  --      6.3459                 6.5034                 6.5116
 IR Inten    --     35.3289                15.9187                 8.6105

                     97                     98                     99
                      A                      A                      A
 Frequencies --   3257.2823              3440.2074              3578.6110
 Red. masses --      1.0954                 1.0544                 1.0912
 Frc consts  --      6.8473                 7.3526                 8.2334
 IR Inten    --      4.1371                75.6825                24.6879

 - Thermochemistry -
 -------------------
 Temperature   298.150 Kelvin.  Pressure   1.00000 Atm.
 Atom     1 has atomic number  6 and mass  12.00000

 Molecular mass:   208.15756 amu.
 Principal axes and moments of inertia in atomic units:
                           1         2         3
     Eigenvalues --  1724.528135073.462906198.83902
           X            0.99998  -0.00504  -0.00278
           Y            0.00506   0.99996   0.00685
           Z            0.00275  -0.00686   0.99997
 This molecule is an asymmetric top.
 Rotational symmetry number  1.
 Warning -- assumption of classical behavior for rotation
           may cause significant error
 Rotational temperatures (Kelvin)      0.05022     0.01707     0.01397
 Rotational constants (GHZ):           1.04651     0.35572     0.29114
 Zero-point vibrational energy     809243.1 (Joules/Mol)
                                  193.41375 (Kcal/Mol)
 Warning -- explicit consideration of  27 degrees of freedom as
           vibrations may cause significant error
 Vibrational temperatures:     59.73    87.78   100.79   135.09   148.05
          (Kelvin)            174.48   219.64   254.05   282.78   337.35
                              358.36   371.96   399.07   416.43   440.53
                              460.22   490.80   500.06   532.36   563.37
                              574.87   604.33   639.49   697.87   811.93
                              833.97   879.66   910.48   997.18  1017.79
                             1079.06  1109.59  1163.23  1206.43  1235.62
                             1300.87  1322.20  1370.50  1372.64  1382.71
                             1404.63  1505.10  1515.52  1527.22  1533.30
                             1614.77  1667.54  1670.27  1715.96  1780.30
                             1794.01  1824.53  1837.88  1863.97  1904.42
                             1965.74  2014.04  2021.39  2053.16  2055.00
                             2081.63  2097.47  2119.41  2155.19  2165.14
                             2166.92  2174.64  2184.72  2188.32  2188.90
                             2209.35  2211.83  2216.19  2232.58  2247.73
                             2261.82  2326.83  2426.93  2471.02  4364.12
                             4368.70  4373.27  4384.34  4389.89  4395.01
                             4425.13  4461.06  4464.89  4468.29  4473.83
                             4475.69  4486.00  4491.46  4501.23  4554.40
                             4558.15  4686.50  4949.69  5148.82

 Zero-point correction=                           0.308224 (Hartree/Particle)
 Thermal correction to Energy=                    0.325075
 Thermal correction to Enthalpy=                  0.326019
 Thermal correction to Gibbs Free Energy=         0.264641
 Sum of electronic and zero-point Energies=           -653.822776
 Sum of electronic and thermal Energies=              -653.805926
 Sum of electronic and thermal Enthalpies=            -653.804981
 Sum of electronic and thermal Free Energies=         -653.866360

                     E (Thermal)             CV                S
                      KCal/Mol        Cal/Mol-Kelvin    Cal/Mol-Kelvin
 Total                  203.988             63.747            129.182
 Electronic               0.000              0.000              0.000
 Translational            0.889              2.981             41.903
 Rotational               0.889              2.981             32.361
 Vibrational            202.210             57.785             54.917
 Vibration     1          0.594              1.981              5.186
 Vibration     2          0.597              1.973              4.424
 Vibration     3          0.598              1.968              4.152
 Vibration     4          0.603              1.954              3.577
 Vibration     5          0.605              1.947              3.399
 Vibration     6          0.609              1.931              3.080
 Vibration     7          0.619              1.900              2.639
 Vibration     8          0.628              1.871              2.364
 Vibration     9          0.636              1.845              2.165
 Vibration    10          0.654              1.788              1.844
 Vibration    11          0.662              1.764              1.737
 Vibration    12          0.667              1.748              1.672
 Vibration    13          0.678              1.715              1.550
 Vibration    14          0.686              1.693              1.477
 Vibration    15          0.697              1.662              1.383
 Vibration    16          0.706              1.636              1.311
 Vibration    17          0.721              1.593              1.207
 Vibration    18          0.725              1.580              1.177
 Vibration    19          0.742              1.534              1.080
 Vibration    20          0.759              1.488              0.994
 Vibration    21          0.766              1.471              0.964
 Vibration    22          0.783              1.427              0.892
 Vibration    23          0.804              1.373              0.813
 Vibration    24          0.841              1.283              0.697
 Vibration    25          0.920              1.108              0.515
 Vibration    26          0.936              1.075              0.486
 Vibration    27          0.971              1.008              0.430

                           ! Non-Optimized Parameters !
 Normal termination of Gaussian 16 at Thu Dec 10 16:53:48 2020.

 ----------------------------------------------------------------------
 # B3LYP/6-311++G(d,p) empiricaldispersion=gd3bj scf=xqc pop=npa geom=c
 heck
 ----------------------------------------------------------------------

 ---------------------------------------
 CID_131607095_JID_5710_Energie_neutraal
 ---------------------------------------
 Structure from the checkpoint file:  "JID_5710.chk"
 Charge =  0 Multiplicity = 1

 SCF Done:  E(RB3LYP) =  -654.317432646     A.U. after   16 cycles
 Normal termination of Gaussian 16 at Thu Dec 10 17:01:48 2020.

 ----------------------------------------------------------------------
 # B3LYP/6-311++G(d,p) empiricaldispersion=gd3bj scf=xqc pop=npa geom=c
 heck
 ----------------------------------------------------------------------

 -------------------------------------
 CID_131607095_JID_5710_Energie_kation
 -------------------------------------
 Structure from the checkpoint file:  "JID_5710.chk"
 Charge =  1 Multiplicity = 2

 SCF Done:  E(UB3LYP) =  -654.058025027     A.U. after   22 cycles
 Normal termination of Gaussian 16 at Thu Dec 10 17:18:40 2020.
 Gaussian 16:  ES64L-G16RevA.03 25-Dec-2016

 ----------------------------------------------------------------------
 # B3LYP/6-311++G(d,p) empiricaldispersion=gd3bj scf=xqc pop=npa geom=c
 heck
 ----------------------------------------------------------------------

 ------------------------------------
 CID_131607095_JID_5710_Energie_anion
 ------------------------------------
 Structure from the checkpoint file:  "JID_5710.chk"
 Charge = -1 Multiplicity = 2

                         Standard orientation:
 ---------------------------------------------------------------------
 Center     Atomic      Atomic             Coordinates (Angstroms)
 Number     Number       Type             X           Y           Z
 ---------------------------------------------------------------------
      1          6           0        3.256352   -2.359049   -0.076284
      2          6           0        3.077284   -0.859572    0.088295
      3          8           0        4.031477   -0.155687    0.453807
      4          6           0        1.771963   -0.301471   -0.184395
      5          6           0        1.468789    1.055031   -0.008798
      6          7           0        0.149831    1.251841   -0.306335
      7          6           0       -0.435183    0.018057   -0.674058
      8          6           0        0.551265   -0.929776   -0.612302
      9          6           0       -1.884976   -0.135870   -1.006298
     10          6           0       -2.835359   -0.479401    0.181395
     11          6           0       -2.754047    0.598071    1.273290
     12          6           0       -4.269816   -0.545112   -0.366581
     13          6           0       -2.452382   -1.840919    0.780229
     14          6           0       -0.463786    2.564693   -0.335973
     15          7           0        2.326248    2.088892    0.310132
     16          1           0        4.285644   -2.629132    0.166536
     17          1           0        3.031355   -2.663197   -1.105639
     18          1           0        2.568690   -2.905240    0.580494
     19          1           0        0.415333   -1.977917   -0.840905
     20          1           0       -2.267250    0.765968   -1.502875
     21          1           0       -1.972124   -0.940840   -1.746278
     22          1           0       -3.038650    1.582778    0.882988
     23          1           0       -3.433587    0.361015    2.100120
     24          1           0       -1.740685    0.669392    1.682891
     25          1           0       -4.357963   -1.303655   -1.153762
     26          1           0       -4.981001   -0.802205    0.427097
     27          1           0       -4.576578    0.418375   -0.792317
     28          1           0       -2.523107   -2.635740    0.027266
     29          1           0       -1.426711   -1.828274    1.161562
     30          1           0       -3.123022   -2.101987    1.607229
     31          1           0       -0.853309    2.858788    0.645803
     32          1           0        0.284948    3.293655   -0.658785
     33          1           0       -1.289435    2.572321   -1.048423
     34          1           0        3.240914    1.691329    0.533803
     35          1           0        1.991552    2.726840    1.025042
 ---------------------------------------------------------------------

 SCF Done:  E(UB3LYP) =  -654.308729505     A.U. after   33 cycles
 SCF Done:  E(UB3LYP) =  -654.308729505     a.u. after    1 cycles

 The electronic state is 2-A.
 Alpha  occ. eigenvalues --  -18.99832 -14.26702 -14.22396 -10.15505 -10.14439
 Alpha  occ. eigenvalues --  -10.10703 -10.10149 -10.08848 -10.07985 -10.07837
 Alpha  occ. eigenvalues --  -10.06247 -10.06136 -10.06027 -10.05901 -10.05550
 Alpha  occ. eigenvalues --   -0.92865  -0.90183  -0.80720  -0.73218  -0.71622
 Alpha  occ. eigenvalues --   -0.65812  -0.64280  -0.59876  -0.59039  -0.58753
 Alpha  occ. eigenvalues --   -0.57110  -0.51472  -0.47443  -0.45318  -0.42966
 Alpha  occ. eigenvalues --   -0.42057  -0.38364  -0.37885  -0.37329  -0.35534
 Alpha  occ. eigenvalues --   -0.35081  -0.34990  -0.34547  -0.34223  -0.32948
 Alpha  occ. eigenvalues --   -0.31331  -0.30838  -0.29784  -0.29399  -0.29214
 Alpha  occ. eigenvalues --   -0.28484  -0.27040  -0.26781  -0.26583  -0.25672
 Alpha  occ. eigenvalues --   -0.23611  -0.22898  -0.22768  -0.20726  -0.15442
 Alpha  occ. eigenvalues --   -0.14992  -0.09624   0.04060
 Alpha virt. eigenvalues --    0.06342   0.06405   0.06895   0.07869   0.08375
 Alpha virt. eigenvalues --    0.09001   0.09339   0.09983   0.10214   0.10702
 Alpha virt. eigenvalues --    0.11457   0.11765   0.12036   0.12662   0.12762

  Beta  occ. eigenvalues --  -18.99822 -14.26700 -14.22359 -10.15497 -10.14435
  Beta  occ. eigenvalues --  -10.10636 -10.10151 -10.08846 -10.07980 -10.07814
  Beta  occ. eigenvalues --  -10.06241 -10.06137 -10.05996 -10.05881 -10.05514
  Beta  occ. eigenvalues --   -0.92848  -0.90165  -0.80672  -0.73199  -0.71598
  Beta  occ. eigenvalues --   -0.65791  -0.64251  -0.59813  -0.58989  -0.58694
  Beta  occ. eigenvalues --   -0.57068  -0.51448  -0.47395  -0.45268  -0.42893
  Beta  occ. eigenvalues --   -0.42013  -0.38326  -0.37854  -0.37298  -0.35506
  Beta  occ. eigenvalues --   -0.35048  -0.34951  -0.34521  -0.34201  -0.32911
  Beta  occ. eigenvalues --   -0.31300  -0.30805  -0.29765  -0.29369  -0.29184
  Beta  occ. eigenvalues --   -0.28458  -0.27009  -0.26749  -0.26555  -0.25634
  Beta  occ. eigenvalues --   -0.23580  -0.22865  -0.22733  -0.20692  -0.15431
  Beta  occ. eigenvalues --   -0.14970  -0.09600
  Beta virt. eigenvalues --    0.06223   0.06480   0.07072   0.07520   0.08502
  Beta virt. eigenvalues --    0.08907   0.09400   0.09806   0.10279   0.10680
  Beta virt. eigenvalues --    0.10805   0.11730   0.11909   0.12363   0.12769

 Mulliken charges and spin densities:
               1          2
     1  C   -0.253232  -0.261112
     2  C   -0.223996  -0.099018
     3  O   -0.366181   0.001452
     4  C    1.675008  -0.588227
     5  C   -0.807921   0.377342
     6  N   -0.063345   0.243391
     7  C    0.447098  -0.496923
     8  C   -0.206032  -0.345909
     9  C   -0.276146  -0.292249
    10  C   -1.504061   2.245538
    11  C    0.678067  -1.328261
    12  C    0.283280  -0.773171
    13  C    0.198416  -0.955758
    14  C    1.213097  -1.592997
    15  N   -0.386057   0.030352
    16  H    0.164727   0.008854
    17  H    0.069273   0.076460
    18  H    0.096900   0.054461
    19  H    0.117521   0.047650
    20  H    0.240533  -0.065430
    21  H   -0.026407   0.201405
    22  H   -0.084192   0.232888
    23  H   -0.110134   0.267180
    24  H   -0.110678   0.285710
    25  H   -0.158534   0.289209
    26  H   -0.089324   0.228884
    27  H   -0.296926   0.441264
    28  H   -0.087487   0.228862
    29  H    0.165869  -0.017309
    30  H   -0.027318   0.164274
    31  H   -0.529997   0.751697
    32  H   -0.285333   0.464772
    33  H   -0.544937   0.698515
    34  H    0.234427   0.073634
    35  H   -0.145981   0.402570
 Sum of Mulliken charges =  -1.00000   1.00000

 Dipole moment (field-independent basis, Debye):
    X=              2.8322    Y=             -5.4792    Z=             -0.9270  Tot=              6.2372
 Quadrupole moment (field-independent basis, Debye-Ang):
   XX=           -172.7628   YY=           -143.5657   ZZ=           -126.3211
   XY=             -0.4389   XZ=             -2.5239   YZ=             -1.8876

 Summary of Natural Population Analysis:

                                       Natural Population
                Natural  -----------------------------------------------
    Atom  No    Charge         Core      Valence    Rydberg      Total
 -----------------------------------------------------------------------
      C    1   -0.32637      0.99964     2.32203    0.00471     3.32637
      C    2    0.26712      0.99959     1.71457    0.01871     2.73288
      O    3   -0.32920      0.99988     3.32303    0.00630     4.32920
      C    4   -0.14134      0.99942     2.13215    0.00977     3.14134
      C    5    0.22000      0.99948     1.76573    0.01478     2.78000
      N    6   -0.21762      0.99961     2.70518    0.01282     3.71762
      C    7    0.10743      0.99951     1.88288    0.01018     2.89257
      C    8   -0.13499      0.99951     2.12595    0.00953     3.13499
      C    9   -0.21530      0.99958     2.20111    0.01462     3.21530
      C   10   -0.04566      0.99959     2.03395    0.01212     3.04566
      C   11   -0.28794      0.99962     2.28014    0.00818     3.28794
      C   12   -0.28399      0.99962     2.27681    0.00756     3.28399
      C   13   -0.28591      0.99962     2.27999    0.00630     3.28591
      C   14   -0.18069      0.99963     2.17187    0.00919     3.18069
      N   15   -0.40326      0.99970     2.89432    0.00923     3.90326
      H   16    0.10611      0.00000     0.39264    0.00125     0.39389
      H   17    0.10614      0.00000     0.39264    0.00122     0.39386
      H   18    0.10669      0.00000     0.39206    0.00125     0.39331
      H   19    0.10481      0.00000     0.39423    0.00097     0.39519
      H   20    0.10712      0.00000     0.39113    0.00175     0.39288
      H   21    0.10793      0.00000     0.39089    0.00118     0.39207
      H   22    0.10173      0.00000     0.39662    0.00166     0.39827
      H   23    0.09993      0.00000     0.39902    0.00105     0.40007
      H   24    0.10231      0.00000     0.39621    0.00148     0.39769
      H   25    0.09823      0.00000     0.40071    0.00105     0.40177
      H   26    0.09954      0.00000     0.39948    0.00098     0.40046
      H   27    0.10168      0.00000     0.39711    0.00122     0.39832
      H   28    0.09678      0.00000     0.40219    0.00102     0.40322
      H   29    0.10486      0.00000     0.39400    0.00114     0.39514
      H   30    0.09884      0.00000     0.40027    0.00089     0.40116
      H   31    0.10269      0.00000     0.39420    0.00311     0.39731
      H   32    0.10628      0.00000     0.39199    0.00174     0.39372
      H   33    0.10654      0.00000     0.39141    0.00205     0.39346
      H   34    0.20883      0.00000     0.28913    0.00204     0.29117
      H   35    0.19072      0.00000     0.30657    0.00270     0.30928
 =======================================================================
   * Total *    0.00004     14.99400    41.82221    0.18375    56.99996

 Normal termination of Gaussian 16 at Thu Dec 10 17:42:44 2020.
