 Gaussian 16, Revision A.03,

 -----------------------------------------------------------
 # opt freq B3LYP/6-31G(d) empiricaldispersion=gd3bj scf=xqc
 -----------------------------------------------------------

 ------------------------------
 CID_82287357_JID_7703_neutraal
 ------------------------------
 Symbolic Z-matrix:
 Charge =  0 Multiplicity = 1

 SCF Done:  E(RB3LYP) =  -721.695292838     A.U. after   14 cycles
 SCF Done:  E(RB3LYP) =  -721.700359582     A.U. after   12 cycles
 SCF Done:  E(RB3LYP) =  -721.701699619     A.U. after   12 cycles
 SCF Done:  E(RB3LYP) =  -721.702452523     A.U. after   12 cycles
 SCF Done:  E(RB3LYP) =  -721.702546697     A.U. after   10 cycles
 SCF Done:  E(RB3LYP) =  -721.702598595     A.U. after   10 cycles
 SCF Done:  E(RB3LYP) =  -721.702612416     A.U. after   10 cycles
 SCF Done:  E(RB3LYP) =  -721.702613566     A.U. after    8 cycles
 SCF Done:  E(RB3LYP) =  -721.702613817     A.U. after    8 cycles
 Optimization completed.
    -- Stationary point found.
 Normal termination of Gaussian 16 at Fri Dec 11 13:02:33 2020.

 --------------------------------------------------------------------
 #N Geom=AllCheck Guess=TCheck SCRF=Check GenChk RB3LYP/6-31G(d) Freq
 --------------------------------------------------------------------

 Structure from the checkpoint file:  "JID_7703.chk"
 ------------------------------
 CID_82287357_JID_7703_neutraal
 ------------------------------
 Charge =  0 Multiplicity = 1

 SCF Done:  E(RB3LYP) =  -721.702613817     A.U. after    1 cycles

  Exact polarizability: 253.967  -1.054 193.165   0.133   0.176  59.094
 Approx polarizability: 368.144  10.504 341.802  -0.552  -0.931  93.615

                      1                      2                      3
                      A                      A                      A
 Frequencies --     41.1111                69.9603                93.1776
 Red. masses --      4.7519                 3.7442                 1.2689
 Frc consts  --      0.0047                 0.0108                 0.0065
 IR Inten    --      2.0526                 3.8570                 0.1152

                      4                      5                      6
                      A                      A                      A
 Frequencies --     95.1391               138.3928               177.2328
 Red. masses --      4.9885                 2.3195                 4.8304
 Frc consts  --      0.0266                 0.0262                 0.0894
 IR Inten    --      1.4089                 2.2201                 0.2956

                      7                      8                      9
                      A                      A                      A
 Frequencies --    211.0893               235.4748               249.7188
 Red. masses --      5.5357                 3.3535                 3.9844
 Frc consts  --      0.1453                 0.1096                 0.1464
 IR Inten    --      3.4692                 1.5956                 1.3506

                     10                     11                     12
                      A                      A                      A
 Frequencies --    277.3728               326.4504               328.8003
 Red. masses --      4.4800                 5.6449                 6.1005
 Frc consts  --      0.2031                 0.3544                 0.3886
 IR Inten    --      3.7285                 0.1984                 2.5607

                     13                     14                     15
                      A                      A                      A
 Frequencies --    405.1503               436.4544               440.2130
 Red. masses --      1.2128                 3.0376                 2.6853
 Frc consts  --      0.1173                 0.3409                 0.3066
 IR Inten    --    135.3070                18.5247                46.5231

                     16                     17                     18
                      A                      A                      A
 Frequencies --    448.9000               504.3078               549.3290
 Red. masses --      2.6138                 1.4736                 5.2593
 Frc consts  --      0.3103                 0.2208                 0.9351
 IR Inten    --     28.1308               158.6190                 2.4681

                     19                     20                     21
                      A                      A                      A
 Frequencies --    564.5534               583.5208               584.0383
 Red. masses --      5.1439                 4.1331                 4.7531
 Frc consts  --      0.9660                 0.8292                 0.9552
 IR Inten    --      7.5206                 0.9733                17.8536

                     22                     23                     24
                      A                      A                      A
 Frequencies --    617.7001               621.0213               712.3187
 Red. masses --      3.7699                 5.2424                 4.1334
 Frc consts  --      0.8475                 1.1912                 1.2357
 IR Inten    --      1.3679                 5.1965                 5.5735

                     25                     26                     27
                      A                      A                      A
 Frequencies --    714.1457               758.6234               774.0349
 Red. masses --      6.1592                 1.2833                 5.0664
 Frc consts  --      1.8508                 0.4351                 1.7884
 IR Inten    --     11.7997                53.9175                 0.1161

                     28                     29                     30
                      A                      A                      A
 Frequencies --    781.2488               796.9984               800.1146
 Red. masses --      3.9168                 5.0988                 1.6424
 Frc consts  --      1.4085                 1.9082                 0.6195
 IR Inten    --      0.8125                 7.5164                 1.2126

                     31                     32                     33
                      A                      A                      A
 Frequencies --    813.5436               855.0258               867.0874
 Red. masses --      3.0501                 1.7684                 1.5839
 Frc consts  --      1.1894                 0.7617                 0.7016
 IR Inten    --     59.2116                 0.5017                 0.3415

                     34                     35                     36
                      A                      A                      A
 Frequencies --    917.0969               932.7104               982.8222
 Red. masses --      5.0339                 1.3217                 1.2502
 Frc consts  --      2.4945                 0.6774                 0.7115
 IR Inten    --     15.5856                 1.4861                 0.2934

                     37                     38                     39
                      A                      A                      A
 Frequencies --    988.8775               996.1322              1022.2711
 Red. masses --      1.3736                 6.9675                 3.8699
 Frc consts  --      0.7914                 4.0734                 2.3828
 IR Inten    --      0.4558                 9.7879                 1.2003

                     40                     41                     42
                      A                      A                      A
 Frequencies --   1045.8532              1076.3324              1104.6325
 Red. masses --      2.0620                 1.9227                 1.9410
 Frc consts  --      1.3289                 1.3124                 1.3955
 IR Inten    --     12.2264                17.9721                31.1349

                     43                     44                     45
                      A                      A                      A
 Frequencies --   1123.6582              1150.1459              1158.9901
 Red. masses --      1.6347                 1.6974                 1.6676
 Frc consts  --      1.2161                 1.3230                 1.3198
 IR Inten    --     32.5246                25.3881                36.1710

                     46                     47                     48
                      A                      A                      A
 Frequencies --   1161.1225              1190.4290              1199.2348
 Red. masses --      1.2961                 1.2389                 1.6001
 Frc consts  --      1.0296                 1.0344                 1.3558
 IR Inten    --      0.0686                16.0304                13.4383

                     49                     50                     51
                      A                      A                      A
 Frequencies --   1268.6865              1299.9182              1308.6734
 Red. masses --      1.9549                 4.7537                 2.1657
 Frc consts  --      1.8539                 4.7327                 2.1853
 IR Inten    --     63.1374                18.2259                13.7291

                     52                     53                     54
                      A                      A                      A
 Frequencies --   1372.8803              1376.9337              1396.9752
 Red. masses --      1.9304                 3.9211                 4.2049
 Frc consts  --      2.1437                 4.3801                 4.8349
 IR Inten    --     12.8784                53.5643                 3.4174

                     55                     56                     57
                      A                      A                      A
 Frequencies --   1406.7426              1423.4198              1472.5792
 Red. masses --      3.9148                 4.4515                 1.6969
 Frc consts  --      4.5644                 5.3140                 2.1681
 IR Inten    --    261.2675                 8.9248                26.2791

                     58                     59                     60
                      A                      A                      A
 Frequencies --   1481.7193              1497.0614              1508.5137
 Red. masses --      2.4355                 3.0058                 1.0413
 Frc consts  --      3.1504                 3.9690                 1.3961
 IR Inten    --     19.7382               209.5801                 7.2644

                     61                     62                     63
                      A                      A                      A
 Frequencies --   1520.1647              1531.8673              1552.8576
 Red. masses --      2.3168                 2.3272                 1.3671
 Frc consts  --      3.1544                 3.2176                 1.9422
 IR Inten    --     66.3754                20.1960                 3.6953

                     64                     65                     66
                      A                      A                      A
 Frequencies --   1598.7630              1617.8633              1631.3093
 Red. masses --      5.3784                 4.3504                 6.3388
 Frc consts  --      8.0997                 6.7090                 9.9388
 IR Inten    --    499.6625               138.7618                44.3523

                     67                     68                     69
                      A                      A                      A
 Frequencies --   1633.9879              1671.7887              1677.8757
 Red. masses --      4.5149                 2.7067                 2.2373
 Frc consts  --      7.1023                 4.4572                 3.7109
 IR Inten    --    178.0767               154.4178               151.3967

                     70                     71                     72
                      A                      A                      A
 Frequencies --   3048.8117              3103.4055              3159.4443
 Red. masses --      1.0352                 1.1057                 1.1010
 Frc consts  --      5.6694                 6.2741                 6.4755
 IR Inten    --     73.5097                23.3026                 8.0215

                     73                     74                     75
                      A                      A                      A
 Frequencies --   3163.0898              3182.4236              3194.0341
 Red. masses --      1.0897                 1.0855                 1.0900
 Frc consts  --      6.4236                 6.4776                 6.5520
 IR Inten    --     42.5816                 1.6700                23.8570

                     76                     77                     78
                      A                      A                      A
 Frequencies --   3207.4371              3211.9266              3245.8999
 Red. masses --      1.0959                 1.0940                 1.0920
 Frc consts  --      6.6427                 6.6498                 6.7788
 IR Inten    --     35.8081                16.4208                 5.2890

                     79                     80                     81
                      A                      A                      A
 Frequencies --   3288.7991              3579.6564              3695.6347
 Red. masses --      1.0965                 1.0464                 1.1014
 Frc consts  --      6.9880                 7.9003                 8.8627
 IR Inten    --      0.9161                34.4020                24.1364

 - Thermochemistry -
 -------------------
 Temperature   298.150 Kelvin.  Pressure   1.00000 Atm.
 Atom     1 has atomic number  6 and mass  12.00000

 Molecular mass:   224.10620 amu.
 Principal axes and moments of inertia in atomic units:
                           1         2         3
     Eigenvalues --  1975.952355680.635297644.07571
           X            0.99988   0.01548   0.00110
           Y           -0.01548   0.99988   0.00171
           Z           -0.00107  -0.00173   1.00000
 This molecule is an asymmetric top.
 Rotational symmetry number  1.
 Warning -- assumption of classical behavior for rotation
           may cause significant error
 Rotational temperatures (Kelvin)      0.04383     0.01525     0.01133
 Rotational constants (GHZ):           0.91335     0.31770     0.23610
 Zero-point vibrational energy     611613.0 (Joules/Mol)
                                  146.17901 (Kcal/Mol)
 Warning -- explicit consideration of  22 degrees of freedom as
           vibrations may cause significant error
 Vibrational temperatures:     59.15   100.66   134.06   136.88   199.12
          (Kelvin)            255.00   303.71   338.80   359.29   399.08
                              469.69   473.07   582.92   627.96   633.37
                              645.87   725.59   790.36   812.27   839.56
                              840.30   888.73   893.51  1024.87  1027.50
                             1091.49  1113.66  1124.04  1146.70  1151.19
                             1170.51  1230.19  1247.55  1319.50  1341.96
                             1414.06  1422.77  1433.21  1470.82  1504.75
                             1548.60  1589.32  1616.69  1654.80  1667.53
                             1670.60  1712.76  1725.43  1825.36  1870.29
                             1882.89  1975.27  1981.10  2009.94  2023.99
                             2047.98  2118.71  2131.86  2153.94  2170.41
                             2187.18  2204.02  2234.22  2300.26  2327.74
                             2347.09  2350.94  2405.33  2414.09  4386.56
                             4465.11  4545.74  4550.98  4578.80  4595.50
                             4614.79  4621.25  4670.13  4731.85  5150.33
                             5317.19

 Zero-point correction=                           0.232951 (Hartree/Particle)
 Thermal correction to Energy=                    0.246693
 Thermal correction to Enthalpy=                  0.247637
 Thermal correction to Gibbs Free Energy=         0.192107
 Sum of electronic and zero-point Energies=           -721.469663
 Sum of electronic and thermal Energies=              -721.455921
 Sum of electronic and thermal Enthalpies=            -721.454977
 Sum of electronic and thermal Free Energies=         -721.510506

                     E (Thermal)             CV                S
                      KCal/Mol        Cal/Mol-Kelvin    Cal/Mol-Kelvin
 Total                  154.802             54.408            116.872
 Electronic               0.000              0.000              0.000
 Translational            0.889              2.981             42.123
 Rotational               0.889              2.981             32.817
 Vibrational            153.025             48.447             41.932
 Vibration     1          0.594              1.981              5.205
 Vibration     2          0.598              1.968              4.154
 Vibration     3          0.602              1.954              3.592
 Vibration     4          0.603              1.953              3.552
 Vibration     5          0.614              1.915              2.826
 Vibration     6          0.628              1.870              2.357
 Vibration     7          0.643              1.824              2.034
 Vibration     8          0.655              1.787              1.837
 Vibration     9          0.663              1.763              1.733
 Vibration    10          0.678              1.715              1.550
 Vibration    11          0.710              1.623              1.278
 Vibration    12          0.712              1.618              1.266
 Vibration    13          0.770              1.459              0.944
 Vibration    14          0.797              1.391              0.838
 Vibration    15          0.800              1.382              0.826
 Vibration    16          0.808              1.363              0.799
 Vibration    17          0.860              1.240              0.647
 Vibration    18          0.905              1.141              0.546
 Vibration    19          0.920              1.108              0.515
 Vibration    20          0.940              1.067              0.479
 Vibration    21          0.941              1.066              0.478
 Vibration    22          0.977              0.994              0.420

                           ! Non-Optimized Parameters !
 Normal termination of Gaussian 16 at Fri Dec 11 13:12:33 2020.

 ----------------------------------------------------------------------
 # B3LYP/6-311++G(d,p) empiricaldispersion=gd3bj scf=xqc pop=npa geom=c
 heck
 ----------------------------------------------------------------------

 --------------------------------------
 CID_82287357_JID_7703_Energie_neutraal
 --------------------------------------
 Structure from the checkpoint file:  "JID_7703.chk"
 Charge =  0 Multiplicity = 1

 SCF Done:  E(RB3LYP) =  -721.891053804     A.U. after   15 cycles
 Normal termination of Gaussian 16 at Fri Dec 11 13:17:20 2020.

 ----------------------------------------------------------------------
 # B3LYP/6-311++G(d,p) empiricaldispersion=gd3bj scf=xqc pop=npa geom=c
 heck
 ----------------------------------------------------------------------

 ------------------------------------
 CID_82287357_JID_7703_Energie_kation
 ------------------------------------
 Structure from the checkpoint file:  "JID_7703.chk"
 Charge =  1 Multiplicity = 2

 SCF Done:  E(UB3LYP) =  -721.633403875     A.U. after   22 cycles
 Normal termination of Gaussian 16 at Fri Dec 11 13:26:47 2020.
 Gaussian 16:  ES64L-G16RevA.03 25-Dec-2016

 ----------------------------------------------------------------------
 # B3LYP/6-311++G(d,p) empiricaldispersion=gd3bj scf=xqc pop=npa geom=c
 heck
 ----------------------------------------------------------------------

 -----------------------------------
 CID_82287357_JID_7703_Energie_anion
 -----------------------------------
 Structure from the checkpoint file:  "JID_7703.chk"
 Charge = -1 Multiplicity = 2

                         Standard orientation:
 ---------------------------------------------------------------------
 Center     Atomic      Atomic             Coordinates (Angstroms)
 Number     Number       Type             X           Y           Z
 ---------------------------------------------------------------------
      1          6           0       -3.247643   -2.475158    0.012503
      2          7           0       -2.176928   -1.502129    0.007950
      3          6           0       -0.832707   -1.775504    0.005626
      4          6           0       -0.103637   -0.602176   -0.000703
      5          6           0       -1.065307    0.479053   -0.002891
      6          6           0       -0.978125    1.879488   -0.011309
      7          6           0       -2.151680    2.625517   -0.012396
      8          6           0       -3.415994    2.005738   -0.005527
      9          6           0       -3.534650    0.619556    0.001827
     10          6           0       -2.352759   -0.124252    0.002747
     11          6           0        1.349769   -0.541877   -0.003632
     12          7           0        2.008399   -1.721288   -0.010136
     13          6           0        3.342652   -1.641616   -0.012736
     14          6           0        4.043722   -0.445806   -0.010292
     15          6           0        3.262451    0.725140   -0.000794
     16          7           0        1.923297    0.675607    0.006591
     17          7           0        3.827129    1.976346   -0.038067
     18          1           0       -3.876584   -2.356661    0.902294
     19          1           0       -3.876557   -2.365330   -0.878436
     20          1           0       -2.816286   -3.477847    0.017401
     21          1           0       -0.467295   -2.791646    0.008456
     22          1           0       -0.003181    2.350518   -0.018247
     23          1           0       -2.094779    3.710559   -0.019505
     24          1           0       -4.313313    2.617990   -0.006707
     25          1           0       -4.508264    0.138327    0.006106
     26          1           0        3.879060   -2.589848   -0.016587
     27          1           0        5.128082   -0.414683   -0.021087
     28          1           0        3.201068    2.733538    0.201535
     29          1           0        4.778228    2.076705    0.285873
 ---------------------------------------------------------------------

 SCF Done:  E(UB3LYP) =  -721.883676645     A.U. after   33 cycles
 SCF Done:  E(UB3LYP) =  -721.883676645     a.u. after    1 cycles

 The electronic state is 2-A.
 Alpha  occ. eigenvalues --  -14.25368 -14.21703 -14.17940 -14.17749 -10.13713
 Alpha  occ. eigenvalues --  -10.11585 -10.11201 -10.09672 -10.09470 -10.08213
 Alpha  occ. eigenvalues --  -10.06861 -10.06654 -10.06210 -10.06002 -10.05630
 Alpha  occ. eigenvalues --  -10.05339 -10.04745  -0.88340  -0.86799  -0.81303
 Alpha  occ. eigenvalues --   -0.74494  -0.73883  -0.69968  -0.65993  -0.64146
 Alpha  occ. eigenvalues --   -0.61638  -0.59280  -0.53728  -0.52780  -0.51082
 Alpha  occ. eigenvalues --   -0.47842  -0.46232  -0.43073  -0.42685  -0.39286
 Alpha  occ. eigenvalues --   -0.38359  -0.36846  -0.36782  -0.35986  -0.34659
 Alpha  occ. eigenvalues --   -0.33590  -0.32261  -0.32033  -0.31541  -0.30138
 Alpha  occ. eigenvalues --   -0.28863  -0.28739  -0.27883  -0.25128  -0.24110
 Alpha  occ. eigenvalues --   -0.23495  -0.22620  -0.19179  -0.18122  -0.15843
 Alpha  occ. eigenvalues --   -0.13237  -0.12956  -0.12263  -0.09122   0.04227
 Alpha virt. eigenvalues --    0.05627   0.06258   0.07575   0.08295   0.08623
 Alpha virt. eigenvalues --    0.08662   0.09564   0.09886   0.10083   0.10419
 Alpha virt. eigenvalues --    0.11778   0.11814   0.12179   0.12767   0.14302

  Beta  occ. eigenvalues --  -14.25321 -14.21655 -14.17904 -14.17747 -10.13692
  Beta  occ. eigenvalues --  -10.11556 -10.11013 -10.09655 -10.09481 -10.07977
  Beta  occ. eigenvalues --  -10.06809 -10.06662 -10.06212 -10.05982 -10.05600
  Beta  occ. eigenvalues --  -10.05247 -10.04779  -0.88200  -0.86664  -0.81205
  Beta  occ. eigenvalues --   -0.74405  -0.73827  -0.69853  -0.65838  -0.64068
  Beta  occ. eigenvalues --   -0.61481  -0.59170  -0.53497  -0.52693  -0.50941
  Beta  occ. eigenvalues --   -0.47789  -0.46126  -0.42993  -0.42613  -0.39198
  Beta  occ. eigenvalues --   -0.38266  -0.36699  -0.36672  -0.35900  -0.34541
  Beta  occ. eigenvalues --   -0.33537  -0.32203  -0.31928  -0.31221  -0.30085
  Beta  occ. eigenvalues --   -0.28740  -0.28613  -0.27824  -0.25092  -0.23821
  Beta  occ. eigenvalues --   -0.23473  -0.22312  -0.18800  -0.18056  -0.15577
  Beta  occ. eigenvalues --   -0.13163  -0.12668  -0.11935  -0.08657
  Beta virt. eigenvalues --    0.06344   0.07147   0.07631   0.07687   0.08467
  Beta virt. eigenvalues --    0.08904   0.08987   0.09841   0.10246   0.10477
  Beta virt. eigenvalues --    0.10591   0.11898   0.11990   0.12561   0.12878

 Mulliken charges and spin densities:
               1          2
     1  C    0.506556  -0.848314
     2  N    0.036240   0.094630
     3  C   -0.257205   0.503982
     4  C    0.906051  -0.576128
     5  C    0.794127  -0.195713
     6  C   -0.738406  -0.050763
     7  C   -0.631498   0.041033
     8  C   -0.352579  -0.033744
     9  C   -0.850697   0.452135
    10  C   -0.024751  -0.183065
    11  C   -0.274290  -0.176781
    12  N   -0.075016   0.007660
    13  C    0.139375  -0.074539
    14  C   -0.058495  -0.024492
    15  C    0.514182  -0.289835
    16  N   -0.019340  -0.041013
    17  N   -0.320424   0.028555
    18  H    0.027737   0.130140
    19  H   -0.329413   0.511556
    20  H   -0.139978   0.271772
    21  H    0.184643   0.034322
    22  H    0.142450   0.038312
    23  H    0.113581   0.024774
    24  H    0.100671   0.029249
    25  H   -0.029550   0.160044
    26  H    0.114361   0.034582
    27  H   -0.208328   0.358111
    28  H    0.139764   0.104728
    29  H   -0.409771   0.668803
 Sum of Mulliken charges =  -1.00000   1.00000

 Dipole moment (field-independent basis, Debye):
    X=             -3.4952    Y=             -0.2838    Z=              0.9482  Tot=              3.6327
 Quadrupole moment (field-independent basis, Debye-Ang):
   XX=           -178.0617   YY=           -130.1197   ZZ=           -119.7587
   XY=            -15.9609   XZ=             -8.7470   YZ=             -4.3457

 Summary of Natural Population Analysis:

                                       Natural Population
                Natural  -----------------------------------------------
    Atom  No    Charge         Core      Valence    Rydberg      Total
 -----------------------------------------------------------------------
      C    1   -0.17210      0.99965     2.16514    0.00731     3.17210
      N    2   -0.20059      0.99961     2.69270    0.00828     3.70059
      C    3    0.08319      0.99953     1.90575    0.01153     2.91681
      C    4   -0.09149      0.99947     2.08070    0.01132     3.09149
      C    5   -0.02813      0.99947     2.02031    0.00835     3.02813
      C    6   -0.08896      0.99953     2.08058    0.00884     3.08896
      C    7   -0.11714      0.99958     2.10732    0.01024     3.11714
      C    8   -0.11680      0.99959     2.10727    0.00995     3.11680
      C    9   -0.11707      0.99953     2.10830    0.00924     3.11707
      C   10    0.07836      0.99948     1.91125    0.01091     2.92164
      C   11    0.24834      0.99956     1.73635    0.01575     2.75166
      N   12   -0.27294      0.99969     2.76339    0.00986     3.77294
      C   13    0.04779      0.99960     1.93880    0.01381     2.95221
      C   14   -0.16965      0.99951     2.16055    0.00959     3.16965
      C   15    0.21554      0.99955     1.76997    0.01494     2.78446
      N   16   -0.27785      0.99965     2.76895    0.00925     3.77785
      N   17   -0.39147      0.99970     2.88189    0.00988     3.89147
      H   18    0.09342      0.00000     0.40557    0.00101     0.40658
      H   19    0.09957      0.00000     0.39818    0.00225     0.40043
      H   20    0.10181      0.00000     0.39741    0.00078     0.39819
      H   21    0.10364      0.00000     0.39499    0.00137     0.39636
      H   22    0.11275      0.00000     0.38607    0.00118     0.38725
      H   23    0.09497      0.00000     0.40427    0.00076     0.40503
      H   24    0.09494      0.00000     0.40430    0.00077     0.40506
      H   25    0.10060      0.00000     0.39842    0.00099     0.39940
      H   26    0.08388      0.00000     0.41505    0.00108     0.41612
      H   27    0.10239      0.00000     0.39655    0.00106     0.39761
      H   28    0.19109      0.00000     0.30688    0.00203     0.30891
      H   29    0.19192      0.00000     0.30099    0.00709     0.30808
 =======================================================================
   * Total *   -0.00000     16.99269    41.80789    0.19942    59.00000

 Normal termination of Gaussian 16 at Fri Dec 11 13:41:30 2020.
