 Gaussian 16, Revision A.03,

 -----------------------------------------------------------
 # opt freq B3LYP/6-31G(d) empiricaldispersion=gd3bj scf=xqc
 -----------------------------------------------------------

 ------------------------------
 CID_64285234_JID_6091_neutraal
 ------------------------------
 Symbolic Z-matrix:
 Charge =  0 Multiplicity = 1

 SCF Done:  E(RB3LYP) =  -1106.80734613     A.U. after   15 cycles
 SCF Done:  E(RB3LYP) =  -1106.81344661     A.U. after   13 cycles
 SCF Done:  E(RB3LYP) =  -1106.81578683     A.U. after   13 cycles
 SCF Done:  E(RB3LYP) =  -1106.81809317     A.U. after   13 cycles
 SCF Done:  E(RB3LYP) =  -1106.81898203     A.U. after   12 cycles
 SCF Done:  E(RB3LYP) =  -1106.81967032     A.U. after   11 cycles
 SCF Done:  E(RB3LYP) =  -1106.81994750     A.U. after   12 cycles
 SCF Done:  E(RB3LYP) =  -1106.82011555     A.U. after   11 cycles
 SCF Done:  E(RB3LYP) =  -1106.82030254     A.U. after   12 cycles
 SCF Done:  E(RB3LYP) =  -1106.82055202     A.U. after   13 cycles
 SCF Done:  E(RB3LYP) =  -1106.82286320     A.U. after   11 cycles
 SCF Done:  E(RB3LYP) =  -1106.82286959     A.U. after   10 cycles
 SCF Done:  E(RB3LYP) =  -1106.82287040     A.U. after    8 cycles
 SCF Done:  E(RB3LYP) =  -1106.82287071     A.U. after    8 cycles
 SCF Done:  E(RB3LYP) =  -1106.82287081     A.U. after    7 cycles
 SCF Done:  E(RB3LYP) =  -1106.82287084     A.U. after    7 cycles
 Optimization completed.
    -- Stationary point found.
 Normal termination of Gaussian 16 at Thu Dec 10 21:23:14 2020.

 --------------------------------------------------------------------
 #N Geom=AllCheck Guess=TCheck SCRF=Check GenChk RB3LYP/6-31G(d) Freq
 --------------------------------------------------------------------

 Structure from the checkpoint file:  "JID_6091.chk"
 ------------------------------
 CID_64285234_JID_6091_neutraal
 ------------------------------
 Charge =  0 Multiplicity = 1

 SCF Done:  E(RB3LYP) =  -1106.82287084     A.U. after    1 cycles

  Exact polarizability: 237.518 -14.452 141.467 -22.705  -7.011  98.447
 Approx polarizability: 320.372 -41.967 259.616 -44.188 -13.480 155.105

                      1                      2                      3
                      A                      A                      A
 Frequencies --     21.1474                25.0570                29.9529
 Red. masses --      4.9041                 5.9098                 5.0242
 Frc consts  --      0.0013                 0.0022                 0.0027
 IR Inten    --      0.6916                 1.2006                 0.5368

                      4                      5                      6
                      A                      A                      A
 Frequencies --     50.4611                75.5941                95.8225
 Red. masses --      5.3419                 6.9529                 2.5803
 Frc consts  --      0.0080                 0.0234                 0.0140
 IR Inten    --      0.7066                 6.2345                 3.2517

                      7                      8                      9
                      A                      A                      A
 Frequencies --    103.9454               121.3086               149.7357
 Red. masses --      5.6363                 4.5935                 2.8774
 Frc consts  --      0.0359                 0.0398                 0.0380
 IR Inten    --      0.3958                 4.2845                17.5622

                     10                     11                     12
                      A                      A                      A
 Frequencies --    165.5949               208.2964               239.6915
 Red. masses --      2.6401                 3.7565                 1.3840
 Frc consts  --      0.0427                 0.0960                 0.0468
 IR Inten    --      3.5448                 1.0612                 8.9872

                     13                     14                     15
                      A                      A                      A
 Frequencies --    270.4077               305.4784               306.9292
 Red. masses --      3.8836                 3.9604                 5.2094
 Frc consts  --      0.1673                 0.2177                 0.2891
 IR Inten    --      5.5552                 3.3507                 2.5464

                     16                     17                     18
                      A                      A                      A
 Frequencies --    323.5794               368.0077               441.1992
 Red. masses --      5.2413                 2.4888                 2.2871
 Frc consts  --      0.3233                 0.1986                 0.2623
 IR Inten    --      3.5953                 0.2937                43.3335

                     19                     20                     21
                      A                      A                      A
 Frequencies --    458.7986               475.5762               486.0933
 Red. masses --      1.4623                 2.4741                 4.4890
 Frc consts  --      0.1814                 0.3297                 0.6249
 IR Inten    --    225.8951                 5.1532                 3.0954

                     22                     23                     24
                      A                      A                      A
 Frequencies --    524.0020               557.4661               575.0807
 Red. masses --      4.8963                 4.3208                 3.1375
 Frc consts  --      0.7921                 0.7911                 0.6113
 IR Inten    --     10.7820                37.7800                 0.2200

                     25                     26                     27
                      A                      A                      A
 Frequencies --    620.2877               659.1678               705.7323
 Red. masses --      5.5512                 2.8750                 1.2508
 Frc consts  --      1.2584                 0.7360                 0.3670
 IR Inten    --      4.1249                15.2064                40.6097

                     28                     29                     30
                      A                      A                      A
 Frequencies --    732.1918               749.6906               790.4191
 Red. masses --      2.5498                 6.9931                 5.4072
 Frc consts  --      0.8054                 2.3157                 1.9904
 IR Inten    --     23.4808                 3.3674                 9.2257

                     31                     32                     33
                      A                      A                      A
 Frequencies --    811.7223               837.1446               855.3322
 Red. masses --      2.6590                 1.3330                 2.3040
 Frc consts  --      1.0323                 0.5504                 0.9931
 IR Inten    --     23.9439                 5.0002                57.6886

                     34                     35                     36
                      A                      A                      A
 Frequencies --    870.1848               874.4933               910.7375
 Red. masses --      3.9603                 2.0986                 2.4508
 Frc consts  --      1.7668                 0.9456                 1.1977
 IR Inten    --     31.9558                 1.3433                42.8095

                     37                     38                     39
                      A                      A                      A
 Frequencies --    916.3559               977.0653              1003.5203
 Red. masses --      1.3348                 2.1941                 4.3098
 Frc consts  --      0.6604                 1.2341                 2.5572
 IR Inten    --      0.0692                13.0189                32.7849

                     40                     41                     42
                      A                      A                      A
 Frequencies --   1017.1148              1036.4647              1072.3977
 Red. masses --      1.1207                 1.5576                 1.7435
 Frc consts  --      0.6831                 0.9859                 1.1813
 IR Inten    --     40.6548                 8.9915                23.0060

                     43                     44                     45
                      A                      A                      A
 Frequencies --   1088.9157              1113.0897              1120.5763
 Red. masses --      2.8518                 1.3217                 2.0881
 Frc consts  --      1.9923                 0.9648                 1.5448
 IR Inten    --     30.3198                 7.1958                86.0957

                     46                     47                     48
                      A                      A                      A
 Frequencies --   1155.9705              1164.5823              1172.6435
 Red. masses --      2.8281                 2.1694                 4.0090
 Frc consts  --      2.2266                 1.7335                 3.2481
 IR Inten    --     17.6099                10.0369               176.7991

                     49                     50                     51
                      A                      A                      A
 Frequencies --   1193.9788              1234.1353              1253.4383
 Red. masses --      1.2904                 1.5931                 1.3199
 Frc consts  --      1.0838                 1.4296                 1.2218
 IR Inten    --      8.4873                39.8256                14.1253

                     52                     53                     54
                      A                      A                      A
 Frequencies --   1282.4375              1286.5298              1299.6396
 Red. masses --      1.5099                 1.2709                 1.4515
 Frc consts  --      1.4631                 1.2394                 1.4445
 IR Inten    --      5.3957               113.6829                15.3665

                     55                     56                     57
                      A                      A                      A
 Frequencies --   1307.4446              1353.7195              1361.7825
 Red. masses --      1.3840                 1.8802                 1.5849
 Frc consts  --      1.3939                 2.0301                 1.7317
 IR Inten    --     21.0399                95.1820                98.8257

                     58                     59                     60
                      A                      A                      A
 Frequencies --   1376.3730              1409.4980              1413.1386
 Red. masses --      1.5331                 2.4881                 1.4976
 Frc consts  --      1.7112                 2.9124                 1.7621
 IR Inten    --    131.9417                27.2926                46.3778

                     61                     62                     63
                      A                      A                      A
 Frequencies --   1433.6112              1451.3377              1478.1025
 Red. masses --      1.2166                 1.4092                 2.6894
 Frc consts  --      1.4732                 1.7489                 3.4619
 IR Inten    --     82.5217                 4.4284                59.7549

                     64                     65                     66
                      A                      A                      A
 Frequencies --   1481.1220              1503.1226              1506.8473
 Red. masses --      1.8330                 1.1527                 1.1341
 Frc consts  --      2.3692                 1.5344                 1.5172
 IR Inten    --     26.5413                 2.1972                 8.4446

                     67                     68                     69
                      A                      A                      A
 Frequencies --   1515.5876              1533.8632              1560.3668
 Red. masses --      1.0474                 1.0589                 1.0835
 Frc consts  --      1.4174                 1.4678                 1.5543
 IR Inten    --      6.0334                13.8674                 6.8156

                     70                     71                     72
                      A                      A                      A
 Frequencies --   1584.9354              1682.1860              1741.4633
 Red. masses --      4.9369                 5.9209                 7.2729
 Frc consts  --      7.3068                 9.8716                12.9952
 IR Inten    --      3.9250                76.1824               351.0094

                     73                     74                     75
                      A                      A                      A
 Frequencies --   2968.5822              2999.0431              3028.4559
 Red. masses --      1.0651                 1.0384                 1.0934
 Frc consts  --      5.5303                 5.5028                 5.9087
 IR Inten    --     35.1861                65.0813                58.0241

                     76                     77                     78
                      A                      A                      A
 Frequencies --   3046.1934              3080.4756              3109.6610
 Red. masses --      1.1054                 1.0859                 1.0628
 Frc consts  --      6.0433                 6.0714                 6.0550
 IR Inten    --     55.3194                35.2323                29.3089

                     79                     80                     81
                      A                      A                      A
 Frequencies --   3142.8750              3165.4039              3180.4063
 Red. masses --      1.0977                 1.1048                 1.0896
 Frc consts  --      6.3882                 6.5224                 6.4933
 IR Inten    --     29.7161                16.0213                 2.5056

                     82                     83                     84
                      A                      A                      A
 Frequencies --   3210.6279              3223.0392              3236.8286
 Red. masses --      1.0893                 1.0884                 1.0956
 Frc consts  --      6.6159                 6.6612                 6.7629
 IR Inten    --      5.8150                 6.1595                 5.4628

                     85                     86                     87
                      A                      A                      A
 Frequencies --   3274.2912              3537.4665              3715.1988
 Red. masses --      1.0968                 1.0737                 1.0661
 Frc consts  --      6.9278                 7.9164                 8.6702
 IR Inten    --      0.6544                15.4455                19.4014

 - Thermochemistry -
 -------------------
 Temperature   298.150 Kelvin.  Pressure   1.00000 Atm.
 Atom     1 has atomic number  6 and mass  12.00000

 Molecular mass:   241.07727 amu.
 Principal axes and moments of inertia in atomic units:
                           1         2         3
     Eigenvalues --  1548.29534********************
           X            0.99996   0.00824  -0.00434
           Y           -0.00845   0.99869  -0.05040
           Z            0.00392   0.05044   0.99872
 This molecule is an asymmetric top.
 Rotational symmetry number  1.
 Warning -- assumption of classical behavior for rotation
           may cause significant error
 Rotational temperatures (Kelvin)      0.05594     0.00836     0.00811
 Rotational constants (GHZ):           1.16563     0.17429     0.16897
 Zero-point vibrational energy     662720.6 (Joules/Mol)
                                  158.39403 (Kcal/Mol)
 Warning -- explicit consideration of  25 degrees of freedom as
           vibrations may cause significant error
 Vibrational temperatures:     30.43    36.05    43.10    72.60   108.76
          (Kelvin)            137.87   149.55   174.54   215.44   238.25
                              299.69   344.86   389.06   439.52   441.60
                              465.56   529.48   634.79   660.11   684.25
                              699.38   753.92   802.07   827.41   892.46
                              948.40  1015.39  1053.46  1078.64  1137.24
                             1167.89  1204.46  1230.63  1252.00  1258.20
                             1310.35  1318.43  1405.78  1443.84  1463.40
                             1491.24  1542.94  1566.71  1601.49  1612.26
                             1663.18  1675.57  1687.17  1717.87  1775.65
                             1803.42  1845.14  1851.03  1869.89  1881.12
                             1947.70  1959.30  1980.29  2027.95  2033.19
                             2062.65  2088.15  2126.66  2131.00  2162.66
                             2168.02  2180.59  2206.89  2245.02  2280.37
                             2420.29  2505.58  4271.13  4314.95  4357.27
                             4382.79  4432.12  4474.11  4521.90  4554.31
                             4575.90  4619.38  4637.23  4657.07  4710.97
                             5089.63  5345.34

 Zero-point correction=                           0.252417 (Hartree/Particle)
 Thermal correction to Energy=                    0.269171
 Thermal correction to Enthalpy=                  0.270116
 Thermal correction to Gibbs Free Energy=         0.204681
 Sum of electronic and zero-point Energies=          -1106.570454
 Sum of electronic and thermal Energies=             -1106.553699
 Sum of electronic and thermal Enthalpies=           -1106.552755
 Sum of electronic and thermal Free Energies=        -1106.618189

                     E (Thermal)             CV                S
                      KCal/Mol        Cal/Mol-Kelvin    Cal/Mol-Kelvin
 Total                  168.908             60.568            137.718
 Electronic               0.000              0.000              0.000
 Translational            0.889              2.981             42.341
 Rotational               0.889              2.981             33.504
 Vibrational            167.130             54.606             61.873
 Vibration     1          0.593              1.985              6.523
 Vibration     2          0.593              1.985              6.187
 Vibration     3          0.594              1.984              5.833
 Vibration     4          0.595              1.977              4.799
 Vibration     5          0.599              1.965              4.002
 Vibration     6          0.603              1.952              3.538
 Vibration     7          0.605              1.946              3.379
 Vibration     8          0.609              1.931              3.079
 Vibration     9          0.618              1.903              2.676
 Vibration    10          0.624              1.885              2.485
 Vibration    11          0.642              1.828              2.059
 Vibration    12          0.657              1.780              1.805
 Vibration    13          0.674              1.728              1.594
 Vibration    14          0.696              1.663              1.387
 Vibration    15          0.697              1.661              1.379
 Vibration    16          0.708              1.628              1.292
 Vibration    17          0.741              1.538              1.088
 Vibration    18          0.801              1.380              0.823
 Vibration    19          0.817              1.341              0.770
 Vibration    20          0.832              1.304              0.722
 Vibration    21          0.842              1.281              0.694
 Vibration    22          0.879              1.197              0.601
 Vibration    23          0.913              1.123              0.529
 Vibration    24          0.931              1.085              0.495
 Vibration    25          0.980              0.989              0.416

                           ! Non-Optimized Parameters !
 Normal termination of Gaussian 16 at Thu Dec 10 21:32:15 2020.

 ----------------------------------------------------------------------
 # B3LYP/6-311++G(d,p) empiricaldispersion=gd3bj scf=xqc pop=npa geom=c
 heck
 ----------------------------------------------------------------------

 --------------------------------------
 CID_64285234_JID_6091_Energie_neutraal
 --------------------------------------
 Structure from the checkpoint file:  "JID_6091.chk"
 Charge =  0 Multiplicity = 1

 SCF Done:  E(RB3LYP) =  -1107.06543542     A.U. after   16 cycles
 Normal termination of Gaussian 16 at Thu Dec 10 21:36:25 2020.

 ----------------------------------------------------------------------
 # B3LYP/6-311++G(d,p) empiricaldispersion=gd3bj scf=xqc pop=npa geom=c
 heck
 ----------------------------------------------------------------------

 ------------------------------------
 CID_64285234_JID_6091_Energie_kation
 ------------------------------------
 Structure from the checkpoint file:  "JID_6091.chk"
 Charge =  1 Multiplicity = 2

 SCF Done:  E(UB3LYP) =  -1106.77057132     A.U. after   32 cycles
 Normal termination of Gaussian 16 at Thu Dec 10 21:48:56 2020.
 Gaussian 16:  ES64L-G16RevA.03 25-Dec-2016

 ----------------------------------------------------------------------
 # B3LYP/6-311++G(d,p) empiricaldispersion=gd3bj scf=xqc pop=npa geom=c
 heck
 ----------------------------------------------------------------------

 -----------------------------------
 CID_64285234_JID_6091_Energie_anion
 -----------------------------------
 Structure from the checkpoint file:  "JID_6091.chk"
 Charge = -1 Multiplicity = 2

                         Standard orientation:
 ---------------------------------------------------------------------
 Center     Atomic      Atomic             Coordinates (Angstroms)
 Number     Number       Type             X           Y           Z
 ---------------------------------------------------------------------
      1          6           0        5.646496    0.867251   -0.552257
      2          8           0        4.352778    1.064544   -0.017706
      3          6           0        3.876115   -0.066624    0.684321
      4          6           0        2.499086    0.250792    1.274205
      5          6           0        1.562305    0.937437    0.264524
      6          7           0        1.400637    0.153375   -0.965430
      7          6           0        0.744464   -1.077079   -0.938539
      8          8           0        1.284593   -2.100011   -1.361266
      9          6           0       -0.647927   -1.099482   -0.444732
     10          6           0       -1.487286   -0.048432   -0.532301
     11          6           0       -2.878164   -0.044166   -0.133831
     12          6           0       -3.640552   -1.032020    0.457732
     13          6           0       -4.982329   -0.638681    0.702908
     14          6           0       -5.243455    0.646932    0.300872
     15         16           0       -3.845995    1.395986   -0.387276
     16          8           0        1.928842   -0.943235    1.798942
     17          1           0        5.919708    1.782901   -1.082134
     18          1           0        5.667487    0.021823   -1.257738
     19          1           0        6.385106    0.675393    0.241195
     20          1           0        3.789558   -0.931756    0.002373
     21          1           0        4.565135   -0.356525    1.492272
     22          1           0        2.617289    0.923143    2.131275
     23          1           0        0.588881    1.072641    0.737346
     24          1           0        1.961353    1.918434   -0.004063
     25          1           0        2.285049    0.049764   -1.456523
     26          1           0       -0.985896   -2.070624   -0.096812
     27          1           0       -1.100528    0.876884   -0.953991
     28          1           0       -3.243707   -2.008552    0.710517
     29          1           0       -5.725632   -1.281415    1.160970
     30          1           0       -6.174336    1.192706    0.370493
     31          1           0        1.959772   -1.620178    1.102070
 ---------------------------------------------------------------------

 SCF Done:  E(UB3LYP) =  -1107.08754826     A.U. after   26 cycles

 The electronic state is 2-A.
 Alpha  occ. eigenvalues --  -88.72449 -19.05435 -19.01922 -18.93634 -14.18870
 Alpha  occ. eigenvalues --  -10.14588 -10.13140 -10.12409 -10.10804 -10.08505
 Alpha  occ. eigenvalues --  -10.05067 -10.04834 -10.03980 -10.01929 -10.01605
 Alpha  occ. eigenvalues --  -10.00016  -7.81153  -5.77437  -5.77092  -5.76773
 Alpha  occ. eigenvalues --   -0.96758  -0.92412  -0.88643  -0.78132  -0.73647
 Alpha  occ. eigenvalues --   -0.67538  -0.64080  -0.61108  -0.59251  -0.57386
 Alpha  occ. eigenvalues --   -0.56836  -0.50647  -0.48613  -0.43222  -0.42131
 Alpha  occ. eigenvalues --   -0.41708  -0.41171  -0.40450  -0.38598  -0.36889
 Alpha  occ. eigenvalues --   -0.36758  -0.36145  -0.33849  -0.33018  -0.30708
 Alpha  occ. eigenvalues --   -0.29713  -0.28480  -0.27519  -0.26320  -0.26075
 Alpha  occ. eigenvalues --   -0.25391  -0.24780  -0.24266  -0.24063  -0.22824
 Alpha  occ. eigenvalues --   -0.21030  -0.20183  -0.19132  -0.18686  -0.15613
 Alpha  occ. eigenvalues --   -0.13369  -0.11836  -0.10569  -0.07605   0.03625
 Alpha virt. eigenvalues --    0.05765   0.08285   0.08816   0.08901   0.09894
 Alpha virt. eigenvalues --    0.10596   0.10939   0.11191   0.11740   0.12439
 Alpha virt. eigenvalues --    0.12593   0.13535   0.13701   0.14271   0.14844

  Beta  occ. eigenvalues --  -88.72387 -19.05435 -19.01910 -18.93336 -14.18852
  Beta  occ. eigenvalues --  -10.14588 -10.13139 -10.12409 -10.10633 -10.08494
  Beta  occ. eigenvalues --  -10.05031 -10.04546 -10.04087 -10.01691 -10.01308
  Beta  occ. eigenvalues --   -9.99793  -7.81097  -5.77407  -5.77062  -5.76574
  Beta  occ. eigenvalues --   -0.96758  -0.92386  -0.88154  -0.77963  -0.73363
  Beta  occ. eigenvalues --   -0.67510  -0.63439  -0.61062  -0.58964  -0.57171
  Beta  occ. eigenvalues --   -0.56516  -0.50544  -0.47903  -0.43045  -0.42005
  Beta  occ. eigenvalues --   -0.41626  -0.40988  -0.40443  -0.38285  -0.36817
  Beta  occ. eigenvalues --   -0.36703  -0.35984  -0.33806  -0.32765  -0.30575
  Beta  occ. eigenvalues --   -0.29613  -0.28205  -0.27413  -0.26150  -0.25833
  Beta  occ. eigenvalues --   -0.25265  -0.23939  -0.23888  -0.23538  -0.22493
  Beta  occ. eigenvalues --   -0.20752  -0.19978  -0.19128  -0.18559  -0.13892
  Beta  occ. eigenvalues --   -0.12900  -0.10948  -0.10124  -0.05824
  Beta virt. eigenvalues --    0.05743   0.08250   0.08772   0.08862   0.09426
  Beta virt. eigenvalues --    0.09876   0.10559   0.10927   0.11161   0.11729
  Beta virt. eigenvalues --    0.12418   0.12935   0.13543   0.14108   0.14431

 Mulliken charges and spin densities:
               1          2
     1  C   -0.250648  -0.001209
     2  O   -0.148920  -0.000676
     3  C   -0.493617  -0.003153
     4  C   -0.082447  -0.030342
     5  C   -0.432499   0.024238
     6  N   -0.095391   0.007670
     7  C   -0.531643   0.162054
     8  O   -0.348039   0.099558
     9  C   -0.223103   0.122013
    10  C   -0.557855   0.187633
    11  C    0.051966   0.014621
    12  C    1.470085   0.216952
    13  C   -1.314594  -0.061688
    14  C    0.302883   0.189527
    15  S   -0.666659   0.092612
    16  O   -0.134747   0.006652
    17  H    0.134008   0.000146
    18  H    0.131765  -0.000164
    19  H    0.117125   0.000933
    20  H    0.194724   0.004016
    21  H    0.136612   0.001916
    22  H    0.185686   0.001714
    23  H    0.140862   0.000678
    24  H    0.159730   0.006364
    25  H    0.290997   0.009489
    26  H    0.129796  -0.007876
    27  H    0.187478  -0.017839
    28  H    0.120633  -0.014444
    29  H    0.082663   0.005464
    30  H    0.188836  -0.014507
    31  H    0.254314  -0.002351
 Sum of Mulliken charges =  -1.00000   1.00000

 Dipole moment (field-independent basis, Debye):
    X=              7.6021    Y=              3.2967    Z=              1.7783  Tot=              8.4748
 Quadrupole moment (field-independent basis, Debye-Ang):
   XX=           -140.3320   YY=           -121.8793   ZZ=           -122.0130
   XY=              6.6168   XZ=             -1.6382   YZ=             -5.7681

 Summary of Natural Population Analysis:

                                       Natural Population
                Natural  -----------------------------------------------
    Atom  No    Charge         Core      Valence    Rydberg      Total
 -----------------------------------------------------------------------
      C    1   -0.09778      0.99963     2.08968    0.00847     3.09778
      O    2   -0.29981      0.99988     3.28948    0.01045     4.29981
      C    3   -0.02551      0.99957     2.01421    0.01173     3.02551
      C    4    0.05286      0.99957     1.93485    0.01271     2.94714
      C    5   -0.09985      0.99960     2.09000    0.01025     3.09985
      N    6   -0.34221      0.99969     2.82804    0.01448     3.84221
      C    7    0.33895      0.99965     1.63753    0.02387     2.66105
      O    8   -0.31175      0.99988     3.30515    0.00672     4.31175
      C    9   -0.10211      0.99948     2.09345    0.00918     3.10211
      C   10   -0.04286      0.99950     2.03378    0.00957     3.04286
      C   11   -0.10067      0.99949     2.08906    0.01212     3.10067
      C   12   -0.08057      0.99949     2.07217    0.00891     3.08057
      C   13   -0.15833      0.99955     2.14894    0.00984     3.15833
      C   14   -0.15431      0.99956     2.14259    0.01216     3.15431
      S   15    0.20338      4.99942     2.77367    0.02353     7.79662
      O   16   -0.36851      0.99990     3.36147    0.00713     4.36851
      H   17    0.08853      0.00000     0.41065    0.00082     0.41147
      H   18    0.07921      0.00000     0.41939    0.00139     0.42079
      H   19    0.07494      0.00000     0.42363    0.00143     0.42506
      H   20    0.08498      0.00000     0.41317    0.00184     0.41502
      H   21    0.07982      0.00000     0.41867    0.00151     0.42018
      H   22    0.08209      0.00000     0.41599    0.00192     0.41791
      H   23    0.11122      0.00000     0.38761    0.00117     0.38878
      H   24    0.09715      0.00000     0.40188    0.00096     0.40285
      H   25    0.17945      0.00000     0.31827    0.00228     0.32055
      H   26    0.09294      0.00000     0.40565    0.00140     0.40706
      H   27    0.09115      0.00000     0.40730    0.00155     0.40885
      H   28    0.09897      0.00000     0.39966    0.00137     0.40103
      H   29    0.09604      0.00000     0.40286    0.00111     0.40396
      H   30    0.09559      0.00000     0.40338    0.00104     0.40441
      H   31    0.23698      0.00000     0.26031    0.00271     0.26302
 =======================================================================
   * Total *   -0.00000     19.99387    43.79250    0.21363    64.00000

 Normal termination of Gaussian 16 at Thu Dec 10 21:58:53 2020.
