 Gaussian 16, Revision A.03,

 -----------------------------------------------------------
 # opt freq B3LYP/6-31G(d) empiricaldispersion=gd3bj scf=xqc
 -----------------------------------------------------------

 -------------------------------
 CID_130922348_JID_2862_neutraal
 -------------------------------
 Symbolic Z-matrix:
 Charge =  0 Multiplicity = 1

 SCF Done:  E(RB3LYP) =  -933.315158277     A.U. after   15 cycles
 SCF Done:  E(RB3LYP) =  -933.322637705     A.U. after   13 cycles
 SCF Done:  E(RB3LYP) =  -933.325457065     A.U. after   13 cycles
 SCF Done:  E(RB3LYP) =  -933.328568163     A.U. after   15 cycles
 SCF Done:  E(RB3LYP) =  -933.330467901     A.U. after   13 cycles
 SCF Done:  E(RB3LYP) =  -933.331890425     A.U. after   13 cycles
 SCF Done:  E(RB3LYP) =  -933.332250377     A.U. after   12 cycles
 SCF Done:  E(RB3LYP) =  -933.332476882     A.U. after   11 cycles
 SCF Done:  E(RB3LYP) =  -933.332543369     A.U. after   11 cycles
 SCF Done:  E(RB3LYP) =  -933.332546227     A.U. after   11 cycles
 SCF Done:  E(RB3LYP) =  -933.332560476     A.U. after   10 cycles
 SCF Done:  E(RB3LYP) =  -933.332561466     A.U. after    8 cycles
 Optimization completed.
    -- Stationary point found.
 Normal termination of Gaussian 16 at Wed Dec  9 18:10:34 2020.

 --------------------------------------------------------------------
 #N Geom=AllCheck Guess=TCheck SCRF=Check GenChk RB3LYP/6-31G(d) Freq
 --------------------------------------------------------------------

 Structure from the checkpoint file:  "JID_2862.chk"
 -------------------------------
 CID_130922348_JID_2862_neutraal
 -------------------------------
 Charge =  0 Multiplicity = 1

 SCF Done:  E(RB3LYP) =  -933.332561466     A.U. after    1 cycles

  Exact polarizability: 120.564  -0.565 106.266  -0.922  -3.438  93.072
 Approx polarizability: 154.521   3.198 169.498   4.721 -11.148 144.658

                      1                      2                      3
                      A                      A                      A
 Frequencies --     46.6043                55.0453                90.4000
 Red. masses --      6.1151                 5.3591                 4.2834
 Frc consts  --      0.0078                 0.0096                 0.0206
 IR Inten    --      3.2019                 0.8327                 1.8213

                      4                      5                      6
                      A                      A                      A
 Frequencies --    117.5308               140.2450               198.9989
 Red. masses --      3.6218                 2.9082                 1.1945
 Frc consts  --      0.0295                 0.0337                 0.0279
 IR Inten    --      7.5255                 0.4246                 0.9745

                      7                      8                      9
                      A                      A                      A
 Frequencies --    214.3828               237.6696               245.5405
 Red. masses --      2.2041                 1.3582                 3.8360
 Frc consts  --      0.0597                 0.0452                 0.1363
 IR Inten    --      5.3897                 1.7241                 0.5165

                     10                     11                     12
                      A                      A                      A
 Frequencies --    274.4353               327.4171               342.9091
 Red. masses --      3.0070                 2.4483                 3.7995
 Frc consts  --      0.1334                 0.1546                 0.2632
 IR Inten    --      0.7591                 0.1841                14.3755

                     13                     14                     15
                      A                      A                      A
 Frequencies --    403.8313               429.4191               466.7416
 Red. masses --      3.5185                 4.0094                 3.5689
 Frc consts  --      0.3381                 0.4356                 0.4581
 IR Inten    --     20.2451                11.3297                 7.2426

                     16                     17                     18
                      A                      A                      A
 Frequencies --    480.3347               508.7756               565.1804
 Red. masses --      2.4475                 3.3410                 2.7022
 Frc consts  --      0.3327                 0.5095                 0.5086
 IR Inten    --      6.2420                 7.1486                10.5073

                     19                     20                     21
                      A                      A                      A
 Frequencies --    579.1363               662.7800               684.2852
 Red. masses --      2.9986                 2.6410                 4.9731
 Frc consts  --      0.5926                 0.6835                 1.3720
 IR Inten    --      3.4844                49.5691                12.4571

                     22                     23                     24
                      A                      A                      A
 Frequencies --    695.9455               726.6708               777.3444
 Red. masses --      1.5065                 3.0347                 2.2009
 Frc consts  --      0.4299                 0.9442                 0.7836
 IR Inten    --     97.5247                 7.6103                38.5970

                     25                     26                     27
                      A                      A                      A
 Frequencies --    835.0139               895.5591               904.7285
 Red. masses --      2.7882                 1.6225                 2.3096
 Frc consts  --      1.1454                 0.7667                 1.1139
 IR Inten    --     22.7309                19.7357                13.9631

                     28                     29                     30
                      A                      A                      A
 Frequencies --    960.9939               972.9932               975.7449
 Red. masses --      2.1966                 1.4242                 1.7972
 Frc consts  --      1.1952                 0.7944                 1.0081
 IR Inten    --     18.1931                11.7196                40.5403

                     31                     32                     33
                      A                      A                      A
 Frequencies --    995.5040              1014.3789              1058.9238
 Red. masses --      1.7327                 1.7373                 2.1029
 Frc consts  --      1.0117                 1.0532                 1.3893
 IR Inten    --      1.3593                 9.5502                 4.4899

                     34                     35                     36
                      A                      A                      A
 Frequencies --   1092.1824              1096.3606              1106.7812
 Red. masses --      2.8798                 1.9170                 6.8519
 Frc consts  --      2.0239                 1.3576                 4.9452
 IR Inten    --     33.5951                 8.8042               104.0006

                     37                     38                     39
                      A                      A                      A
 Frequencies --   1145.1355              1178.5028              1214.0463
 Red. masses --      2.0478                 1.3611                 1.7713
 Frc consts  --      1.5822                 1.1138                 1.5382
 IR Inten    --      4.7963                21.3601                35.9670

                     40                     41                     42
                      A                      A                      A
 Frequencies --   1231.5194              1310.6873              1322.2160
 Red. masses --      1.5773                 1.2733                 1.7921
 Frc consts  --      1.4094                 1.2888                 1.8459
 IR Inten    --     35.4015                10.0686                80.6020

                     43                     44                     45
                      A                      A                      A
 Frequencies --   1343.6104              1361.5269              1371.9785
 Red. masses --      1.4391                 1.1946                 1.6188
 Frc consts  --      1.5307                 1.3047                 1.7953
 IR Inten    --      4.1603                 5.0186                22.3193

                     46                     47                     48
                      A                      A                      A
 Frequencies --   1385.2053              1398.8974              1422.8070
 Red. masses --      1.4498                 1.4697                 1.4813
 Frc consts  --      1.6390                 1.6946                 1.7667
 IR Inten    --      6.0037                 9.4050                20.3345

                     49                     50                     51
                      A                      A                      A
 Frequencies --   1439.0793              1458.8530              1479.0618
 Red. masses --      1.2506                 1.2504                 1.0510
 Frc consts  --      1.5260                 1.5679                 1.3546
 IR Inten    --      4.9084                42.8819                 7.4523

                     52                     53                     54
                      A                      A                      A
 Frequencies --   1484.1988              1495.3475              1505.0840
 Red. masses --      1.5702                 1.0596                 1.0956
 Frc consts  --      2.0379                 1.3959                 1.4622
 IR Inten    --     48.9617                13.2829                 2.2555

                     55                     56                     57
                      A                      A                      A
 Frequencies --   1520.2746              1525.6239              1539.5990
 Red. masses --      1.0670                 1.1115                 1.0775
 Frc consts  --      1.4529                 1.5243                 1.5049
 IR Inten    --      3.0237                 1.3169                15.8571

                     58                     59                     60
                      A                      A                      A
 Frequencies --   1799.8847              3054.2373              3059.1870
 Red. masses --      8.7257                 1.0373                 1.0851
 Frc consts  --     16.6548                 5.7014                 5.9835
 IR Inten    --    363.8138                11.3643                19.7265

                     61                     62                     63
                      A                      A                      A
 Frequencies --   3062.2777              3068.9578              3069.5788
 Red. masses --      1.0697                 1.0665                 1.0305
 Frc consts  --      5.9100                 5.9181                 5.7210
 IR Inten    --      8.9164                14.4486                 4.2165

                     64                     65                     66
                      A                      A                      A
 Frequencies --   3083.4425              3121.8094              3121.9190
 Red. masses --      1.0835                 1.0973                 1.1021
 Frc consts  --      6.0696                 6.3009                 6.3289
 IR Inten    --     42.5037                21.3360                19.2758

                     67                     68                     69
                      A                      A                      A
 Frequencies --   3128.7843              3137.5705              3165.0631
 Red. masses --      1.0964                 1.1018                 1.1042
 Frc consts  --      6.3238                 6.3908                 6.5174
 IR Inten    --      7.5337                28.9615                 4.9211

                     70                     71                     72
                      A                      A                      A
 Frequencies --   3187.7237              3452.4073              3569.6922
 Red. masses --      1.1078                 1.0735                 1.0756
 Frc consts  --      6.6322                 7.5386                 8.0754
 IR Inten    --      3.0170                 7.3341                13.5845

 - Thermochemistry -
 -------------------
 Temperature   298.150 Kelvin.  Pressure   1.00000 Atm.
 Atom     1 has atomic number  6 and mass  12.00000

 Molecular mass:   190.07760 amu.
 Principal axes and moments of inertia in atomic units:
                           1         2         3
     Eigenvalues --  1378.701123398.036253850.81365
           X            0.99923  -0.02802  -0.02732
           Y            0.02763   0.99951  -0.01454
           Z            0.02772   0.01377   0.99952
 This molecule is an asymmetric top.
 Rotational symmetry number  1.
 Warning -- assumption of classical behavior for rotation
           may cause significant error
 Rotational temperatures (Kelvin)      0.06282     0.02549     0.02249
 Rotational constants (GHZ):           1.30902     0.53111     0.46866
 Zero-point vibrational energy     576579.6 (Joules/Mol)
                                  137.80583 (Kcal/Mol)
 Warning -- explicit consideration of  19 degrees of freedom as
           vibrations may cause significant error
 Vibrational temperatures:     67.05    79.20   130.07   169.10   201.78
          (Kelvin)            286.32   308.45   341.95   353.28   394.85
                              471.08   493.37   581.02   617.84   671.54
                              691.09   732.01   813.17   833.25   953.59
                              984.53  1001.31  1045.52  1118.43  1201.40
                             1288.51  1301.70  1382.66  1399.92  1403.88
                             1432.31  1459.46  1523.56  1571.41  1577.42
                             1592.41  1647.59  1695.60  1746.74  1771.88
                             1885.79  1902.37  1933.16  1958.93  1973.97
                             1993.00  2012.70  2047.10  2070.51  2098.96
                             2128.04  2135.43  2151.47  2165.48  2187.34
                             2195.03  2215.14  2589.63  4394.37  4401.49
                             4405.93  4415.55  4416.44  4436.39  4491.59
                             4491.75  4501.62  4514.26  4553.82  4586.42
                             4967.24  5135.99

 Zero-point correction=                           0.219608 (Hartree/Particle)
 Thermal correction to Energy=                    0.232388
 Thermal correction to Enthalpy=                  0.233333
 Thermal correction to Gibbs Free Energy=         0.180157
 Sum of electronic and zero-point Energies=           -933.112954
 Sum of electronic and thermal Energies=              -933.100173
 Sum of electronic and thermal Enthalpies=            -933.099229
 Sum of electronic and thermal Free Energies=         -933.152404

                     E (Thermal)             CV                S
                      KCal/Mol        Cal/Mol-Kelvin    Cal/Mol-Kelvin
 Total                  145.826             48.087            111.917
 Electronic               0.000              0.000              0.000
 Translational            0.889              2.981             41.632
 Rotational               0.889              2.981             31.268
 Vibrational            144.049             42.126             39.017
 Vibration     1          0.595              1.979              4.957
 Vibration     2          0.596              1.976              4.627
 Vibration     3          0.602              1.956              3.651
 Vibration     4          0.608              1.935              3.141
 Vibration     5          0.615              1.913              2.801
 Vibration     6          0.637              1.841              2.142
 Vibration     7          0.644              1.819              2.006
 Vibration     8          0.656              1.783              1.820
 Vibration     9          0.660              1.770              1.762
 Vibration    10          0.677              1.721              1.568
 Vibration    11          0.711              1.621              1.273
 Vibration    12          0.722              1.590              1.199
 Vibration    13          0.769              1.462              0.949
 Vibration    14          0.791              1.406              0.861
 Vibration    15          0.824              1.324              0.747
 Vibration    16          0.837              1.294              0.709
 Vibration    17          0.864              1.231              0.637
 Vibration    18          0.921              1.107              0.514
 Vibration    19          0.936              1.076              0.487

                           ! Non-Optimized Parameters !
 Normal termination of Gaussian 16 at Wed Dec  9 18:17:52 2020.

 ----------------------------------------------------------------------
 # B3LYP/6-311++G(d,p) empiricaldispersion=gd3bj scf=xqc pop=npa geom=c
 heck
 ----------------------------------------------------------------------

 ---------------------------------------
 CID_130922348_JID_2862_Energie_neutraal
 ---------------------------------------
 Structure from the checkpoint file:  "JID_2862.chk"
 Charge =  0 Multiplicity = 1

 SCF Done:  E(RB3LYP) =  -933.524393832     A.U. after   15 cycles
 Normal termination of Gaussian 16 at Wed Dec  9 18:20:31 2020.

 ----------------------------------------------------------------------
 # B3LYP/6-311++G(d,p) empiricaldispersion=gd3bj scf=xqc pop=npa geom=c
 heck
 ----------------------------------------------------------------------

 -------------------------------------
 CID_130922348_JID_2862_Energie_kation
 -------------------------------------
 Structure from the checkpoint file:  "JID_2862.chk"
 Charge =  1 Multiplicity = 2

 SCF Done:  E(UB3LYP) =  -933.205707659     A.U. after   31 cycles
 Normal termination of Gaussian 16 at Wed Dec  9 18:28:08 2020.
 Gaussian 16:  ES64L-G16RevA.03 25-Dec-2016

 ----------------------------------------------------------------------
 # B3LYP/6-311++G(d,p) empiricaldispersion=gd3bj scf=xqc pop=npa geom=c
 heck
 ----------------------------------------------------------------------

 ------------------------------------
 CID_130922348_JID_2862_Energie_anion
 ------------------------------------
 Structure from the checkpoint file:  "JID_2862.chk"
 Charge = -1 Multiplicity = 2

                         Standard orientation:
 ---------------------------------------------------------------------
 Center     Atomic      Atomic             Coordinates (Angstroms)
 Number     Number       Type             X           Y           Z
 ---------------------------------------------------------------------
      1          6           0       -2.526590    2.043161    0.364056
      2          6           0       -1.419056    1.302994   -0.394534
      3          6           0       -0.191670    0.983196    0.473107
      4          6           0       -0.541215   -0.114008    1.493118
      5          6           0       -0.997258   -1.395612    0.788401
      6          6           0       -1.950896   -1.184271   -0.378577
      7          8           0       -2.658111   -2.078520   -0.819395
      8          7           0       -1.902811    0.052141   -0.993590
      9          7           0        0.906624    0.647542   -0.457639
     10         16           0        2.397644    0.206840    0.279791
     11          8           0        2.408460   -1.223782    0.754990
     12          6           0        3.313122    0.212560   -1.302179
     13          1           0       -2.924281    1.438610    1.184708
     14          1           0       -3.357417    2.272663   -0.311679
     15          1           0       -2.152933    2.988394    0.774104
     16          1           0       -1.074237    1.939373   -1.217914
     17          1           0        0.107342    1.896814    0.997782
     18          1           0       -1.331954    0.264344    2.151293
     19          1           0        0.321391   -0.334658    2.127266
     20          1           0       -1.482012   -2.087531    1.481730
     21          1           0       -0.117603   -1.922301    0.396140
     22          1           0       -2.587518    0.137929   -1.737273
     23          1           0        0.605788   -0.073685   -1.118059
     24          1           0        2.855661   -0.518220   -1.976362
     25          1           0        3.289523    1.214016   -1.735551
     26          1           0        4.337848   -0.092673   -1.079357
 ---------------------------------------------------------------------

 SCF Done:  E(UB3LYP) =  -933.515598939     A.U. after   32 cycles

 The electronic state is 2-A.
 Alpha  occ. eigenvalues --  -88.87667 -18.99667 -18.99190 -14.24067 -14.23870
 Alpha  occ. eigenvalues --  -10.17778 -10.12476 -10.12366 -10.10598 -10.08283
 Alpha  occ. eigenvalues --  -10.08235 -10.06814  -7.95092  -5.91427  -5.91243
 Alpha  occ. eigenvalues --   -5.90655  -0.94335  -0.93794  -0.84687  -0.81235
 Alpha  occ. eigenvalues --   -0.70866  -0.68028  -0.66150  -0.59869  -0.56103
 Alpha  occ. eigenvalues --   -0.53046  -0.51995  -0.46922  -0.40975  -0.40217
 Alpha  occ. eigenvalues --   -0.39028  -0.38001  -0.36735  -0.35448  -0.34350
 Alpha  occ. eigenvalues --   -0.33732  -0.33493  -0.32807  -0.32092  -0.30188
 Alpha  occ. eigenvalues --   -0.29323  -0.28036  -0.27329  -0.26553  -0.25023
 Alpha  occ. eigenvalues --   -0.24702  -0.20865  -0.17556  -0.16396  -0.15732
 Alpha  occ. eigenvalues --   -0.15210   0.04131
 Alpha virt. eigenvalues --    0.06120   0.07436   0.08170   0.08712   0.09583
 Alpha virt. eigenvalues --    0.09730   0.10286   0.10722   0.10889   0.11111
 Alpha virt. eigenvalues --    0.11545   0.12035   0.12664   0.13736   0.14568

  Beta  occ. eigenvalues --  -88.87661 -18.99656 -18.99187 -14.24054 -14.23849
  Beta  occ. eigenvalues --  -10.17778 -10.12465 -10.12346 -10.10553 -10.08275
  Beta  occ. eigenvalues --  -10.08223 -10.06759  -7.95086  -5.91424  -5.91237
  Beta  occ. eigenvalues --   -5.90642  -0.94327  -0.93777  -0.84654  -0.81204
  Beta  occ. eigenvalues --   -0.70835  -0.67995  -0.66096  -0.59806  -0.56048
  Beta  occ. eigenvalues --   -0.52971  -0.51954  -0.46871  -0.40923  -0.40178
  Beta  occ. eigenvalues --   -0.38981  -0.37980  -0.36711  -0.35413  -0.34295
  Beta  occ. eigenvalues --   -0.33679  -0.33454  -0.32777  -0.32057  -0.30143
  Beta  occ. eigenvalues --   -0.29282  -0.27997  -0.27283  -0.26521  -0.25003
  Beta  occ. eigenvalues --   -0.24663  -0.20847  -0.17527  -0.16374  -0.15712
  Beta  occ. eigenvalues --   -0.15162
  Beta virt. eigenvalues --    0.06628   0.07040   0.08310   0.08773   0.09117
  Beta virt. eigenvalues --    0.09994   0.10140   0.10677   0.11075   0.11234
  Beta virt. eigenvalues --    0.11410   0.11926   0.12412   0.13146   0.13948

 Mulliken charges and spin densities:
               1          2
     1  C    2.185834  -2.832665
     2  C   -1.826888   1.968868
     3  C    0.717387  -0.980373
     4  C    0.488133  -0.876139
     5  C   -0.232132  -0.156989
     6  C   -0.036865  -0.049077
     7  O   -0.351947   0.015572
     8  N   -0.232122  -0.025615
     9  N   -0.256288   0.096431
    10  S    0.491205  -0.134318
    11  O   -0.412228   0.025376
    12  C    0.460524  -0.995005
    13  H   -0.088855   0.237276
    14  H   -0.463863   0.620024
    15  H   -0.404123   0.550345
    16  H   -0.854292   1.127696
    17  H   -0.265013   0.525138
    18  H   -0.073791   0.220652
    19  H    0.166282   0.006925
    20  H    0.147033   0.051239
    21  H    0.236472   0.025898
    22  H    0.020851   0.313374
    23  H    0.243153   0.059304
    24  H   -0.172828   0.352875
    25  H   -0.432493   0.622293
    26  H   -0.053148   0.230896
 Sum of Mulliken charges =  -1.00000   1.00000

 Dipole moment (field-independent basis, Debye):
    X=              2.4624    Y=             -3.3576    Z=              3.1243  Tot=              5.2056
 Quadrupole moment (field-independent basis, Debye-Ang):
   XX=           -141.8964   YY=           -138.3447   ZZ=           -115.0679
   XY=              3.8899   XZ=             -2.4156   YZ=              4.2890

 Summary of Natural Population Analysis:

                                       Natural Population
                Natural  -----------------------------------------------
    Atom  No    Charge         Core      Valence    Rydberg      Total
 -----------------------------------------------------------------------
      C    1   -0.28754      0.99964     2.28201    0.00589     3.28754
      C    2   -0.01349      0.99956     1.99898    0.01496     3.01349
      C    3   -0.01381      0.99956     1.99780    0.01645     3.01381
      C    4   -0.20362      0.99961     2.19505    0.00896     3.20362
      C    5   -0.24241      0.99958     2.23460    0.00823     3.24241
      C    6    0.34619      0.99966     1.63200    0.02215     2.65381
      O    7   -0.32415      0.99988     3.31824    0.00604     4.32415
      N    8   -0.32965      0.99967     2.81856    0.01142     3.82965
      N    9   -0.42496      0.99976     2.91022    0.01498     3.92496
      S   10    0.66260      4.99947     2.27727    0.06066     7.33740
      O   11   -0.48286      0.99993     3.47732    0.00562     4.48286
      C   12   -0.37548      0.99962     2.36743    0.00843     3.37548
      H   13    0.09748      0.00000     0.40121    0.00131     0.40252
      H   14    0.10617      0.00000     0.39185    0.00198     0.39383
      H   15    0.10636      0.00000     0.39127    0.00237     0.39364
      H   16    0.10806      0.00000     0.38693    0.00501     0.39194
      H   17    0.10672      0.00000     0.39081    0.00247     0.39328
      H   18    0.10176      0.00000     0.39714    0.00111     0.39824
      H   19    0.11007      0.00000     0.38870    0.00122     0.38993
      H   20    0.11256      0.00000     0.38643    0.00101     0.38744
      H   21    0.12247      0.00000     0.37628    0.00125     0.37753
      H   22    0.19794      0.00000     0.29932    0.00274     0.30206
      H   23    0.18522      0.00000     0.31126    0.00352     0.31478
      H   24    0.10981      0.00000     0.38885    0.00135     0.39019
      H   25    0.11597      0.00000     0.38090    0.00313     0.38403
      H   26    0.10861      0.00000     0.39000    0.00139     0.39139
 =======================================================================
   * Total *    0.00000     15.99593    34.79043    0.21364    51.00000

 Normal termination of Gaussian 16 at Wed Dec  9 18:34:56 2020.
