 Gaussian 16, Revision A.03,

 -----------------------------------------------------------
 # opt freq B3LYP/6-31G(d) empiricaldispersion=gd3bj scf=xqc
 -----------------------------------------------------------

 ------------------------------
 CID_66927418_JID_2049_neutraal
 ------------------------------
 Symbolic Z-matrix:
 Charge =  0 Multiplicity = 1

 SCF Done:  E(RB3LYP) =  -570.840523121     A.U. after   15 cycles
 SCF Done:  E(RB3LYP) =  -570.849494294     A.U. after   13 cycles
 SCF Done:  E(RB3LYP) =  -570.850834325     A.U. after   12 cycles
 SCF Done:  E(RB3LYP) =  -570.851237384     A.U. after   12 cycles
 SCF Done:  E(RB3LYP) =  -570.851384028     A.U. after   12 cycles
 SCF Done:  E(RB3LYP) =  -570.851433261     A.U. after   11 cycles
 SCF Done:  E(RB3LYP) =  -570.851459096     A.U. after   11 cycles
 SCF Done:  E(RB3LYP) =  -570.851463514     A.U. after    9 cycles
 SCF Done:  E(RB3LYP) =  -570.851465891     A.U. after    9 cycles
 SCF Done:  E(RB3LYP) =  -570.851467150     A.U. after    9 cycles
 SCF Done:  E(RB3LYP) =  -570.851467258     A.U. after    7 cycles
 SCF Done:  E(RB3LYP) =  -570.851467426     A.U. after    8 cycles
 SCF Done:  E(RB3LYP) =  -570.851467510     A.U. after    8 cycles
 SCF Done:  E(RB3LYP) =  -570.851467559     A.U. after    7 cycles
 Optimization completed.
    -- Stationary point found.
 Normal termination of Gaussian 16 at Wed Dec  9 16:45:30 2020.

 --------------------------------------------------------------------
 #N Geom=AllCheck Guess=TCheck SCRF=Check GenChk RB3LYP/6-31G(d) Freq
 --------------------------------------------------------------------

 Structure from the checkpoint file:  "JID_2049.chk"
 ------------------------------
 CID_66927418_JID_2049_neutraal
 ------------------------------
 Charge =  0 Multiplicity = 1

 SCF Done:  E(RB3LYP) =  -570.851467559     A.U. after    1 cycles

  Exact polarizability: 157.002 -14.038  98.827   8.549   1.162  56.367
 Approx polarizability: 228.198 -47.350 165.198  10.725   6.010  86.765

                      1                      2                      3
                      A                      A                      A
 Frequencies --     16.4372                40.6342                84.5762
 Red. masses --      4.6340                 3.2581                 3.6934
 Frc consts  --      0.0007                 0.0032                 0.0156
 IR Inten    --      0.4790                 0.1571                 0.9397

                      4                      5                      6
                      A                      A                      A
 Frequencies --     85.6301               128.8360               162.3628
 Red. masses --      3.7108                13.3250                 3.1978
 Frc consts  --      0.0160                 0.1303                 0.0497
 IR Inten    --      0.9049                 0.0300                 0.5171

                      7                      8                      9
                      A                      A                      A
 Frequencies --    184.9725               244.5935               323.6984
 Red. masses --      5.4259                 2.8965                 3.4212
 Frc consts  --      0.1094                 0.1021                 0.2112
 IR Inten    --      0.4748                 4.5263                 8.2824

                     10                     11                     12
                      A                      A                      A
 Frequencies --    387.6492               418.2136               449.6553
 Red. masses --      2.4530                 4.4605                 2.2680
 Frc consts  --      0.2172                 0.4596                 0.2702
 IR Inten    --      6.1800                 7.1119                 6.7814

                     13                     14                     15
                      A                      A                      A
 Frequencies --    476.1825               485.5878               548.3385
 Red. masses --      1.8904                 1.5051                 1.3883
 Frc consts  --      0.2526                 0.2091                 0.2459
 IR Inten    --     99.9624                28.4922                75.5961

                     16                     17                     18
                      A                      A                      A
 Frequencies --    609.2202               623.5237               663.7896
 Red. masses --      2.9937                 5.6484                 3.8766
 Frc consts  --      0.6546                 1.2938                 1.0064
 IR Inten    --     27.8261                 6.6038                12.8121

                     19                     20                     21
                      A                      A                      A
 Frequencies --    687.1032               719.9199               769.7878
 Red. masses --      1.9153                 2.4978                 7.5940
 Frc consts  --      0.5328                 0.7627                 2.6513
 IR Inten    --      3.4528                 2.7173                 9.1044

                     22                     23                     24
                      A                      A                      A
 Frequencies --    777.3482               813.5966               882.0366
 Red. masses --      2.2852                 2.0150                 2.1849
 Frc consts  --      0.8136                 0.7859                 1.0015
 IR Inten    --     66.8373                17.3751                 0.8143

                     25                     26                     27
                      A                      A                      A
 Frequencies --    897.9018               928.6211               953.9094
 Red. masses --      2.8041                 2.5950                 1.3516
 Frc consts  --      1.3320                 1.3185                 0.7246
 IR Inten    --      4.3078                20.7142                35.9170

                     28                     29                     30
                      A                      A                      A
 Frequencies --   1000.0952              1035.4228              1062.5669
 Red. masses --      1.6079                 1.1177                 1.8110
 Frc consts  --      0.9475                 0.7060                 1.2047
 IR Inten    --      3.8942                17.8114                 8.1058

                     31                     32                     33
                      A                      A                      A
 Frequencies --   1095.0733              1142.4354              1170.8219
 Red. masses --      3.2121                 2.3474                 2.4353
 Frc consts  --      2.2695                 1.8051                 1.9669
 IR Inten    --     57.9604                11.5567                 7.1284

                     34                     35                     36
                      A                      A                      A
 Frequencies --   1250.0269              1267.3689              1294.1006
 Red. masses --      1.3047                 1.6631                 2.0050
 Frc consts  --      1.2012                 1.5739                 1.9783
 IR Inten    --      8.6247                34.2714                 8.4079

                     37                     38                     39
                      A                      A                      A
 Frequencies --   1309.7285              1341.4799              1342.5293
 Red. masses --      1.4045                 1.4516                 1.4833
 Frc consts  --      1.4195                 1.5391                 1.5752
 IR Inten    --     77.2580                15.6626                12.3920

                     40                     41                     42
                      A                      A                      A
 Frequencies --   1377.6459              1379.7448              1410.5834
 Red. masses --      5.4334                 1.4297                 1.4084
 Frc consts  --      6.0757                 1.6036                 1.6511
 IR Inten    --    165.3017                18.0949                48.6700

                     43                     44                     45
                      A                      A                      A
 Frequencies --   1476.4855              1509.5507              1533.4257
 Red. masses --      1.1746                 1.1188                 1.0865
 Frc consts  --      1.5087                 1.5021                 1.5053
 IR Inten    --      3.5088                15.1749                18.6150

                     46                     47                     48
                      A                      A                      A
 Frequencies --   1568.8509              1719.8048              1735.1747
 Red. masses --      1.8295                 8.9257                 4.4478
 Frc consts  --      2.6530                15.5543                 7.8901
 IR Inten    --    150.7820               657.9058                 2.2973

                     49                     50                     51
                      A                      A                      A
 Frequencies --   1828.6464              1858.5905              3021.1298
 Red. masses --      9.8617                12.5695                 1.0686
 Frc consts  --     19.4295                25.5821                 5.7467
 IR Inten    --    605.4783                75.0716                30.8911

                     52                     53                     54
                      A                      A                      A
 Frequencies --   3048.6690              3092.5048              3097.8415
 Red. masses --      1.0612                 1.0940                 1.1033
 Frc consts  --      5.8112                 6.1646                 6.2383
 IR Inten    --     19.9478                21.6667                19.3921

                     55                     56                     57
                      A                      A                      A
 Frequencies --   3141.7588              3159.7895              3241.4271
 Red. masses --      1.0844                 1.0662                 1.1156
 Frc consts  --      6.3066                 6.2722                 6.9060
 IR Inten    --     24.8119                 4.7723                15.0281

                     58                     59                     60
                      A                      A                      A
 Frequencies --   3280.2059              3576.1405              3657.0596
 Red. masses --      1.0962                 1.0756                 1.0801
 Frc consts  --      6.9491                 8.1044                 8.5113
 IR Inten    --      2.6645                60.5135                78.8155

 - Thermochemistry -
 -------------------
 Temperature   298.150 Kelvin.  Pressure   1.00000 Atm.
 Atom     1 has atomic number  6 and mass  12.00000

 Molecular mass:   166.07423 amu.
 Principal axes and moments of inertia in atomic units:
                           1         2         3
     Eigenvalues --   784.148864368.441045020.74098
           X            0.99997   0.00656   0.00279
           Y           -0.00654   0.99996  -0.00674
           Z           -0.00283   0.00672   0.99997
 This molecule is an asymmetric top.
 Rotational symmetry number  1.
 Warning -- assumption of classical behavior for rotation
           may cause significant error
 Rotational temperatures (Kelvin)      0.11046     0.01983     0.01725
 Rotational constants (GHZ):           2.30153     0.41313     0.35946
 Zero-point vibrational energy     462899.8 (Joules/Mol)
                                  110.63571 (Kcal/Mol)
 Warning -- explicit consideration of  16 degrees of freedom as
           vibrations may cause significant error
 Vibrational temperatures:     23.65    58.46   121.69   123.20   185.37
          (Kelvin)            233.60   266.13   351.92   465.73   557.74
                              601.72   646.95   685.12   698.65   788.94
                              876.53   897.11   955.05   988.59  1035.80
                             1107.55  1118.43  1170.58  1269.05  1291.88
                             1336.08  1372.46  1438.91  1489.74  1528.80
                             1575.57  1643.71  1684.55  1798.51  1823.46
                             1861.92  1884.41  1930.09  1931.60  1982.13
                             1985.14  2029.51  2124.33  2171.91  2206.26
                             2257.23  2474.42  2496.53  2631.01  2674.10
                             4346.73  4386.35  4449.42  4457.10  4520.29
                             4546.23  4663.69  4719.48  5145.27  5261.69

 Zero-point correction=                           0.176309 (Hartree/Particle)
 Thermal correction to Energy=                    0.188133
 Thermal correction to Enthalpy=                  0.189077
 Thermal correction to Gibbs Free Energy=         0.136144
 Sum of electronic and zero-point Energies=           -570.675158
 Sum of electronic and thermal Energies=              -570.663334
 Sum of electronic and thermal Enthalpies=            -570.662390
 Sum of electronic and thermal Free Energies=         -570.715323

                     E (Thermal)             CV                S
                      KCal/Mol        Cal/Mol-Kelvin    Cal/Mol-Kelvin
 Total                  118.055             42.813            111.407
 Electronic               0.000              0.000              0.000
 Translational            0.889              2.981             41.230
 Rotational               0.889              2.981             31.220
 Vibrational            116.278             36.852             38.957
 Vibration     1          0.593              1.986              7.024
 Vibration     2          0.594              1.981              5.228
 Vibration     3          0.601              1.960              3.782
 Vibration     4          0.601              1.959              3.758
 Vibration     5          0.611              1.924              2.963
 Vibration     6          0.622              1.889              2.522
 Vibration     7          0.631              1.860              2.278
 Vibration     8          0.660              1.772              1.769
 Vibration     9          0.708              1.628              1.291
 Vibration    10          0.756              1.497              1.009
 Vibration    11          0.781              1.431              0.898
 Vibration    12          0.809              1.362              0.797
 Vibration    13          0.833              1.303              0.720
 Vibration    14          0.842              1.282              0.695
 Vibration    15          0.904              1.143              0.548
 Vibration    16          0.968              1.012              0.434

                           ! Non-Optimized Parameters !
 Normal termination of Gaussian 16 at Wed Dec  9 16:49:20 2020.

 ----------------------------------------------------------------------
 # B3LYP/6-311++G(d,p) empiricaldispersion=gd3bj scf=xqc pop=npa geom=c
 heck
 ----------------------------------------------------------------------

 --------------------------------------
 CID_66927418_JID_2049_Energie_neutraal
 --------------------------------------
 Structure from the checkpoint file:  "JID_2049.chk"
 Charge =  0 Multiplicity = 1

 SCF Done:  E(RB3LYP) =  -571.024814886     A.U. after   15 cycles
 Normal termination of Gaussian 16 at Wed Dec  9 16:50:48 2020.

 ----------------------------------------------------------------------
 # B3LYP/6-311++G(d,p) empiricaldispersion=gd3bj scf=xqc pop=npa geom=c
 heck
 ----------------------------------------------------------------------

 ------------------------------------
 CID_66927418_JID_2049_Energie_kation
 ------------------------------------
 Structure from the checkpoint file:  "JID_2049.chk"
 Charge =  1 Multiplicity = 2

 SCF Done:  E(UB3LYP) =  -570.712299281     A.U. after   22 cycles
 Normal termination of Gaussian 16 at Wed Dec  9 16:53:39 2020.
 Gaussian 16:  ES64L-G16RevA.03 25-Dec-2016

 ----------------------------------------------------------------------
 # B3LYP/6-311++G(d,p) empiricaldispersion=gd3bj scf=xqc pop=npa geom=c
 heck
 ----------------------------------------------------------------------

 -----------------------------------
 CID_66927418_JID_2049_Energie_anion
 -----------------------------------
 Structure from the checkpoint file:  "JID_2049.chk"
 Charge = -1 Multiplicity = 2

                         Standard orientation:
 ---------------------------------------------------------------------
 Center     Atomic      Atomic             Coordinates (Angstroms)
 Number     Number       Type             X           Y           Z
 ---------------------------------------------------------------------
      1          6           0       -4.694146    0.335779   -0.645874
      2          6           0       -3.611747    0.371988    0.131001
      3          6           0       -2.897129   -0.844486    0.657492
      4          6           0       -1.555325   -1.112045   -0.043250
      5          7           0       -0.636967    0.000883    0.112000
      6          6           0        0.697556   -0.103995    0.018843
      7          6           0        1.569712   -1.143466   -0.086931
      8          6           0        2.931132   -0.599098   -0.103931
      9          8           0        4.004030   -1.159569   -0.188318
     10          7           0        2.796230    0.823992   -0.002886
     11          6           0        1.480534    1.197192    0.057300
     12          8           0        0.992801    2.311325    0.119784
     13          1           0       -5.153167   -0.606146   -0.939679
     14          1           0       -5.167458    1.242281   -1.012055
     15          1           0       -3.200056    1.342448    0.412237
     16          1           0       -2.711883   -0.736733    1.734109
     17          1           0       -3.527434   -1.730392    0.519373
     18          1           0       -1.081304   -1.996996    0.394881
     19          1           0       -1.730853   -1.321895   -1.108673
     20          1           0       -0.990603    0.949488    0.054133
     21          1           0        1.370110   -2.202331   -0.157754
     22          1           0        3.579639    1.460897   -0.020003
 ---------------------------------------------------------------------

 SCF Done:  E(UB3LYP) =  -571.040594273     A.U. after   33 cycles
 SCF Done:  E(UB3LYP) =  -571.040594273     a.u. after    1 cycles

 The electronic state is 2-A.
 Alpha  occ. eigenvalues --  -18.93434 -18.92351 -14.19374 -14.18285 -10.09865
 Alpha  occ. eigenvalues --  -10.09790 -10.09786 -10.08899 -10.08146 -10.07761
 Alpha  occ. eigenvalues --  -10.04903  -9.99742  -0.89173  -0.87208  -0.81007
 Alpha  occ. eigenvalues --   -0.77489  -0.70859  -0.64278  -0.60700  -0.54104
 Alpha  occ. eigenvalues --   -0.49048  -0.46540  -0.45715  -0.42030  -0.39082
 Alpha  occ. eigenvalues --   -0.37710  -0.35599  -0.33077  -0.32340  -0.30470
 Alpha  occ. eigenvalues --   -0.30154  -0.28767  -0.28280  -0.26817  -0.25949
 Alpha  occ. eigenvalues --   -0.25131  -0.24218  -0.22878  -0.18948  -0.17582
 Alpha  occ. eigenvalues --   -0.12945  -0.12386  -0.09445  -0.07253   0.04559
 Alpha virt. eigenvalues --    0.06557   0.07837   0.08427   0.09305   0.10313
 Alpha virt. eigenvalues --    0.11333   0.11843   0.12099   0.12938   0.14098
 Alpha virt. eigenvalues --    0.14891   0.16465   0.16582   0.17411   0.17806

  Beta  occ. eigenvalues --  -18.93030 -18.91955 -14.19266 -14.18359 -10.09790
  Beta  occ. eigenvalues --  -10.09578 -10.09568 -10.08885 -10.08134 -10.07739
  Beta  occ. eigenvalues --  -10.04578  -9.99677  -0.88523  -0.86510  -0.80691
  Beta  occ. eigenvalues --   -0.77198  -0.70797  -0.64085  -0.60437  -0.53953
  Beta  occ. eigenvalues --   -0.48356  -0.46281  -0.45524  -0.41770  -0.39024
  Beta  occ. eigenvalues --   -0.37594  -0.35412  -0.32891  -0.32091  -0.30114
  Beta  occ. eigenvalues --   -0.29518  -0.28029  -0.27855  -0.26695  -0.25604
  Beta  occ. eigenvalues --   -0.24895  -0.23960  -0.20761  -0.18157  -0.17187
  Beta  occ. eigenvalues --   -0.12009  -0.11454  -0.09054  -0.06180
  Beta virt. eigenvalues --    0.06617   0.07877   0.08470   0.09210   0.10263
  Beta virt. eigenvalues --    0.11253   0.11543   0.11851   0.12112   0.12883
  Beta virt. eigenvalues --    0.13980   0.14830   0.16431   0.16564   0.17440

 Mulliken charges and spin densities:
               1          2
     1  C   -0.239977  -0.318865
     2  C   -0.088472   0.468420
     3  C   -0.029809  -0.450921
     4  C   -0.064832  -0.163069
     5  N   -0.027649   0.062196
     6  C   -0.674087   0.235382
     7  C    0.525866   0.067647
     8  C   -0.340523   0.146301
     9  O   -0.471772   0.131417
    10  N   -0.338187  -0.049640
    11  C    0.168013   0.178490
    12  O   -0.486466   0.146077
    13  H   -0.099390   0.208587
    14  H    0.106204  -0.001148
    15  H    0.060432   0.103170
    16  H    0.101070   0.049987
    17  H    0.014659   0.122762
    18  H    0.150567  -0.028598
    19  H    0.038076   0.109916
    20  H    0.294380  -0.024307
    21  H    0.108610   0.006428
    22  H    0.293287  -0.000232
 Sum of Mulliken charges =  -1.00000   1.00000

 Dipole moment (field-independent basis, Debye):
    X=             -6.8957    Y=             -0.2284    Z=              0.6759  Tot=              6.9325
 Quadrupole moment (field-independent basis, Debye-Ang):
   XX=           -126.3806   YY=            -92.3245   ZZ=            -80.9596
   XY=              8.8735   XZ=             -0.4173   YZ=             -2.5008

 Summary of Natural Population Analysis:

                                       Natural Population
                Natural  -----------------------------------------------
    Atom  No    Charge         Core      Valence    Rydberg      Total
 -----------------------------------------------------------------------
      C    1   -0.19501      0.99957     2.18808    0.00736     3.19501
      C    2   -0.08145      0.99957     2.07186    0.01003     3.08145
      C    3   -0.21031      0.99961     2.20165    0.00906     3.21031
      C    4   -0.07630      0.99963     2.06710    0.00957     3.07630
      N    5   -0.29299      0.99964     2.78304    0.01031     3.79299
      C    6    0.13556      0.99949     1.85325    0.01170     2.86444
      C    7   -0.20933      0.99948     2.20110    0.00875     3.20933
      C    8    0.35714      0.99969     1.62040    0.02277     2.64286
      O    9   -0.28710      0.99987     3.28052    0.00671     4.28710
      N   10   -0.35337      0.99965     2.84350    0.01023     3.85337
      C   11    0.37029      0.99967     1.60841    0.02163     2.62971
      O   12   -0.29138      0.99987     3.28528    0.00623     4.29138
      H   13    0.08787      0.00000     0.41043    0.00170     0.41213
      H   14    0.09121      0.00000     0.40771    0.00109     0.40879
      H   15    0.09382      0.00000     0.40486    0.00132     0.40618
      H   16    0.10338      0.00000     0.39514    0.00148     0.39662
      H   17    0.09722      0.00000     0.40114    0.00164     0.40278
      H   18    0.09555      0.00000     0.40226    0.00219     0.40445
      H   19    0.08460      0.00000     0.41238    0.00302     0.41540
      H   20    0.19375      0.00000     0.30227    0.00398     0.30625
      H   21    0.09421      0.00000     0.40335    0.00244     0.40579
      H   22    0.19266      0.00000     0.30564    0.00171     0.30734
 =======================================================================
   * Total *   -0.00000     11.99574    31.84936    0.15490    44.00000

 Normal termination of Gaussian 16 at Wed Dec  9 16:57:42 2020.
