 Gaussian 16, Revision A.03,

 -----------------------------------------------------------
 # opt freq B3LYP/6-31G(d) empiricaldispersion=gd3bj scf=xqc
 -----------------------------------------------------------

 ------------------------------
 CID_53215505_JID_6732_neutraal
 ------------------------------
 Symbolic Z-matrix:
 Charge =  0 Multiplicity = 1

 SCF Done:  E(RB3LYP) =  -676.161643313     A.U. after   13 cycles
 SCF Done:  E(RB3LYP) =  -676.165999499     A.U. after   12 cycles
 SCF Done:  E(RB3LYP) =  -676.166322595     A.U. after   11 cycles
 SCF Done:  E(RB3LYP) =  -676.166401140     A.U. after   10 cycles
 SCF Done:  E(RB3LYP) =  -676.166467188     A.U. after   10 cycles
 SCF Done:  E(RB3LYP) =  -676.166520126     A.U. after   10 cycles
 SCF Done:  E(RB3LYP) =  -676.166557431     A.U. after   11 cycles
 SCF Done:  E(RB3LYP) =  -676.166568684     A.U. after   10 cycles
 SCF Done:  E(RB3LYP) =  -676.166581041     A.U. after   10 cycles
 SCF Done:  E(RB3LYP) =  -676.166594494     A.U. after   10 cycles
 SCF Done:  E(RB3LYP) =  -676.166599046     A.U. after    9 cycles
 SCF Done:  E(RB3LYP) =  -676.166601676     A.U. after    9 cycles
 SCF Done:  E(RB3LYP) =  -676.166602191     A.U. after    8 cycles
 SCF Done:  E(RB3LYP) =  -676.166602313     A.U. after    7 cycles
 SCF Done:  E(RB3LYP) =  -676.166602349     A.U. after    7 cycles
 Optimization completed.
    -- Stationary point found.
 Normal termination of Gaussian 16 at Thu Dec 10 23:24:15 2020.

 --------------------------------------------------------------------
 #N Geom=AllCheck Guess=TCheck SCRF=Check GenChk RB3LYP/6-31G(d) Freq
 --------------------------------------------------------------------

 Structure from the checkpoint file:  "JID_6732.chk"
 ------------------------------
 CID_53215505_JID_6732_neutraal
 ------------------------------
 Charge =  0 Multiplicity = 1

 SCF Done:  E(RB3LYP) =  -676.166602349     A.U. after    1 cycles

  Exact polarizability: 187.572   2.265 160.521   9.973  -5.594 109.403
 Approx polarizability: 255.756   0.733 246.225  16.487 -13.869 165.495

                      1                      2                      3
                      A                      A                      A
 Frequencies --     15.1465                57.0881                71.7355
 Red. masses --      4.5754                 3.1167                 3.2332
 Frc consts  --      0.0006                 0.0060                 0.0098
 IR Inten    --      0.4444                 0.1592                 0.5278

                      4                      5                      6
                      A                      A                      A
 Frequencies --     83.6543               104.2742               116.8531
 Red. masses --      2.5935                 3.2139                 3.5132
 Frc consts  --      0.0107                 0.0206                 0.0283
 IR Inten    --      0.7495                 2.4397                 1.6549

                      7                      8                      9
                      A                      A                      A
 Frequencies --    151.8240               185.3190               190.2363
 Red. masses --      2.6033                 1.0551                 2.8799
 Frc consts  --      0.0354                 0.0213                 0.0614
 IR Inten    --      4.1988                 0.0199                 0.5778

                     10                     11                     12
                      A                      A                      A
 Frequencies --    211.1132               234.4009               240.2270
 Red. masses --      1.5128                 1.8996                 1.9370
 Frc consts  --      0.0397                 0.0615                 0.0659
 IR Inten    --      0.9258                 0.9349                 0.6853

                     13                     14                     15
                      A                      A                      A
 Frequencies --    260.4416               281.0535               314.1739
 Red. masses --      2.7878                 3.4014                 3.2987
 Frc consts  --      0.1114                 0.1583                 0.1918
 IR Inten    --      1.1884                 1.1062                 0.8297

                     16                     17                     18
                      A                      A                      A
 Frequencies --    332.2520               354.6780               399.5014
 Red. masses --      1.2588                 2.4945                 3.1353
 Frc consts  --      0.0819                 0.1849                 0.2948
 IR Inten    --    108.5132                27.6516                 4.7535

                     19                     20                     21
                      A                      A                      A
 Frequencies --    437.0521               444.9085               490.1541
 Red. masses --      1.9665                 4.1928                 3.2034
 Frc consts  --      0.2213                 0.4890                 0.4534
 IR Inten    --      2.7453                 1.3630                 2.6701

                     22                     23                     24
                      A                      A                      A
 Frequencies --    546.8937               568.1345               576.0107
 Red. masses --      4.0616                 4.4607                 3.7349
 Frc consts  --      0.7157                 0.8483                 0.7301
 IR Inten    --      0.0898                 0.2547                 0.5250

                     25                     26                     27
                      A                      A                      A
 Frequencies --    600.5408               624.9643               732.0604
 Red. masses --      3.2746                 2.8890                 4.4035
 Frc consts  --      0.6958                 0.6648                 1.3904
 IR Inten    --      1.6357                 7.7015                 2.3588

                     28                     29                     30
                      A                      A                      A
 Frequencies --    780.8417               784.5291               806.3388
 Red. masses --      2.0899                 1.2354                 1.7403
 Frc consts  --      0.7508                 0.4480                 0.6667
 IR Inten    --      7.6368                 8.3264                14.7685

                     31                     32                     33
                      A                      A                      A
 Frequencies --    812.7699               836.4830               906.3954
 Red. masses --      2.5041                 3.4102                 1.3400
 Frc consts  --      0.9746                 1.4059                 0.6486
 IR Inten    --      2.9535                 0.2486                 0.4041

                     34                     35                     36
                      A                      A                      A
 Frequencies --    907.4189               912.5552               944.6018
 Red. masses --      1.9001                 2.7658                 1.3495
 Frc consts  --      0.9218                 1.3570                 0.7094
 IR Inten    --      4.7581                 6.7902                13.9586

                     37                     38                     39
                      A                      A                      A
 Frequencies --    968.3652               984.6077               991.1714
 Red. masses --      1.2762                 2.2866                 1.4474
 Frc consts  --      0.7051                 1.3061                 0.8378
 IR Inten    --      0.1484                 2.3580                 3.2558

                     40                     41                     42
                      A                      A                      A
 Frequencies --   1001.4907              1011.1840              1036.3370
 Red. masses --      2.1541                 2.6266                 1.8459
 Frc consts  --      1.2730                 1.5824                 1.1680
 IR Inten    --      1.1165                16.2917                 1.7811

                     43                     44                     45
                      A                      A                      A
 Frequencies --   1053.5486              1073.6901              1088.4950
 Red. masses --      3.1106                 1.5254                 2.8497
 Frc consts  --      2.0342                 1.0361                 1.9893
 IR Inten    --     25.6497                 7.1443                84.0425

                     46                     47                     48
                      A                      A                      A
 Frequencies --   1091.3559              1100.5848              1120.2110
 Red. masses --      1.7916                 1.8087                 2.4223
 Frc consts  --      1.2572                 1.2908                 1.7909
 IR Inten    --     16.6883                 4.8810                 7.3926

                     49                     50                     51
                      A                      A                      A
 Frequencies --   1139.9167              1146.8067              1191.7437
 Red. masses --      1.6042                 1.9137                 1.5950
 Frc consts  --      1.2282                 1.4829                 1.3347
 IR Inten    --      6.3911                14.2404                14.6659

                     52                     53                     54
                      A                      A                      A
 Frequencies --   1200.4043              1201.0599              1225.5433
 Red. masses --      1.2945                 1.3288                 1.5492
 Frc consts  --      1.0990                 1.1294                 1.3709
 IR Inten    --      7.6696                 8.4472                11.8451

                     55                     56                     57
                      A                      A                      A
 Frequencies --   1253.0637              1273.6542              1274.3372
 Red. masses --      1.9510                 1.7359                 1.4786
 Frc consts  --      1.8049                 1.6591                 1.4147
 IR Inten    --     21.7924                 3.4196                 6.4271

                     58                     59                     60
                      A                      A                      A
 Frequencies --   1276.5957              1300.3945              1319.2511
 Red. masses --      2.0688                 1.6190                 1.8331
 Frc consts  --      1.9864                 1.6130                 1.8797
 IR Inten    --      5.4995                 1.3069                19.9772

                     61                     62                     63
                      A                      A                      A
 Frequencies --   1327.1011              1332.0458              1353.8676
 Red. masses --      1.3518                 1.7257                 2.4705
 Frc consts  --      1.4027                 1.8040                 2.6680
 IR Inten    --      2.5572                18.5309                 9.7240

                     64                     65                     66
                      A                      A                      A
 Frequencies --   1377.2359              1380.2437              1385.8619
 Red. masses --      1.5214                 1.4326                 1.3653
 Frc consts  --      1.7002                 1.6081                 1.5449
 IR Inten    --      1.8754                 0.6344                 4.7463

                     67                     68                     69
                      A                      A                      A
 Frequencies --   1401.7268              1421.7371              1427.6124
 Red. masses --      1.2613                 1.5070                 1.2351
 Frc consts  --      1.4601                 1.7947                 1.4831
 IR Inten    --     27.4794                18.4155                 2.6337

                     70                     71                     72
                      A                      A                      A
 Frequencies --   1442.3169              1444.3364              1496.2407
 Red. masses --      1.3023                 1.2740                 2.0069
 Frc consts  --      1.5962                 1.5658                 2.6471
 IR Inten    --     49.7552                12.2058                22.5927

                     73                     74                     75
                      A                      A                      A
 Frequencies --   1511.3079              1515.3476              1518.2573
 Red. masses --      1.3372                 1.3795                 1.1252
 Frc consts  --      1.7995                 1.8664                 1.5282
 IR Inten    --      0.2272                 9.6474                 3.7471

                     76                     77                     78
                      A                      A                      A
 Frequencies --   1520.3303              1525.1228              1533.4972
 Red. masses --      1.2234                 1.0478                 1.2480
 Frc consts  --      1.6661                 1.4359                 1.7292
 IR Inten    --      9.2526                 3.6387                27.2274

                     79                     80                     81
                      A                      A                      A
 Frequencies --   1534.2526              1538.2768              1557.7409
 Red. masses --      1.1171                 1.1108                 1.0876
 Frc consts  --      1.5493                 1.5487                 1.5549
 IR Inten    --      1.7302                 4.8316                 2.9673

                     82                     83                     84
                      A                      A                      A
 Frequencies --   1569.5542              1641.8661              1652.5082
 Red. masses --      1.0945                 6.5432                 5.4336
 Frc consts  --      1.5886                10.3923                 8.7422
 IR Inten    --      1.5836                 0.7316                 0.3229

                     85                     86                     87
                      A                      A                      A
 Frequencies --   2971.7579              2978.5451              2989.6540
 Red. masses --      1.0713                 1.0708                 1.0615
 Frc consts  --      5.5742                 5.5972                 5.5901
 IR Inten    --     78.5243                42.7737                48.3178

                     88                     89                     90
                      A                      A                      A
 Frequencies --   3003.3459              3038.8029              3047.4920
 Red. masses --      1.1030                 1.0665                 1.0425
 Frc consts  --      5.8618                 5.8027                 5.7046
 IR Inten    --     44.9865                18.9800                32.8647

                     91                     92                     93
                      A                      A                      A
 Frequencies --   3050.8018              3054.5322              3059.7697
 Red. masses --      1.0385                 1.0626                 1.0832
 Frc consts  --      5.6947                 5.8412                 5.9750
 IR Inten    --     37.1948                30.0468                33.9098

                     94                     95                     96
                      A                      A                      A
 Frequencies --   3078.9519              3097.0534              3100.4211
 Red. masses --      1.0891                 1.0929                 1.0986
 Frc consts  --      6.0828                 6.1762                 6.2221
 IR Inten    --     40.3101                41.2300                 7.0882

                     97                     98                     99
                      A                      A                      A
 Frequencies --   3105.9961              3108.5098              3117.7622
 Red. masses --      1.0935                 1.1001                 1.1006
 Frc consts  --      6.2154                 6.2629                 6.3031
 IR Inten    --     21.4871                49.4603                47.3237

                    100                    101                    102
                      A                      A                      A
 Frequencies --   3136.0663              3137.6288              3172.3266
 Red. masses --      1.1017                 1.1017                 1.0857
 Frc consts  --      6.3837                 6.3902                 6.4372
 IR Inten    --     19.1733                42.2411                 1.2185

                    103                    104                    105
                      A                      A                      A
 Frequencies --   3179.1493              3200.9615              3745.0849
 Red. masses --      1.0905                 1.0963                 1.0659
 Frc consts  --      6.4937                 6.6181                 8.8084
 IR Inten    --     29.5651                36.6312                 9.1641

 - Thermochemistry -
 -------------------
 Temperature   298.150 Kelvin.  Pressure   1.00000 Atm.
 Atom     1 has atomic number  6 and mass  12.00000

 Molecular mass:   219.16231 amu.
 Principal axes and moments of inertia in atomic units:
                           1         2         3
     Eigenvalues --  1983.899925566.288696649.60385
           X            1.00000  -0.00026   0.00134
           Y            0.00025   1.00000   0.00187
           Z           -0.00134  -0.00187   1.00000
 This molecule is an asymmetric top.
 Rotational symmetry number  1.
 Warning -- assumption of classical behavior for rotation
           may cause significant error
 Rotational temperatures (Kelvin)      0.04366     0.01556     0.01303
 Rotational constants (GHZ):           0.90969     0.32423     0.27141
 Zero-point vibrational energy     863844.0 (Joules/Mol)
                                  206.46367 (Kcal/Mol)
 Warning -- explicit consideration of  25 degrees of freedom as
           vibrations may cause significant error
 Vibrational temperatures:     21.79    82.14   103.21   120.36   150.03
          (Kelvin)            168.13   218.44   266.63   273.71   303.74
                              337.25   345.63   374.72   404.37   452.03
                              478.04   510.30   574.79   628.82   640.12
                              705.22   786.86   817.42   828.75   864.04
                              899.18  1053.27  1123.46  1128.76  1160.14
                             1169.39  1203.51  1304.10  1305.57  1312.96
                             1359.07  1393.26  1416.63  1426.07  1440.92
                             1454.87  1491.06  1515.82  1544.80  1566.10
                             1570.22  1583.50  1611.73  1640.09  1650.00
                             1714.65  1727.11  1728.06  1763.28  1802.88
                             1832.50  1833.49  1836.74  1870.98  1898.11
                             1909.40  1916.52  1947.91  1981.54  1985.86
                             1993.95  2016.77  2045.56  2054.02  2075.17
                             2078.08  2152.76  2174.43  2180.25  2184.43
                             2187.42  2194.31  2206.36  2207.45  2213.24
                             2241.24  2258.24  2362.28  2377.59  4275.70
                             4285.46  4301.45  4321.14  4372.16  4384.66
                             4389.42  4394.79  4402.33  4429.93  4455.97
                             4460.81  4468.84  4472.45  4485.76  4512.10
                             4514.35  4564.27  4574.09  4605.47  5388.34

 Zero-point correction=                           0.329021 (Hartree/Particle)
 Thermal correction to Energy=                    0.345303
 Thermal correction to Enthalpy=                  0.346247
 Thermal correction to Gibbs Free Energy=         0.284527
 Sum of electronic and zero-point Energies=           -675.837582
 Sum of electronic and thermal Energies=              -675.821299
 Sum of electronic and thermal Enthalpies=            -675.820355
 Sum of electronic and thermal Free Energies=         -675.882075

                     E (Thermal)             CV                S
                      KCal/Mol        Cal/Mol-Kelvin    Cal/Mol-Kelvin
 Total                  216.681             62.065            129.902
 Electronic               0.000              0.000              0.000
 Translational            0.889              2.981             42.057
 Rotational               0.889              2.981             32.662
 Vibrational            214.904             56.104             55.182
 Vibration     1          0.593              1.986              7.186
 Vibration     2          0.596              1.975              4.555
 Vibration     3          0.598              1.967              4.105
 Vibration     4          0.601              1.960              3.803
 Vibration     5          0.605              1.946              3.373
 Vibration     6          0.608              1.935              3.152
 Vibration     7          0.619              1.901              2.649
 Vibration     8          0.631              1.860              2.274
 Vibration     9          0.634              1.853              2.226
 Vibration    10          0.643              1.824              2.034
 Vibration    11          0.654              1.788              1.845
 Vibration    12          0.657              1.779              1.801
 Vibration    13          0.668              1.745              1.659
 Vibration    14          0.681              1.709              1.527
 Vibration    15          0.702              1.647              1.340
 Vibration    16          0.714              1.611              1.249
 Vibration    17          0.731              1.566              1.145
 Vibration    18          0.766              1.471              0.964
 Vibration    19          0.797              1.389              0.836
 Vibration    20          0.804              1.372              0.811
 Vibration    21          0.846              1.272              0.683
 Vibration    22          0.902              1.146              0.551
 Vibration    23          0.924              1.100              0.508
 Vibration    24          0.932              1.083              0.493
 Vibration    25          0.959              1.031              0.449

 Optimization completed.
    -- Stationary point found.
 Normal termination of Gaussian 16 at Thu Dec 10 23:38:15 2020.

 ----------------------------------------------------------------------
 # B3LYP/6-311++G(d,p) empiricaldispersion=gd3bj scf=xqc pop=npa geom=c
 heck
 ----------------------------------------------------------------------

 --------------------------------------
 CID_53215505_JID_6732_Energie_neutraal
 --------------------------------------
 Structure from the checkpoint file:  "JID_6732.chk"
 Charge =  0 Multiplicity = 1

 SCF Done:  E(RB3LYP) =  -676.356138500     A.U. after   15 cycles
 Normal termination of Gaussian 16 at Thu Dec 10 23:44:44 2020.

 ----------------------------------------------------------------------
 # B3LYP/6-311++G(d,p) empiricaldispersion=gd3bj scf=xqc pop=npa geom=c
 heck
 ----------------------------------------------------------------------

 ------------------------------------
 CID_53215505_JID_6732_Energie_kation
 ------------------------------------
 Structure from the checkpoint file:  "JID_6732.chk"
 Charge =  1 Multiplicity = 2

 SCF Done:  E(UB3LYP) =  -676.078943078     A.U. after   24 cycles
 Normal termination of Gaussian 16 at Thu Dec 10 23:58:27 2020.
 Gaussian 16:  ES64L-G16RevA.03 25-Dec-2016

 ----------------------------------------------------------------------
 # B3LYP/6-311++G(d,p) empiricaldispersion=gd3bj scf=xqc pop=npa geom=c
 heck
 ----------------------------------------------------------------------

 -----------------------------------
 CID_53215505_JID_6732_Energie_anion
 -----------------------------------
 Structure from the checkpoint file:  "JID_6732.chk"
 Charge = -1 Multiplicity = 2

                         Standard orientation:
 ---------------------------------------------------------------------
 Center     Atomic      Atomic             Coordinates (Angstroms)
 Number     Number       Type             X           Y           Z
 ---------------------------------------------------------------------
      1          6           0       -0.879218    2.917336    0.980751
      2          6           0       -1.111282    2.304080   -0.408831
      3          6           0       -1.834906    0.977685   -0.343130
      4          6           0       -3.215893    0.925282   -0.553322
      5          6           0       -3.907577   -0.279491   -0.453801
      6          6           0       -3.214703   -1.449506   -0.155997
      7          6           0       -1.830446   -1.436428    0.050437
      8          6           0       -1.140847   -0.208703   -0.027930
      9          7           0        0.265681   -0.115345    0.179514
     10          6           0        0.889388   -0.461187    1.448510
     11          6           0        2.349746   -0.092138    1.182894
     12          6           0        2.564109   -0.558126   -0.273489
     13          6           0        1.174759   -0.385763   -0.934189
     14          6           0        3.668880    0.198016   -1.005709
     15          8           0        4.949724    0.015552   -0.416542
     16          6           0       -1.113988   -2.731927    0.348494
     17          1           0       -1.828996    3.063205    1.507232
     18          1           0       -0.379301    3.889743    0.901958
     19          1           0       -0.252180    2.259504    1.589707
     20          1           0       -0.145387    2.183546   -0.908339
     21          1           0       -1.702044    3.000362   -1.016584
     22          1           0       -3.750425    1.841289   -0.793629
     23          1           0       -4.981291   -0.308774   -0.618024
     24          1           0       -3.748437   -2.394971   -0.093675
     25          1           0        0.814519   -1.528622    1.719090
     26          1           0        0.436899    0.116388    2.262254
     27          1           0        2.466843    0.997869    1.252035
     28          1           0        3.042950   -0.564038    1.886412
     29          1           0        2.831950   -1.621614   -0.262447
     30          1           0        1.161259    0.453905   -1.646559
     31          1           0        0.897298   -1.285607   -1.505561
     32          1           0        3.763840   -0.165206   -2.034422
     33          1           0        3.400279    1.267447   -1.058282
     34          1           0        4.912707    0.395181    0.474870
     35          1           0       -0.945902   -2.865427    1.424735
     36          1           0       -1.705202   -3.585882    0.003541
     37          1           0       -0.135067   -2.780081   -0.136703
 ---------------------------------------------------------------------

 SCF Done:  E(UB3LYP) =  -676.342669121     A.U. after   33 cycles
 SCF Done:  E(UB3LYP) =  -676.342669121     a.u. after    1 cycles

 The electronic state is 2-A.
 Alpha  occ. eigenvalues --  -19.02942 -14.20541 -10.12197 -10.10500 -10.10259
 Alpha  occ. eigenvalues --  -10.09716 -10.08783 -10.08124 -10.08123 -10.07912
 Alpha  occ. eigenvalues --  -10.07495 -10.07467 -10.07418 -10.07125 -10.07110
 Alpha  occ. eigenvalues --  -10.05957  -0.93050  -0.84460  -0.76281  -0.70164
 Alpha  occ. eigenvalues --   -0.69671  -0.66088  -0.64522  -0.62127  -0.59487
 Alpha  occ. eigenvalues --   -0.57264  -0.53596  -0.51674  -0.48024  -0.47696
 Alpha  occ. eigenvalues --   -0.47208  -0.42781  -0.42513  -0.39472  -0.38417
 Alpha  occ. eigenvalues --   -0.36792  -0.34941  -0.34604  -0.33685  -0.33452
 Alpha  occ. eigenvalues --   -0.33208  -0.32205  -0.31257  -0.30378  -0.30088
 Alpha  occ. eigenvalues --   -0.29294  -0.28765  -0.27658  -0.27305  -0.25490
 Alpha  occ. eigenvalues --   -0.25032  -0.24750  -0.24191  -0.23709  -0.23471
 Alpha  occ. eigenvalues --   -0.22748  -0.18450  -0.15142  -0.14812  -0.11348
 Alpha  occ. eigenvalues --    0.04269
 Alpha virt. eigenvalues --    0.06047   0.06402   0.07357   0.07556   0.07971
 Alpha virt. eigenvalues --    0.08147   0.08331   0.08970   0.09645   0.10088
 Alpha virt. eigenvalues --    0.10243   0.10353   0.11606   0.12019   0.12121

  Beta  occ. eigenvalues --  -19.02917 -14.20539 -10.12180 -10.10492 -10.10247
  Beta  occ. eigenvalues --  -10.09702 -10.08782 -10.08117 -10.08109 -10.07908
  Beta  occ. eigenvalues --  -10.07468 -10.07445 -10.07405 -10.07114 -10.07074
  Beta  occ. eigenvalues --  -10.05928  -0.93000  -0.84443  -0.76251  -0.70132
  Beta  occ. eigenvalues --   -0.69637  -0.66058  -0.64485  -0.62086  -0.59442
  Beta  occ. eigenvalues --   -0.57211  -0.53536  -0.51634  -0.47963  -0.47662
  Beta  occ. eigenvalues --   -0.47166  -0.42733  -0.42472  -0.39447  -0.38381
  Beta  occ. eigenvalues --   -0.36759  -0.34897  -0.34556  -0.33660  -0.33419
  Beta  occ. eigenvalues --   -0.33186  -0.32175  -0.31226  -0.30344  -0.30060
  Beta  occ. eigenvalues --   -0.29259  -0.28735  -0.27616  -0.27261  -0.25455
  Beta  occ. eigenvalues --   -0.24997  -0.24702  -0.24159  -0.23679  -0.23443
  Beta  occ. eigenvalues --   -0.22719  -0.18415  -0.15085  -0.14723  -0.11323
  Beta virt. eigenvalues --    0.06175   0.06862   0.06997   0.07763   0.07940
  Beta virt. eigenvalues --    0.08093   0.08430   0.08692   0.09263   0.09866
  Beta virt. eigenvalues --    0.10380   0.10603   0.10749   0.11821   0.12331

 Mulliken charges and spin densities:
               1          2
     1  C    0.765630  -1.384987
     2  C   -0.926008   0.863428
     3  C    0.038334   0.515197
     4  C   -0.041120  -0.431335
     5  C    0.343954  -0.715006
     6  C    0.353047  -0.640907
     7  C   -0.281018   0.520422
     8  C   -1.675862   1.145990
     9  N    0.445864  -0.055790
    10  C   -0.658892   0.471099
    11  C    1.900288  -2.325616
    12  C   -1.656530   2.058295
    13  C    0.723622  -1.265006
    14  C    0.941761  -1.505699
    15  O   -0.250315   0.020435
    16  C    0.796072  -1.342016
    17  H    0.024859   0.100081
    18  H   -0.418613   0.555084
    19  H    0.243874  -0.107836
    20  H    0.050765   0.055300
    21  H   -0.200935   0.373441
    22  H   -0.111998   0.256183
    23  H   -0.174850   0.322971
    24  H   -0.131624   0.267500
    25  H    0.229023  -0.136278
    26  H   -0.359711   0.529076
    27  H   -0.165827   0.341856
    28  H   -0.502854   0.672403
    29  H   -0.006035   0.209574
    30  H   -0.009672   0.161802
    31  H    0.113609   0.001092
    32  H    0.113719   0.051371
    33  H   -0.162349   0.335903
    34  H   -0.037221   0.287146
    35  H   -0.220430   0.404173
    36  H   -0.007245   0.145697
    37  H   -0.085311   0.244959
 Sum of Mulliken charges =  -1.00000   1.00000

 Dipole moment (field-independent basis, Debye):
    X=             -3.1603    Y=             -1.9758    Z=             -2.5608  Tot=              4.5221
 Quadrupole moment (field-independent basis, Debye-Ang):
   XX=           -181.9871   YY=           -151.9555   ZZ=           -134.4625
   XY=             -2.0014   XZ=             -5.5959   YZ=              1.3205

 Summary of Natural Population Analysis:

                                       Natural Population
                Natural  -----------------------------------------------
    Atom  No    Charge         Core      Valence    Rydberg      Total
 -----------------------------------------------------------------------
      C    1   -0.27826      0.99965     2.27346    0.00514     3.27826
      C    2   -0.19753      0.99960     2.18874    0.00918     3.19753
      C    3   -0.00363      0.99947     1.99333    0.01083     3.00363
      C    4   -0.10356      0.99951     2.09531    0.00873     3.10356
      C    5   -0.09935      0.99956     2.09012    0.00967     3.09935
      C    6   -0.10283      0.99952     2.09382    0.00950     3.10283
      C    7   -0.01605      0.99948     2.00746    0.00911     3.01605
      C    8    0.08711      0.99938     1.90219    0.01132     2.91289
      N    9   -0.29708      0.99968     2.78397    0.01343     3.79708
      C   10   -0.07320      0.99961     2.06308    0.01051     3.07320
      C   11   -0.19678      0.99961     2.18620    0.01097     3.19678
      C   12   -0.12902      0.99959     2.11855    0.01088     3.12902
      C   13   -0.06933      0.99959     2.06147    0.00826     3.06933
      C   14   -0.00191      0.99956     1.99016    0.01218     3.00191
      O   15   -0.36876      0.99990     3.36247    0.00639     4.36876
      C   16   -0.29441      0.99963     2.28899    0.00578     3.29441
      H   17    0.09419      0.00000     0.40476    0.00104     0.40581
      H   18    0.09831      0.00000     0.40039    0.00130     0.40169
      H   19    0.09993      0.00000     0.39839    0.00169     0.40007
      H   20    0.10455      0.00000     0.39363    0.00182     0.39545
      H   21    0.09600      0.00000     0.40275    0.00125     0.40400
      H   22    0.09875      0.00000     0.40021    0.00104     0.40125
      H   23    0.09816      0.00000     0.40101    0.00084     0.40184
      H   24    0.09726      0.00000     0.40178    0.00096     0.40274
      H   25    0.08097      0.00000     0.41734    0.00169     0.41903
      H   26    0.09701      0.00000     0.40169    0.00130     0.40299
      H   27    0.09883      0.00000     0.39887    0.00231     0.40117
      H   28    0.10414      0.00000     0.39406    0.00180     0.39586
      H   29    0.09859      0.00000     0.39989    0.00152     0.40141
      H   30    0.08897      0.00000     0.40947    0.00156     0.41103
      H   31    0.08582      0.00000     0.41292    0.00126     0.41418
      H   32    0.08410      0.00000     0.41463    0.00127     0.41590
      H   33    0.07717      0.00000     0.42126    0.00156     0.42283
      H   34    0.22976      0.00000     0.26626    0.00398     0.27024
      H   35    0.10658      0.00000     0.39214    0.00128     0.39342
      H   36    0.10141      0.00000     0.39773    0.00086     0.39859
      H   37    0.10411      0.00000     0.39434    0.00154     0.39589
 =======================================================================
   * Total *    0.00000     15.99336    43.82286    0.18378    60.00000

 Normal termination of Gaussian 16 at Fri Dec 11 00:18:09 2020.
