 Gaussian 16, Revision A.03,

 -----------------------------------------------------------
 # opt freq B3LYP/6-31G(d) empiricaldispersion=gd3bj scf=xqc
 -----------------------------------------------------------

 -------------------------------
 CID_103081971_JID_9635_neutraal
 -------------------------------
 Symbolic Z-matrix:
 Charge =  0 Multiplicity = 1

 SCF Done:  E(RB3LYP) =  -910.296996672     A.U. after   18 cycles
 SCF Done:  E(RB3LYP) =  -910.305073125     A.U. after   15 cycles
 SCF Done:  E(RB3LYP) =  -910.300267459     A.U. after   17 cycles
 SCF Done:  E(RB3LYP) =  -910.311174286     A.U. after   15 cycles
 SCF Done:  E(RB3LYP) =  -910.314649860     A.U. after   17 cycles
 SCF Done:  E(RB3LYP) =  -910.315901794     A.U. after   17 cycles
 SCF Done:  E(RB3LYP) =  -910.317434743     A.U. after   14 cycles
 SCF Done:  E(RB3LYP) =  -910.317879918     A.U. after   14 cycles
 SCF Done:  E(RB3LYP) =  -910.318273032     A.U. after   15 cycles
 SCF Done:  E(RB3LYP) =  -910.318492968     A.U. after   13 cycles
 SCF Done:  E(RB3LYP) =  -910.319093784     A.U. after   13 cycles
 SCF Done:  E(RB3LYP) =  -910.319126831     A.U. after   12 cycles
 SCF Done:  E(RB3LYP) =  -910.319129477     A.U. after   10 cycles
 SCF Done:  E(RB3LYP) =  -910.319129828     A.U. after    9 cycles
 SCF Done:  E(RB3LYP) =  -910.319129986     A.U. after    9 cycles
 SCF Done:  E(RB3LYP) =  -910.319130017     A.U. after    8 cycles
 Optimization completed.
    -- Stationary point found.
 Normal termination of Gaussian 16 at Sat Dec 12 10:19:08 2020.

 --------------------------------------------------------------------
 #N Geom=AllCheck Guess=TCheck SCRF=Check GenChk RB3LYP/6-31G(d) Freq
 --------------------------------------------------------------------

 Structure from the checkpoint file:  "JID_9635.chk"
 -------------------------------
 CID_103081971_JID_9635_neutraal
 -------------------------------
 Charge =  0 Multiplicity = 1

 SCF Done:  E(RB3LYP) =  -910.319130017     A.U. after    1 cycles

  Exact polarizability: 227.798 -10.633 178.150 -12.436   0.909  90.900
 Approx polarizability: 352.130 -29.700 310.950 -31.388   3.854 139.716

                      1                      2                      3
                      A                      A                      A
 Frequencies --     26.1499                36.1358                43.2483
 Red. masses --      6.5203                 7.5312                 5.8701
 Frc consts  --      0.0026                 0.0058                 0.0065
 IR Inten    --      0.0069                 0.1789                 0.2505

                      4                      5                      6
                      A                      A                      A
 Frequencies --     66.8596                83.8275               102.2644
 Red. masses --      4.8626                 5.2822                 4.2856
 Frc consts  --      0.0128                 0.0219                 0.0264
 IR Inten    --      0.5076                 0.4244                 1.0354

                      7                      8                      9
                      A                      A                      A
 Frequencies --    152.2396               164.5911               172.8386
 Red. masses --      1.9487                 5.0775                 3.8164
 Frc consts  --      0.0266                 0.0810                 0.0672
 IR Inten    --      6.6155                 5.5653                 2.1737

                     10                     11                     12
                      A                      A                      A
 Frequencies --    185.4472               228.6143               253.6866
 Red. masses --      5.6400                 2.1815                 3.7122
 Frc consts  --      0.1143                 0.0672                 0.1408
 IR Inten    --      1.1766                 3.7240                 0.2106

                     13                     14                     15
                      A                      A                      A
 Frequencies --    263.7993               309.0376               325.2941
 Red. masses --      3.2113                 4.1896                 3.0836
 Frc consts  --      0.1317                 0.2357                 0.1922
 IR Inten    --      6.0585                 7.1809                 0.8976

                     16                     17                     18
                      A                      A                      A
 Frequencies --    358.5588               382.6876               396.3050
 Red. masses --      4.1356                 3.5821                 6.8157
 Frc consts  --      0.3133                 0.3091                 0.6307
 IR Inten    --      2.5376                 6.2383                 1.3395

                     19                     20                     21
                      A                      A                      A
 Frequencies --    406.7952               442.4867               457.3779
 Red. masses --      8.2719                11.4772                 2.7212
 Frc consts  --      0.8065                 1.3240                 0.3354
 IR Inten    --      1.6263                 4.3554                 4.2195

                     22                     23                     24
                      A                      A                      A
 Frequencies --    504.1777               525.2076               540.6040
 Red. masses --      3.7337                 8.3887                 3.5627
 Frc consts  --      0.5592                 1.3633                 0.6135
 IR Inten    --      7.0343                 1.2695                 5.8889

                     25                     26                     27
                      A                      A                      A
 Frequencies --    582.5502               611.4787               619.6914
 Red. masses --      2.4230                 1.1025                 6.8717
 Frc consts  --      0.4845                 0.2429                 1.5548
 IR Inten    --      4.5482                60.9983                 0.5520

                     28                     29                     30
                      A                      A                      A
 Frequencies --    664.6951               698.7907               732.3771
 Red. masses --      6.2570                 4.9289                10.1195
 Frc consts  --      1.6288                 1.4181                 3.1980
 IR Inten    --      5.7917                 7.2877                 1.3817

                     31                     32                     33
                      A                      A                      A
 Frequencies --    746.0998               768.0848               778.3897
 Red. masses --      2.9310                 8.0178                 3.4572
 Frc consts  --      0.9613                 2.7869                 1.2341
 IR Inten    --      2.1981                 8.6877                 1.1047

                     34                     35                     36
                      A                      A                      A
 Frequencies --    808.8979               840.1750               853.0842
 Red. masses --      7.4702                 1.3005                 2.3162
 Frc consts  --      2.8798                 0.5409                 0.9931
 IR Inten    --      5.7288                19.1121                 2.3211

                     37                     38                     39
                      A                      A                      A
 Frequencies --    871.4099               884.6162               925.1359
 Red. masses --      7.2378                 2.6060                 2.1354
 Frc consts  --      3.2382                 1.2015                 1.0768
 IR Inten    --     21.5965                 5.1152                 5.2723

                     40                     41                     42
                      A                      A                      A
 Frequencies --    968.3473               972.5845               989.8542
 Red. masses --      2.6147                 3.0245                 1.4037
 Frc consts  --      1.4446                 1.6856                 0.8104
 IR Inten    --      9.1066                28.4574                 0.1378

                     43                     44                     45
                      A                      A                      A
 Frequencies --   1007.0341              1034.7911              1064.9147
 Red. masses --      2.0687                 1.9677                 2.7397
 Frc consts  --      1.2361                 1.2414                 1.8305
 IR Inten    --      1.1807                 4.9219                 7.4067

                     46                     47                     48
                      A                      A                      A
 Frequencies --   1088.3006              1099.5123              1104.0595
 Red. masses --      3.7184                 2.2340                 2.4312
 Frc consts  --      2.5948                 1.5912                 1.7460
 IR Inten    --     34.5581                 4.7923                21.1928

                     49                     50                     51
                      A                      A                      A
 Frequencies --   1132.1618              1175.9091              1182.6706
 Red. masses --      1.8752                 2.0898                 1.2803
 Frc consts  --      1.4162                 1.7025                 1.0551
 IR Inten    --     35.1649                 4.8056                 2.4237

                     52                     53                     54
                      A                      A                      A
 Frequencies --   1200.0406              1225.5615              1234.6386
 Red. masses --      1.7979                 1.7494                 1.6397
 Frc consts  --      1.5255                 1.5482                 1.4727
 IR Inten    --     17.7603                29.1307                25.0941

                     55                     56                     57
                      A                      A                      A
 Frequencies --   1250.2433              1266.5148              1283.6076
 Red. masses --      2.1930                 1.5424                 1.8195
 Frc consts  --      2.0196                 1.4577                 1.7663
 IR Inten    --     28.0800                45.1235                14.5206

                     58                     59                     60
                      A                      A                      A
 Frequencies --   1303.6460              1325.9718              1328.2962
 Red. masses --      3.9319                 2.1189                 1.5180
 Frc consts  --      3.9370                 2.1950                 1.5780
 IR Inten    --    326.8663                43.3238                 8.0659

                     61                     62                     63
                      A                      A                      A
 Frequencies --   1344.4997              1350.8426              1372.0632
 Red. masses --      1.2525                 1.5299                 1.5564
 Frc consts  --      1.3339                 1.6449                 1.7263
 IR Inten    --     12.9579                 3.4103                 0.9618

                     64                     65                     66
                      A                      A                      A
 Frequencies --   1395.3729              1405.1386              1428.9454
 Red. masses --      2.0756                 1.6506                 1.2494
 Frc consts  --      2.3811                 1.9201                 1.5030
 IR Inten    --     94.6522                24.2415                14.0474

                     67                     68                     69
                      A                      A                      A
 Frequencies --   1429.9090              1500.0476              1504.8900
 Red. masses --      2.2620                 1.1419                 1.9650
 Frc consts  --      2.7249                 1.5138                 2.6220
 IR Inten    --     29.1654                 1.0428                63.0771

                     70                     71                     72
                      A                      A                      A
 Frequencies --   1510.1029              1518.0479              1532.4482
 Red. masses --      1.3092                 1.1054                 1.1214
 Frc consts  --      1.7590                 1.5009                 1.5516
 IR Inten    --     17.4834                 7.5227                 9.6016

                     73                     74                     75
                      A                      A                      A
 Frequencies --   1534.5838              1541.3440              1570.4195
 Red. masses --      1.0720                 1.0676                 5.1859
 Frc consts  --      1.4874                 1.4943                 7.5354
 IR Inten    --     12.6014                28.9210               153.2408

                     76                     77                     78
                      A                      A                      A
 Frequencies --   1602.4966              1624.5875              1660.3397
 Red. masses --      6.2175                 3.3529                 7.6448
 Frc consts  --      9.4073                 5.2139                12.4168
 IR Inten    --     97.4820                 4.0642               892.9820

                     79                     80                     81
                      A                      A                      A
 Frequencies --   2350.4229              3011.5981              3056.6528
 Red. masses --     12.6805                 1.0399                 1.0702
 Frc consts  --     41.2743                 5.5569                 5.8911
 IR Inten    --      0.1928                54.0193                22.7106

                     82                     83                     84
                      A                      A                      A
 Frequencies --   3063.3243              3080.4180              3082.3342
 Red. masses --      1.0960                 1.0769                 1.0655
 Frc consts  --      6.0595                 6.0205                 5.9644
 IR Inten    --     26.5733                23.9693                20.5635

                     85                     86                     87
                      A                      A                      A
 Frequencies --   3092.7987              3121.2149              3126.1536
 Red. masses --      1.0746                 1.0883                 1.1015
 Frc consts  --      6.0559                 6.2467                 6.3423
 IR Inten    --     29.6758                16.0367                12.3393

                     88                     89                     90
                      A                      A                      A
 Frequencies --   3130.8348              3137.0960              3142.5556
 Red. masses --      1.1000                 1.0979                 1.0974
 Frc consts  --      6.3525                 6.3658                 6.3851
 IR Inten    --     49.7650                33.8181                39.1535

                     91                     92                     93
                      A                      A                      A
 Frequencies --   3182.0175              3249.3778              3574.9079
 Red. masses --      1.0909                 1.0941                 1.0769
 Frc consts  --      6.5076                 6.8059                 8.1090
 IR Inten    --     22.0080                 0.3210                92.5795

 - Thermochemistry -
 -------------------
 Temperature   298.150 Kelvin.  Pressure   1.00000 Atm.
 Atom     1 has atomic number  6 and mass  12.00000

 Molecular mass:   262.10659 amu.
 Principal axes and moments of inertia in atomic units:
                           1         2         3
     Eigenvalues --  2433.068617560.316159418.15661
           X            0.99995   0.00959   0.00121
           Y           -0.00959   0.99995  -0.00339
           Z           -0.00125   0.00337   0.99999
 This molecule is an asymmetric top.
 Rotational symmetry number  1.
 Warning -- assumption of classical behavior for rotation
           may cause significant error
 Rotational temperatures (Kelvin)      0.03560     0.01146     0.00920
 Rotational constants (GHZ):           0.74176     0.23871     0.19162
 Zero-point vibrational energy     689528.5 (Joules/Mol)
                                  164.80126 (Kcal/Mol)
 Warning -- explicit consideration of  27 degrees of freedom as
           vibrations may cause significant error
 Vibrational temperatures:     37.62    51.99    62.22    96.20   120.61
          (Kelvin)            147.14   219.04   236.81   248.68   266.82
                              328.93   365.00   379.55   444.64   468.03
                              515.89   550.60   570.19   585.29   636.64
                              658.06   725.40   755.66   777.81   838.16
                              879.78   891.60   956.35  1005.40  1053.73
                             1073.47  1105.10  1119.93  1163.82  1208.82
                             1227.40  1253.76  1272.77  1331.06  1393.24
                             1399.33  1424.18  1448.90  1488.83  1532.17
                             1565.82  1581.95  1588.50  1628.93  1691.87
                             1701.60  1726.59  1763.31  1776.37  1798.82
                             1822.23  1846.83  1875.66  1907.78  1911.12
                             1934.44  1943.56  1974.09  2007.63  2021.68
                             2055.93  2057.32  2158.23  2165.20  2172.70
                             2184.13  2204.85  2207.92  2217.65  2259.48
                             2305.64  2337.42  2388.86  3381.73  4333.02
                             4397.84  4407.44  4432.03  4434.79  4449.85
                             4490.73  4497.84  4504.57  4513.58  4521.44
                             4578.21  4675.13  5143.50

 Zero-point correction=                           0.262628 (Hartree/Particle)
 Thermal correction to Energy=                    0.279535
 Thermal correction to Enthalpy=                  0.280479
 Thermal correction to Gibbs Free Energy=         0.216452
 Sum of electronic and zero-point Energies=           -910.056502
 Sum of electronic and thermal Energies=              -910.039595
 Sum of electronic and thermal Enthalpies=            -910.038651
 Sum of electronic and thermal Free Energies=         -910.102678

                     E (Thermal)             CV                S
                      KCal/Mol        Cal/Mol-Kelvin    Cal/Mol-Kelvin
 Total                  175.411             63.943            134.757
 Electronic               0.000              0.000              0.000
 Translational            0.889              2.981             42.590
 Rotational               0.889              2.981             33.515
 Vibrational            173.633             57.981             58.651
 Vibration     1          0.593              1.985              6.102
 Vibration     2          0.594              1.982              5.460
 Vibration     3          0.595              1.980              5.104
 Vibration     4          0.598              1.970              4.244
 Vibration     5          0.601              1.960              3.799
 Vibration     6          0.604              1.947              3.411
 Vibration     7          0.619              1.900              2.644
 Vibration     8          0.623              1.886              2.496
 Vibration     9          0.626              1.876              2.404
 Vibration    10          0.632              1.860              2.273
 Vibration    11          0.651              1.797              1.890
 Vibration    12          0.665              1.757              1.705
 Vibration    13          0.670              1.739              1.636
 Vibration    14          0.698              1.657              1.367
 Vibration    15          0.709              1.625              1.283
 Vibration    16          0.733              1.558              1.128
 Vibration    17          0.752              1.507              1.029
 Vibration    18          0.763              1.478              0.976
 Vibration    19          0.772              1.455              0.938
 Vibration    20          0.802              1.377              0.819
 Vibration    21          0.816              1.345              0.774
 Vibration    22          0.859              1.241              0.648
 Vibration    23          0.880              1.194              0.598
 Vibration    24          0.896              1.160              0.564
 Vibration    25          0.939              1.069              0.481
 Vibration    26          0.971              1.008              0.430
 Vibration    27          0.980              0.990              0.417

                           ! Non-Optimized Parameters !
 Normal termination of Gaussian 16 at Sat Dec 12 10:34:32 2020.

 ----------------------------------------------------------------------
 # B3LYP/6-311++G(d,p) empiricaldispersion=gd3bj scf=xqc pop=npa geom=c
 heck
 ----------------------------------------------------------------------

 ---------------------------------------
 CID_103081971_JID_9635_Energie_neutraal
 ---------------------------------------
 Structure from the checkpoint file:  "JID_9635.chk"
 Charge =  0 Multiplicity = 1

 SCF Done:  E(RB3LYP) =  -910.571601399     A.U. after   19 cycles
 Normal termination of Gaussian 16 at Sat Dec 12 10:41:28 2020.

 ----------------------------------------------------------------------
 # B3LYP/6-311++G(d,p) empiricaldispersion=gd3bj scf=xqc pop=npa geom=c
 heck
 ----------------------------------------------------------------------

 -------------------------------------
 CID_103081971_JID_9635_Energie_kation
 -------------------------------------
 Structure from the checkpoint file:  "JID_9635.chk"
 Charge =  1 Multiplicity = 2

 SCF Done:  E(UB3LYP) =  -910.254645379     A.U. after   29 cycles
 Normal termination of Gaussian 16 at Sat Dec 12 10:56:04 2020.
 Gaussian 16:  ES64L-G16RevA.03 25-Dec-2016

 ----------------------------------------------------------------------
 # B3LYP/6-311++G(d,p) empiricaldispersion=gd3bj scf=xqc pop=npa geom=c
 heck
 ----------------------------------------------------------------------

 ------------------------------------
 CID_103081971_JID_9635_Energie_anion
 ------------------------------------
 Structure from the checkpoint file:  "JID_9635.chk"
 Charge = -1 Multiplicity = 2

                         Standard orientation:
 ---------------------------------------------------------------------
 Center     Atomic      Atomic             Coordinates (Angstroms)
 Number     Number       Type             X           Y           Z
 ---------------------------------------------------------------------
      1          6           0        2.949257    2.205627    0.160404
      2          8           0        4.063848    1.339128    0.208679
      3          6           0        3.807203   -0.056404    0.121364
      4          6           0        3.037411   -0.658729    1.324934
      5          6           0        2.234642   -1.822396    0.729893
      6          6           0        1.781791   -1.284446   -0.643800
      7          6           0        3.023280   -0.526500   -1.147132
      8          7           0        0.661863   -0.349271   -0.510506
      9          6           0       -0.606737   -0.729610   -0.293177
     10          7           0       -0.829635   -2.068234   -0.244297
     11          6           0       -2.058963   -2.514491   -0.052984
     12          6           0       -3.181250   -1.697469    0.113207
     13          6           0       -2.994171   -0.316567    0.078199
     14          6           0       -1.695065    0.195237   -0.124820
     15          7           0       -1.497634    1.623330   -0.148497
     16          8           0       -0.346973    2.065620   -0.336356
     17          8           0       -2.470984    2.354539    0.021181
     18          6           0       -4.171331    0.484898    0.255562
     19          7           0       -5.223796    0.953214    0.413111
     20          1           0        3.336144    3.213227    0.328736
     21          1           0        2.199467    1.991519    0.933882
     22          1           0        2.448257    2.194986   -0.819182
     23          1           0        4.813164   -0.483807    0.089614
     24          1           0        3.711645   -0.960765    2.130713
     25          1           0        2.351822    0.086615    1.741726
     26          1           0        1.391763   -2.147462    1.343924
     27          1           0        2.881035   -2.693940    0.564597
     28          1           0        1.470012   -2.088220   -1.313180
     29          1           0        2.773466    0.301038   -1.817022
     30          1           0        3.644985   -1.215915   -1.725564
     31          1           0        0.818930    0.650361   -0.545462
     32          1           0       -2.171208   -3.596868   -0.027003
     33          1           0       -4.168595   -2.113244    0.267612
 ---------------------------------------------------------------------

 SCF Done:  E(UB3LYP) =  -910.641758491     A.U. after   23 cycles

 The electronic state is 2-A.
 Alpha  occ. eigenvalues --  -19.03749 -18.97824 -18.97735 -14.36280 -14.21400
 Alpha  occ. eigenvalues --  -14.17852 -14.16515 -10.13928 -10.13843 -10.11735
 Alpha  occ. eigenvalues --  -10.11412 -10.09519 -10.08497 -10.08379 -10.08056
 Alpha  occ. eigenvalues --  -10.07949 -10.07642 -10.07311 -10.05670  -1.05795
 Alpha  occ. eigenvalues --   -0.94838  -0.88612  -0.86263  -0.79987  -0.76792
 Alpha  occ. eigenvalues --   -0.73747  -0.70972  -0.65840  -0.63534  -0.62740
 Alpha  occ. eigenvalues --   -0.58122  -0.57757  -0.53351  -0.49649  -0.49087
 Alpha  occ. eigenvalues --   -0.47637  -0.43781  -0.41743  -0.41269  -0.40665
 Alpha  occ. eigenvalues --   -0.39694  -0.38158  -0.37323  -0.36121  -0.35907
 Alpha  occ. eigenvalues --   -0.34717  -0.33595  -0.32638  -0.31664  -0.30774
 Alpha  occ. eigenvalues --   -0.30116  -0.28326  -0.27914  -0.26974  -0.26779
 Alpha  occ. eigenvalues --   -0.26245  -0.25087  -0.23887  -0.23091  -0.21802
 Alpha  occ. eigenvalues --   -0.20021  -0.19529  -0.17095  -0.16506  -0.16203
 Alpha  occ. eigenvalues --   -0.16146  -0.14542  -0.12807  -0.10535  -0.00747
 Alpha virt. eigenvalues --    0.06073   0.08152   0.08389   0.08475   0.08728
 Alpha virt. eigenvalues --    0.09632   0.10347   0.11276   0.11447   0.11690
 Alpha virt. eigenvalues --    0.12283   0.12670   0.13118   0.14366   0.15190

  Beta  occ. eigenvalues --  -19.03749 -18.97404 -18.97333 -14.35790 -14.21397
  Beta  occ. eigenvalues --  -14.17715 -14.16242 -10.13920 -10.13843 -10.11734
  Beta  occ. eigenvalues --  -10.11412 -10.09499 -10.08497 -10.08007 -10.07949
  Beta  occ. eigenvalues --  -10.07801 -10.07642 -10.07394 -10.05761  -1.04943
  Beta  occ. eigenvalues --   -0.94837  -0.87906  -0.86063  -0.79773  -0.76389
  Beta  occ. eigenvalues --   -0.73712  -0.70427  -0.65540  -0.63526  -0.62579
  Beta  occ. eigenvalues --   -0.58086  -0.56993  -0.53141  -0.49402  -0.48963
  Beta  occ. eigenvalues --   -0.47592  -0.43584  -0.41715  -0.41153  -0.40491
  Beta  occ. eigenvalues --   -0.39340  -0.37201  -0.36337  -0.35713  -0.35552
  Beta  occ. eigenvalues --   -0.34458  -0.33450  -0.32578  -0.31443  -0.30553
  Beta  occ. eigenvalues --   -0.29757  -0.28179  -0.27842  -0.26854  -0.26444
  Beta  occ. eigenvalues --   -0.26220  -0.25073  -0.22971  -0.22680  -0.21794
  Beta  occ. eigenvalues --   -0.19853  -0.18841  -0.17036  -0.15850  -0.14803
  Beta  occ. eigenvalues --   -0.14257  -0.13736  -0.12429  -0.09877
  Beta virt. eigenvalues --    0.05747   0.06093   0.08295   0.08433   0.08659
  Beta virt. eigenvalues --    0.09622   0.09738   0.10429   0.11277   0.11492
  Beta virt. eigenvalues --    0.11819   0.12584   0.13083   0.13905   0.14393

 Mulliken charges and spin densities:
               1          2
     1  C   -0.412180  -0.000701
     2  O   -0.095483   0.000249
     3  C   -0.487104   0.000692
     4  C   -0.205303  -0.001186
     5  C   -0.286302   0.001167
     6  C    0.388651   0.003087
     7  C   -0.551239  -0.003246
     8  N    0.035138   0.005831
     9  C   -0.949215  -0.010073
    10  N   -0.116515   0.051463
    11  C   -0.137313   0.198361
    12  C   -0.248078  -0.048073
    13  C    2.011797   0.330821
    14  C   -0.893542  -0.037512
    15  N   -0.336504   0.166265
    16  O   -0.123157   0.153056
    17  O   -0.103553   0.151886
    18  C   -0.720166  -0.088710
    19  N   -0.326527   0.135837
    20  H    0.133550   0.000198
    21  H    0.171904   0.003316
    22  H    0.161675   0.000339
    23  H    0.184191   0.000006
    24  H    0.163437  -0.000189
    25  H    0.152229   0.000089
    26  H    0.189238  -0.000551
    27  H    0.114230  -0.000093
    28  H    0.255216   0.001177
    29  H    0.193785  -0.001104
    30  H    0.144714   0.000097
    31  H    0.399742  -0.002126
    32  H    0.139847  -0.016087
    33  H    0.152838   0.005714
 Sum of Mulliken charges =  -1.00000   1.00000

 Dipole moment (field-independent basis, Debye):
    X=             10.7558    Y=             -5.8402    Z=             -0.3986  Tot=             12.2456
 Quadrupole moment (field-independent basis, Debye-Ang):
   XX=           -186.0059   YY=           -139.6679   ZZ=           -116.8249
   XY=             12.8072   XZ=              1.9753   YZ=             -0.8003

 Summary of Natural Population Analysis:

                                       Natural Population
                Natural  -----------------------------------------------
    Atom  No    Charge         Core      Valence    Rydberg      Total
 -----------------------------------------------------------------------
      C    1   -0.10620      0.99961     2.09706    0.00953     3.10620
      O    2   -0.30341      0.99988     3.29289    0.01065     4.30341
      C    3    0.07105      0.99956     1.91638    0.01301     2.92895
      C    4   -0.20984      0.99962     2.20293    0.00729     3.20984
      C    5   -0.19466      0.99962     2.18768    0.00736     3.19466
      C    6   -0.00839      0.99960     1.99689    0.01191     3.00839
      C    7   -0.21093      0.99961     2.20401    0.00731     3.21093
      N    8   -0.32264      0.99963     2.80878    0.01423     3.82264
      C    9    0.21437      0.99954     1.77261    0.01348     2.78563
      N   10   -0.25746      0.99968     2.74756    0.01022     3.75746
      C   11    0.08913      0.99961     1.89722    0.01404     2.91087
      C   12   -0.14740      0.99954     2.14034    0.00752     3.14740
      C   13    0.00478      0.99939     1.98540    0.01043     2.99522
      C   14    0.01576      0.99939     1.97293    0.01191     2.98424
      N   15    0.29317      0.99970     2.18236    0.02477     3.20683
      O   16   -0.21810      0.99989     3.20987    0.00834     4.21810
      O   17   -0.17110      0.99990     3.16246    0.00874     4.17110
      C   18    0.14077      0.99962     1.84110    0.01852     2.85923
      N   19   -0.14376      0.99978     2.63302    0.01096     3.64376
      H   20    0.08867      0.00000     0.41053    0.00080     0.41133
      H   21    0.08643      0.00000     0.41207    0.00150     0.41357
      H   22    0.08201      0.00000     0.41672    0.00127     0.41799
      H   23    0.08655      0.00000     0.41229    0.00116     0.41345
      H   24    0.09824      0.00000     0.40078    0.00098     0.40176
      H   25    0.10411      0.00000     0.39481    0.00107     0.39589
      H   26    0.11321      0.00000     0.38569    0.00110     0.38679
      H   27    0.09026      0.00000     0.40858    0.00116     0.40974
      H   28    0.10681      0.00000     0.39200    0.00119     0.39319
      H   29    0.10803      0.00000     0.39096    0.00101     0.39197
      H   30    0.10135      0.00000     0.39774    0.00090     0.39865
      H   31    0.21586      0.00000     0.28198    0.00215     0.28414
      H   32    0.07931      0.00000     0.41952    0.00116     0.42069
      H   33    0.10400      0.00000     0.39507    0.00093     0.39600
 =======================================================================
   * Total *    0.00000     18.99317    49.77022    0.23661    69.00000

 Normal termination of Gaussian 16 at Sat Dec 12 11:07:29 2020.
