 Gaussian 16, Revision A.03,

 -----------------------------------------------------------
 # opt freq B3LYP/6-31G(d) empiricaldispersion=gd3bj scf=xqc
 -----------------------------------------------------------

 -------------------------------
 CID_106304363_JID_9347_neutraal
 -------------------------------
 Symbolic Z-matrix:
 Charge =  0 Multiplicity = 1

 SCF Done:  E(RB3LYP) =  -1255.38849759     A.U. after   14 cycles
 SCF Done:  E(RB3LYP) =  -1255.39480330     A.U. after   13 cycles
 SCF Done:  E(RB3LYP) =  -1255.39024196     A.U. after   14 cycles
 SCF Done:  E(RB3LYP) =  -1255.39461796     A.U. after   13 cycles
 SCF Done:  E(RB3LYP) =  -1255.39643940     A.U. after   10 cycles
 SCF Done:  E(RB3LYP) =  -1255.39873286     A.U. after   13 cycles
 SCF Done:  E(RB3LYP) =  -1255.40132676     A.U. after   15 cycles
 SCF Done:  E(RB3LYP) =  -1255.40198779     A.U. after   13 cycles
 SCF Done:  E(RB3LYP) =  -1255.40288067     A.U. after   12 cycles
 SCF Done:  E(RB3LYP) =  -1255.40336579     A.U. after   12 cycles
 SCF Done:  E(RB3LYP) =  -1255.40449672     A.U. after   10 cycles
 SCF Done:  E(RB3LYP) =  -1255.40450436     A.U. after   10 cycles
 SCF Done:  E(RB3LYP) =  -1255.40450706     A.U. after    9 cycles
 SCF Done:  E(RB3LYP) =  -1255.40450837     A.U. after    9 cycles
 SCF Done:  E(RB3LYP) =  -1255.40450900     A.U. after    8 cycles
 Optimization completed.
    -- Stationary point found.
 Normal termination of Gaussian 16 at Mon Dec 14 17:00:45 2020.

 --------------------------------------------------------------------
 #N Geom=AllCheck Guess=TCheck SCRF=Check GenChk RB3LYP/6-31G(d) Freq
 --------------------------------------------------------------------

 Structure from the checkpoint file:  "JID_9347.chk"
 -------------------------------
 CID_106304363_JID_9347_neutraal
 -------------------------------
 Charge =  0 Multiplicity = 1

 SCF Done:  E(RB3LYP) =  -1255.40450900     A.U. after    1 cycles

  Exact polarizability: 168.402  -5.411 174.932   8.515  -1.478 148.029
 Approx polarizability: 216.654 -13.886 249.848  17.106  -4.617 258.010

                      1                      2                      3
                      A                      A                      A
 Frequencies --     27.0006                30.4532                33.0560
 Red. masses --      4.2442                 4.1037                 3.5083
 Frc consts  --      0.0018                 0.0022                 0.0023
 IR Inten    --      3.7170                 0.4141                 0.9329

                      4                      5                      6
                      A                      A                      A
 Frequencies --     49.9881                56.6161                72.7659
 Red. masses --      4.4985                 2.9054                 3.3437
 Frc consts  --      0.0066                 0.0055                 0.0104
 IR Inten    --      1.1172                 0.5060                 3.3125

                      7                      8                      9
                      A                      A                      A
 Frequencies --     83.4577                85.1790                93.2581
 Red. masses --      2.9069                 2.9144                 3.1741
 Frc consts  --      0.0119                 0.0125                 0.0163
 IR Inten    --      1.0266                 2.8782                 1.5469

                     10                     11                     12
                      A                      A                      A
 Frequencies --    144.1721               152.2311               163.4395
 Red. masses --      5.0936                 4.4034                 3.6460
 Frc consts  --      0.0624                 0.0601                 0.0574
 IR Inten    --      4.4486                 2.5663                 3.0139

                     13                     14                     15
                      A                      A                      A
 Frequencies --    193.3131               204.4854               233.9886
 Red. masses --      2.3039                 3.5767                 1.6416
 Frc consts  --      0.0507                 0.0881                 0.0530
 IR Inten    --      4.1197                 1.5722                 3.0834

                     16                     17                     18
                      A                      A                      A
 Frequencies --    252.5483               260.2637               281.6671
 Red. masses --      1.4856                 2.4504                 2.1842
 Frc consts  --      0.0558                 0.0978                 0.1021
 IR Inten    --      0.0148                 0.2193                 1.3274

                     19                     20                     21
                      A                      A                      A
 Frequencies --    295.0587               304.3525               326.9333
 Red. masses --      4.6778                 2.2038                 2.2530
 Frc consts  --      0.2399                 0.1203                 0.1419
 IR Inten    --      2.2352                 1.7274                 3.4030

                     22                     23                     24
                      A                      A                      A
 Frequencies --    342.5362               383.6858               394.5240
 Red. masses --      2.7934                 2.4014                 3.0634
 Frc consts  --      0.1931                 0.2083                 0.2809
 IR Inten    --      1.2147                17.0045                 1.7891

                     25                     26                     27
                      A                      A                      A
 Frequencies --    407.1597               440.6588               465.7085
 Red. masses --      2.9944                 2.4922                 3.8232
 Frc consts  --      0.2925                 0.2851                 0.4886
 IR Inten    --      3.5387                16.4933                10.2566

                     28                     29                     30
                      A                      A                      A
 Frequencies --    482.8173               514.5719               575.9758
 Red. masses --      6.6670                 2.8622                 2.7792
 Frc consts  --      0.9157                 0.4465                 0.5432
 IR Inten    --     40.9925                18.8262                13.1405

                     31                     32                     33
                      A                      A                      A
 Frequencies --    611.2611               665.5646               671.5597
 Red. masses --      3.7111                 2.9768                 3.3617
 Frc consts  --      0.8170                 0.7769                 0.8933
 IR Inten    --     72.8494                11.6921                 5.5475

                     34                     35                     36
                      A                      A                      A
 Frequencies --    680.2033               700.0355               737.7268
 Red. masses --      3.3699                 4.5402                 1.3603
 Frc consts  --      0.9186                 1.3109                 0.4362
 IR Inten    --     26.4960                 3.8035                80.1978

                     37                     38                     39
                      A                      A                      A
 Frequencies --    750.9597               779.2429               807.6764
 Red. masses --      1.8024                 2.7451                 1.6397
 Frc consts  --      0.5989                 0.9821                 0.6302
 IR Inten    --     15.3746                20.2484                65.0683

                     40                     41                     42
                      A                      A                      A
 Frequencies --    816.6048               817.0430               819.5430
 Red. masses --      1.6132                 1.6045                 1.7136
 Frc consts  --      0.6338                 0.6311                 0.6781
 IR Inten    --     33.2840                18.4909                23.7194

                     43                     44                     45
                      A                      A                      A
 Frequencies --    830.2545               890.8690               920.1591
 Red. masses --      1.3841                 1.7413                 1.9561
 Frc consts  --      0.5621                 0.8143                 0.9758
 IR Inten    --      7.5336                18.6368                 6.4354

                     46                     47                     48
                      A                      A                      A
 Frequencies --    972.9757               975.2901               983.3110
 Red. masses --      2.2533                 2.7319                 2.3480
 Frc consts  --      1.2568                 1.5310                 1.3376
 IR Inten    --      4.5287                 6.4551                 5.6640

                     49                     50                     51
                      A                      A                      A
 Frequencies --    990.8028              1011.5336              1047.8296
 Red. masses --      1.8253                 2.3002                 6.4456
 Frc consts  --      1.0557                 1.3867                 4.1696
 IR Inten    --      5.2792                40.2383                34.6184

                     52                     53                     54
                      A                      A                      A
 Frequencies --   1055.1047              1068.1672              1084.3165
 Red. masses --      2.2806                 1.8071                 4.3545
 Frc consts  --      1.4959                 1.2148                 3.0165
 IR Inten    --      1.8879                 2.0272                40.2805

                     55                     56                     57
                      A                      A                      A
 Frequencies --   1105.3290              1109.7324              1119.9397
 Red. masses --      1.9973                 5.0987                 2.9919
 Frc consts  --      1.4378                 3.6995                 2.2110
 IR Inten    --     10.1897               118.3527                28.4213

                     58                     59                     60
                      A                      A                      A
 Frequencies --   1129.2057              1140.6996              1153.8318
 Red. masses --      1.6839                 2.0348                 1.9226
 Frc consts  --      1.2651                 1.5600                 1.5081
 IR Inten    --      3.3570                45.2313                32.5453

                     61                     62                     63
                      A                      A                      A
 Frequencies --   1160.1056              1212.4508              1227.6614
 Red. masses --      1.3132                 1.5294                 1.5456
 Frc consts  --      1.0413                 1.3246                 1.3725
 IR Inten    --      5.0362                19.5037                24.0070

                     64                     65                     66
                      A                      A                      A
 Frequencies --   1233.6323              1243.9956              1275.0909
 Red. masses --      1.5087                 3.1040                 1.2459
 Frc consts  --      1.3528                 2.8302                 1.1935
 IR Inten    --     17.0379                 2.0709                25.8346

                     67                     68                     69
                      A                      A                      A
 Frequencies --   1290.8896              1309.4703              1311.1066
 Red. masses --      1.2677                 1.7427                 2.3749
 Frc consts  --      1.2447                 1.7606                 2.4053
 IR Inten    --      0.3330                 2.9635                86.9955

                     70                     71                     72
                      A                      A                      A
 Frequencies --   1324.7801              1342.0626              1357.7879
 Red. masses --      1.5388                 1.3301                 1.2102
 Frc consts  --      1.5912                 1.4115                 1.3146
 IR Inten    --     42.4419                11.4110                 3.1823

                     73                     74                     75
                      A                      A                      A
 Frequencies --   1392.0337              1394.7932              1399.2263
 Red. masses --      1.4365                 1.3278                 1.4473
 Frc consts  --      1.6401                 1.5219                 1.6695
 IR Inten    --      9.6953                18.6819                18.9682

                     76                     77                     78
                      A                      A                      A
 Frequencies --   1403.1881              1415.6421              1417.7222
 Red. masses --      1.4714                 1.3081                 2.0946
 Frc consts  --      1.7069                 1.5445                 2.4804
 IR Inten    --      3.8557                 1.0891                43.1262

                     79                     80                     81
                      A                      A                      A
 Frequencies --   1426.8898              1433.6083              1442.4449
 Red. masses --      1.3512                 2.2092                 1.3256
 Frc consts  --      1.6209                 2.6751                 1.6250
 IR Inten    --      2.8004                40.1057                 7.1662

                     82                     83                     84
                      A                      A                      A
 Frequencies --   1443.9921              1452.5157              1481.1223
 Red. masses --      1.2728                 1.7576                 1.0897
 Frc consts  --      1.5637                 2.1848                 1.4084
 IR Inten    --     15.5149                12.1599                 5.3088

                     85                     86                     87
                      A                      A                      A
 Frequencies --   1505.9013              1507.2058              1510.1394
 Red. masses --      1.0764                 1.1353                 1.0914
 Frc consts  --      1.4381                 1.5195                 1.4664
 IR Inten    --     12.0213                 3.7048                12.7143

                     88                     89                     90
                      A                      A                      A
 Frequencies --   1517.2287              1523.1843              1526.2781
 Red. masses --      1.2310                 1.0474                 1.0558
 Frc consts  --      1.6696                 1.4318                 1.4491
 IR Inten    --      7.0094                 9.0619                13.4729

                     91                     92                     93
                      A                      A                      A
 Frequencies --   1527.2128              1529.4316              1533.1347
 Red. masses --      1.0935                 1.0582                 1.1478
 Frc consts  --      1.5027                 1.4584                 1.5896
 IR Inten    --      4.4858                 6.0781                 3.4029

                     94                     95                     96
                      A                      A                      A
 Frequencies --   1533.9397              1553.4729              1554.3951
 Red. masses --      1.1113                 1.1211                 2.2589
 Frc consts  --      1.5406                 1.5941                 3.2156
 IR Inten    --     17.6562                 6.5008                54.4446

                     97                     98                     99
                      A                      A                      A
 Frequencies --   1563.4129              2948.2806              3041.0555
 Red. masses --      7.1813                 1.0735                 1.0696
 Frc consts  --     10.3420                 5.4979                 5.8279
 IR Inten    --      3.1441                64.6012                28.9354

                    100                    101                    102
                      A                      A                      A
 Frequencies --   3043.7459              3055.2027              3057.0225
 Red. masses --      1.0421                 1.0629                 1.0674
 Frc consts  --      5.6882                 5.8456                 5.8775
 IR Inten    --     24.2979                23.0894                16.3455

                    103                    104                    105
                      A                      A                      A
 Frequencies --   3058.4755              3063.2179              3069.7822
 Red. masses --      1.0830                 1.0377                 1.0696
 Frc consts  --      5.9689                 5.7371                 5.9389
 IR Inten    --     27.3441                24.2553                21.5295

                    106                    107                    108
                      A                      A                      A
 Frequencies --   3090.8661              3091.1417              3101.3573
 Red. masses --      1.0601                 1.0606                 1.1006
 Frc consts  --      5.9673                 5.9710                 6.2368
 IR Inten    --      2.0891                12.8663                23.2748

                    109                    110                    111
                      A                      A                      A
 Frequencies --   3107.3029              3108.9484              3123.5233
 Red. masses --      1.0939                 1.0980                 1.1035
 Frc consts  --      6.2228                 6.2529                 6.3431
 IR Inten    --      9.5048                46.2696                 4.6728

                    112                    113                    114
                      A                      A                      A
 Frequencies --   3127.3778              3133.2967              3136.4268
 Red. masses --      1.0941                 1.1032                 1.1029
 Frc consts  --      6.3045                 6.3813                 6.3921
 IR Inten    --     24.4604                29.2945                23.4729

                    115                    116                    117
                      A                      A                      A
 Frequencies --   3142.1629              3147.4665              3147.9919
 Red. masses --      1.0939                 1.1053                 1.1048
 Frc consts  --      6.3634                 6.4512                 6.4508
 IR Inten    --      4.0112                25.4604                 5.2676

                    118                    119                    120
                      A                      A                      A
 Frequencies --   3274.4108              3472.6971              3541.6007
 Red. masses --      1.0982                 1.0732                 1.0755
 Frc consts  --      6.9376                 7.6255                 7.9478
 IR Inten    --      0.5490                 4.6068                27.6955

 - Thermochemistry -
 -------------------
 Temperature   298.150 Kelvin.  Pressure   1.00000 Atm.
 Atom     1 has atomic number  6 and mass  12.00000

 Molecular mass:   289.15725 amu.
 Principal axes and moments of inertia in atomic units:
                           1         2         3
     Eigenvalues --  5430.533476260.766419492.78972
           X            0.99862   0.05146   0.01006
           Y           -0.05169   0.99839   0.02349
           Z           -0.00884  -0.02398   0.99967
 This molecule is an asymmetric top.
 Rotational symmetry number  1.
 Warning -- assumption of classical behavior for rotation
           may cause significant error
 Rotational temperatures (Kelvin)      0.01595     0.01383     0.00912
 Rotational constants (GHZ):           0.33233     0.28826     0.19012
 Zero-point vibrational energy     951983.1 (Joules/Mol)
                                  227.52942 (Kcal/Mol)
 Warning -- explicit consideration of  31 degrees of freedom as
           vibrations may cause significant error
 Vibrational temperatures:     38.85    43.82    47.56    71.92    81.46
          (Kelvin)            104.69   120.08   122.55   134.18   207.43
                              219.03   235.15   278.13   294.21   336.66
                              363.36   374.46   405.26   424.52   437.90
                              470.38   492.83   552.04   567.63   585.81
                              634.01   670.05   694.67   740.35   828.70
                              879.47   957.60   966.22   978.66  1007.19
                             1061.42  1080.46  1121.16  1162.07  1174.91
                             1175.54  1179.14  1194.55  1281.76  1323.90
                             1399.90  1403.22  1414.77  1425.54  1455.37
                             1507.59  1518.06  1536.85  1560.09  1590.32
                             1596.66  1611.34  1624.68  1641.21  1660.11
                             1669.13  1744.45  1766.33  1774.92  1789.83
                             1834.57  1857.30  1884.04  1886.39  1906.06
                             1930.93  1953.55  2002.83  2006.80  2013.17
                             2018.87  2036.79  2039.79  2052.98  2062.64
                             2075.36  2077.58  2089.85  2131.00  2166.66
                             2168.53  2172.75  2182.95  2191.52  2195.97
                             2197.32  2200.51  2205.84  2207.00  2235.10
                             2236.43  2249.40  4241.92  4375.40  4379.27
                             4395.76  4398.37  4400.46  4407.29  4416.73
                             4447.07  4447.46  4462.16  4470.72  4473.08
                             4494.05  4499.60  4508.12  4512.62  4520.87
                             4528.50  4529.26  4711.15  4996.44  5095.57

 Zero-point correction=                           0.362591 (Hartree/Particle)
 Thermal correction to Energy=                    0.383535
 Thermal correction to Enthalpy=                  0.384479
 Thermal correction to Gibbs Free Energy=         0.310704
 Sum of electronic and zero-point Energies=          -1255.041918
 Sum of electronic and thermal Energies=             -1255.020974
 Sum of electronic and thermal Enthalpies=           -1255.020030
 Sum of electronic and thermal Free Energies=        -1255.093805

                     E (Thermal)             CV                S
                      KCal/Mol        Cal/Mol-Kelvin    Cal/Mol-Kelvin
 Total                  240.672             76.919            155.272
 Electronic               0.000              0.000              0.000
 Translational            0.889              2.981             42.883
 Rotational               0.889              2.981             34.133
 Vibrational            238.894             70.958             78.255
 Vibration     1          0.593              1.984              6.038
 Vibration     2          0.594              1.984              5.800
 Vibration     3          0.594              1.983              5.637
 Vibration     4          0.595              1.978              4.818
 Vibration     5          0.596              1.975              4.572
 Vibration     6          0.599              1.967              4.077
 Vibration     7          0.600              1.961              3.808
 Vibration     8          0.601              1.959              3.768
 Vibration     9          0.602              1.954              3.591
 Vibration    10          0.616              1.909              2.748
 Vibration    11          0.619              1.900              2.644
 Vibration    12          0.623              1.887              2.510
 Vibration    13          0.635              1.849              2.196
 Vibration    14          0.640              1.834              2.092
 Vibration    15          0.654              1.789              1.848
 Vibration    16          0.664              1.758              1.713
 Vibration    17          0.668              1.745              1.660
 Vibration    18          0.681              1.708              1.524
 Vibration    19          0.689              1.683              1.445
 Vibration    20          0.695              1.665              1.393
 Vibration    21          0.711              1.622              1.275
 Vibration    22          0.722              1.590              1.200
 Vibration    23          0.753              1.505              1.025
 Vibration    24          0.761              1.482              0.983
 Vibration    25          0.772              1.455              0.937
 Vibration    26          0.801              1.381              0.825
 Vibration    27          0.823              1.326              0.750
 Vibration    28          0.839              1.288              0.703
 Vibration    29          0.870              1.218              0.623
 Vibration    30          0.932              1.083              0.493
 Vibration    31          0.970              1.008              0.431

                           ! Non-Optimized Parameters !
 Normal termination of Gaussian 16 at Mon Dec 14 17:23:34 2020.

 ----------------------------------------------------------------------
 # B3LYP/6-311++G(d,p) empiricaldispersion=gd3bj scf=xqc pop=npa geom=c
 heck
 ----------------------------------------------------------------------

 ---------------------------------------
 CID_106304363_JID_9347_Energie_neutraal
 ---------------------------------------
 Structure from the checkpoint file:  "JID_9347.chk"
 Charge =  0 Multiplicity = 1

 SCF Done:  E(RB3LYP) =  -1255.67874281     A.U. after   15 cycles
 Normal termination of Gaussian 16 at Mon Dec 14 17:34:56 2020.

 ----------------------------------------------------------------------
 # B3LYP/6-311++G(d,p) empiricaldispersion=gd3bj scf=xqc pop=npa geom=c
 heck
 ----------------------------------------------------------------------

 -------------------------------------
 CID_106304363_JID_9347_Energie_kation
 -------------------------------------
 Structure from the checkpoint file:  "JID_9347.chk"
 Charge =  1 Multiplicity = 2

 SCF Done:  E(UB3LYP) =  -1255.37160227     A.U. after   33 cycles
 SCF Done:  E(UB3LYP) =  -1255.37269401     a.u. after   14 cycles
 Normal termination of Gaussian 16 at Mon Dec 14 23:57:54 2020.
 Gaussian 16:  ES64L-G16RevA.03 25-Dec-2016

 ----------------------------------------------------------------------
 # B3LYP/6-311++G(d,p) empiricaldispersion=gd3bj scf=xqc pop=npa geom=c
 heck
 ----------------------------------------------------------------------

 ------------------------------------
 CID_106304363_JID_9347_Energie_anion
 ------------------------------------
 Structure from the checkpoint file:  "JID_9347.chk"
 Charge = -1 Multiplicity = 2

                         Standard orientation:
 ---------------------------------------------------------------------
 Center     Atomic      Atomic             Coordinates (Angstroms)
 Number     Number       Type             X           Y           Z
 ---------------------------------------------------------------------
      1          6           0        5.283536   -1.129352   -0.969534
      2          6           0        4.085026   -0.979226   -0.037138
      3          7           0        2.871436   -0.703102   -0.803088
      4          6           0        1.644448   -0.635370   -0.009253
      5          6           0        1.573687    0.441763    1.088016
      6          6           0        1.795444    1.874867    0.594299
      7          6           0        0.876285    2.358078   -0.527942
      8         16           0       -0.876965    2.533126   -0.081417
      9          8           0       -0.975202    2.820683    1.353131
     10          8           0       -1.479723    3.412822   -1.091422
     11          7           0       -1.567457    0.995616   -0.389921
     12          6           0       -2.126147    0.230710    0.743240
     13          6           0       -1.581218   -1.158643    0.836531
     14          7           0       -1.066079   -1.670403    1.934451
     15          7           0       -0.674525   -2.966482    1.655367
     16          6           0       -0.966078   -3.187638    0.396497
     17          7           0       -1.542885   -2.086310   -0.178032
     18          6           0       -1.980458   -1.951766   -1.565652
     19          6           0       -3.501657   -1.934912   -1.707231
     20          1           0        5.099278   -1.918438   -1.705285
     21          1           0        6.190410   -1.374887   -0.406380
     22          1           0        5.475195   -0.196677   -1.515935
     23          1           0        3.918115   -1.916508    0.509433
     24          1           0        4.311147   -0.212943    0.727244
     25          1           0        2.998367    0.163570   -1.324555
     26          1           0        0.809499   -0.500021   -0.707033
     27          1           0        1.496215   -1.613848    0.461249
     28          1           0        0.609646    0.359821    1.597576
     29          1           0        2.325712    0.231816    1.857551
     30          1           0        1.704879    2.569367    1.435271
     31          1           0        2.820283    1.980571    0.212973
     32          1           0        1.142238    3.372793   -0.839956
     33          1           0        0.887300    1.717420   -1.413319
     34          1           0       -2.246621    1.162680   -1.127750
     35          1           0       -1.883053    0.736188    1.680614
     36          1           0       -3.219804    0.218431    0.663994
     37          1           0       -0.776216   -4.101191   -0.149793
     38          1           0       -1.532621   -1.042012   -1.973886
     39          1           0       -1.555512   -2.797028   -2.113771
     40          1           0       -3.945315   -1.079645   -1.186948
     41          1           0       -3.778630   -1.867173   -2.764319
     42          1           0       -3.940293   -2.846630   -1.290415
 ---------------------------------------------------------------------

 SCF Done:  E(UB3LYP) =  -1255.67881511     A.U. after   30 cycles

 The electronic state is 2-A.
 Alpha  occ. eigenvalues --  -88.97604 -19.03723 -19.03124 -14.29252 -14.25892
 Alpha  occ. eigenvalues --  -14.23355 -14.23154 -14.21015 -10.14599 -10.14199
 Alpha  occ. eigenvalues --  -10.13968 -10.13455 -10.12785 -10.11092 -10.09858
 Alpha  occ. eigenvalues --  -10.09819 -10.08261 -10.08204 -10.07681  -8.03846
 Alpha  occ. eigenvalues --   -6.00146  -6.00089  -5.99887  -1.03429  -0.97422
 Alpha  occ. eigenvalues --   -0.92692  -0.84497  -0.83599  -0.82025  -0.73580
 Alpha  occ. eigenvalues --   -0.72973  -0.68542  -0.67667  -0.64933  -0.62904
 Alpha  occ. eigenvalues --   -0.58279  -0.57246  -0.54456  -0.53880  -0.52192
 Alpha  occ. eigenvalues --   -0.48954  -0.48489  -0.44853  -0.44043  -0.42928
 Alpha  occ. eigenvalues --   -0.41128  -0.40490  -0.39080  -0.38730  -0.38339
 Alpha  occ. eigenvalues --   -0.37872  -0.37125  -0.36304  -0.36023  -0.34791
 Alpha  occ. eigenvalues --   -0.34509  -0.33234  -0.31962  -0.31706  -0.30711
 Alpha  occ. eigenvalues --   -0.29782  -0.29331  -0.28581  -0.27999  -0.27853
 Alpha  occ. eigenvalues --   -0.27028  -0.26227  -0.25566  -0.25035  -0.23829
 Alpha  occ. eigenvalues --   -0.22830  -0.22669  -0.22257  -0.20157  -0.19513
 Alpha  occ. eigenvalues --   -0.17410  -0.17299  -0.14014   0.03269
 Alpha virt. eigenvalues --    0.05050   0.06396   0.06874   0.07349   0.07916
 Alpha virt. eigenvalues --    0.08364   0.09145   0.09336   0.09675   0.09988
 Alpha virt. eigenvalues --    0.10432   0.10552   0.11172   0.11359   0.11858

  Beta  occ. eigenvalues --  -88.97600 -19.03707 -19.03115 -14.29248 -14.25839
  Beta  occ. eigenvalues --  -14.23365 -14.23134 -14.20999 -10.14568 -10.14169
  Beta  occ. eigenvalues --  -10.13952 -10.13420 -10.12756 -10.11087 -10.09843
  Beta  occ. eigenvalues --  -10.09813 -10.08248 -10.08133 -10.07680  -8.03841
  Beta  occ. eigenvalues --   -6.00143  -6.00084  -5.99884  -1.03396  -0.97394
  Beta  occ. eigenvalues --   -0.92659  -0.84440  -0.83549  -0.82003  -0.73535
  Beta  occ. eigenvalues --   -0.72932  -0.68472  -0.67644  -0.64898  -0.62851
  Beta  occ. eigenvalues --   -0.58229  -0.57127  -0.54417  -0.53848  -0.52139
  Beta  occ. eigenvalues --   -0.48898  -0.48439  -0.44807  -0.43980  -0.42857
  Beta  occ. eigenvalues --   -0.41099  -0.40457  -0.39036  -0.38684  -0.38307
  Beta  occ. eigenvalues --   -0.37822  -0.37085  -0.36261  -0.35993  -0.34750
  Beta  occ. eigenvalues --   -0.34477  -0.33207  -0.31921  -0.31621  -0.30667
  Beta  occ. eigenvalues --   -0.29712  -0.29309  -0.28559  -0.27975  -0.27791
  Beta  occ. eigenvalues --   -0.26992  -0.26209  -0.25547  -0.25019  -0.23812
  Beta  occ. eigenvalues --   -0.22814  -0.22648  -0.22221  -0.20094  -0.19459
  Beta  occ. eigenvalues --   -0.17337  -0.17218  -0.13996
  Beta virt. eigenvalues --    0.05358   0.06161   0.06787   0.07394   0.07577
  Beta virt. eigenvalues --    0.08173   0.08849   0.09476   0.09537   0.09702
  Beta virt. eigenvalues --    0.10087   0.10758   0.10951   0.11316   0.11549

 Mulliken charges and spin densities:
               1          2
     1  C   -0.217006  -0.322247
     2  C   -0.044154  -0.044864
     3  N    0.054294   0.146560
     4  C   -0.729210  -0.556624
     5  C    0.140528   0.137285
     6  C   -0.709983   0.017633
     7  C   -0.301678  -0.235139
     8  S    0.822693  -0.521327
     9  O   -0.211168   0.008049
    10  O   -0.234670   0.016342
    11  N   -0.180509  -0.000193
    12  C   -0.370100  -0.825415
    13  C   -0.176114   0.280724
    14  N    0.067033   0.023169
    15  N   -0.118364  -0.015837
    16  C    0.292258  -0.130691
    17  N    0.170047  -0.013201
    18  C   -0.771620   0.641334
    19  C    1.664565  -2.172476
    20  H    0.056764   0.099024
    21  H    0.066715   0.054668
    22  H   -0.064619   0.186038
    23  H    0.122059   0.022762
    24  H    0.062291   0.031929
    25  H    0.167281   0.057318
    26  H    0.312770   0.082691
    27  H    0.235883  -0.155480
    28  H    0.092116   0.038997
    29  H    0.184902   0.025288
    30  H    0.163392   0.048991
    31  H   -0.114135   0.287657
    32  H   -0.088508   0.344385
    33  H   -0.100307   0.354547
    34  H    0.075557   0.292216
    35  H    0.285800  -0.012892
    36  H   -0.007910   0.219066
    37  H   -0.041793   0.212579
    38  H    0.045166   0.114260
    39  H   -0.540285   0.720164
    40  H   -0.418214   0.576775
    41  H   -0.567324   0.736194
    42  H   -0.074443   0.229742
 Sum of Mulliken charges =  -1.00000   1.00000

 Dipole moment (field-independent basis, Debye):
    X=              4.7283    Y=              0.3927    Z=              3.0434  Tot=              5.6368
 Quadrupole moment (field-independent basis, Debye-Ang):
   XX=           -186.2218   YY=           -184.6028   ZZ=           -179.8089
   XY=             -0.6269   XZ=             -7.7695   YZ=              1.7380

 Summary of Natural Population Analysis:

                                       Natural Population
                Natural  -----------------------------------------------
    Atom  No    Charge         Core      Valence    Rydberg      Total
 -----------------------------------------------------------------------
      C    1   -0.28689      0.99967     2.28265    0.00457     3.28689
      C    2   -0.08793      0.99965     2.07956    0.00872     3.08793
      N    3   -0.33776      0.99975     2.82703    0.01098     3.83776
      C    4   -0.09718      0.99962     2.08586    0.01170     3.09718
      C    5   -0.20604      0.99961     2.19836    0.00807     3.20604
      C    6   -0.20432      0.99961     2.19405    0.01065     3.20432
      C    7   -0.28378      0.99957     2.27245    0.01176     3.28378
      S    8    1.08846      4.99930     1.81426    0.09798     6.91154
      O    9   -0.46246      0.99990     3.45739    0.00517     4.46246
      O   10   -0.46362      0.99991     3.45839    0.00532     4.46362
      N   11   -0.44246      0.99975     2.92975    0.01296     3.94246
      C   12   -0.12095      0.99956     2.10850    0.01289     3.12095
      C   13    0.18451      0.99959     1.79828    0.01763     2.81549
      N   14   -0.16356      0.99968     2.65132    0.01255     3.66356
      N   15   -0.16614      0.99973     2.65372    0.01269     3.66614
      C   16    0.10254      0.99963     1.88109    0.01673     2.89746
      N   17   -0.21165      0.99960     2.70017    0.01187     3.71165
      C   18   -0.08725      0.99962     2.07667    0.01096     3.08725
      C   19   -0.28801      0.99966     2.28323    0.00512     3.28801
      H   20    0.10064      0.00000     0.39816    0.00120     0.39936
      H   21    0.09581      0.00000     0.40330    0.00089     0.40419
      H   22    0.09531      0.00000     0.40340    0.00129     0.40469
      H   23    0.09007      0.00000     0.40854    0.00139     0.40993
      H   24    0.07589      0.00000     0.42246    0.00165     0.42411
      H   25    0.16761      0.00000     0.32885    0.00354     0.33239
      H   26    0.09504      0.00000     0.40234    0.00262     0.40496
      H   27    0.09915      0.00000     0.39840    0.00245     0.40085
      H   28    0.11011      0.00000     0.38825    0.00164     0.38989
      H   29    0.09784      0.00000     0.40117    0.00098     0.40216
      H   30    0.10927      0.00000     0.38977    0.00096     0.39073
      H   31    0.10187      0.00000     0.39684    0.00129     0.39813
      H   32    0.11907      0.00000     0.37985    0.00108     0.38093
      H   33    0.11774      0.00000     0.38080    0.00146     0.38226
      H   34    0.20585      0.00000     0.29062    0.00353     0.29415
      H   35    0.12720      0.00000     0.37136    0.00144     0.37280
      H   36    0.10716      0.00000     0.39141    0.00142     0.39284
      H   37    0.09830      0.00000     0.40037    0.00133     0.40170
      H   38    0.10790      0.00000     0.38946    0.00263     0.39210
      H   39    0.10278      0.00000     0.39543    0.00179     0.39722
      H   40    0.09963      0.00000     0.39866    0.00171     0.40037
      H   41    0.10993      0.00000     0.38716    0.00291     0.39007
      H   42    0.10031      0.00000     0.39849    0.00120     0.39969
 =======================================================================
   * Total *    0.00000     22.99341    54.67782    0.32877    78.00000

 Normal termination of Gaussian 16 at Tue Dec 15 00:27:06 2020.
