 Gaussian 16, Revision A.03,

 -----------------------------------------------------------
 # opt freq B3LYP/6-31G(d) empiricaldispersion=gd3bj scf=xqc
 -----------------------------------------------------------

 ------------------------------
 CID_62118986_JID_8740_neutraal
 ------------------------------
 Symbolic Z-matrix:
 Charge =  0 Multiplicity = 1

 SCF Done:  E(RB3LYP) =  -754.837498193     A.U. after   15 cycles
 SCF Done:  E(RB3LYP) =  -754.840261537     A.U. after   12 cycles
 SCF Done:  E(RB3LYP) =  -754.840661792     A.U. after   11 cycles
 SCF Done:  E(RB3LYP) =  -754.840699799     A.U. after   12 cycles
 SCF Done:  E(RB3LYP) =  -754.840870801     A.U. after   10 cycles
 SCF Done:  E(RB3LYP) =  -754.840893779     A.U. after   10 cycles
 SCF Done:  E(RB3LYP) =  -754.840898566     A.U. after   10 cycles
 SCF Done:  E(RB3LYP) =  -754.840899733     A.U. after    8 cycles
 SCF Done:  E(RB3LYP) =  -754.840899953     A.U. after    6 cycles
 SCF Done:  E(RB3LYP) =  -754.840899998     A.U. after    6 cycles
 Optimization completed.
    -- Stationary point found.
 Normal termination of Gaussian 16 at Fri Dec 11 22:10:12 2020.

 --------------------------------------------------------------------
 #N Geom=AllCheck Guess=TCheck SCRF=Check GenChk RB3LYP/6-31G(d) Freq
 --------------------------------------------------------------------

 Structure from the checkpoint file:  "JID_8740.chk"
 ------------------------------
 CID_62118986_JID_8740_neutraal
 ------------------------------
 Charge =  0 Multiplicity = 1

 SCF Done:  E(RB3LYP) =  -754.840899998     A.U. after    1 cycles

  Exact polarizability: 214.067  -3.233 172.320  -4.405   0.420 131.148
 Approx polarizability: 297.279 -18.840 263.774  -8.652   1.939 192.393

                      1                      2                      3
                      A                      A                      A
 Frequencies --     30.7794                42.4251                63.8479
 Red. masses --      3.3063                 3.7567                 3.2971
 Frc consts  --      0.0018                 0.0040                 0.0079
 IR Inten    --      0.0162                 0.9584                 0.0753

                      4                      5                      6
                      A                      A                      A
 Frequencies --     79.9448                93.0601                99.3904
 Red. masses --      3.3254                 2.0796                 3.0290
 Frc consts  --      0.0125                 0.0106                 0.0176
 IR Inten    --      0.7182                 0.0761                 1.1195

                      7                      8                      9
                      A                      A                      A
 Frequencies --    119.4691               142.9775               179.8412
 Red. masses --      3.7928                 2.8344                 2.7836
 Frc consts  --      0.0319                 0.0341                 0.0530
 IR Inten    --      0.8618                 0.2523                 0.1425

                     10                     11                     12
                      A                      A                      A
 Frequencies --    215.1820               227.6595               244.8819
 Red. masses --      1.4929                 1.1164                 1.2493
 Frc consts  --      0.0407                 0.0341                 0.0441
 IR Inten    --      0.0095                 0.1178                 0.2756

                     13                     14                     15
                      A                      A                      A
 Frequencies --    247.1184               255.3807               265.7231
 Red. masses --      3.2890                 1.6511                 2.2235
 Frc consts  --      0.1183                 0.0634                 0.0925
 IR Inten    --      0.5790                 0.9333                 0.8327

                     16                     17                     18
                      A                      A                      A
 Frequencies --    275.3118               292.0549               313.7274
 Red. masses --      2.2282                 1.4557                 2.5046
 Frc consts  --      0.0995                 0.0732                 0.1452
 IR Inten    --      1.7753                 0.2732                 3.0091

                     19                     20                     21
                      A                      A                      A
 Frequencies --    321.8721               332.6537               367.0908
 Red. masses --      2.2126                 3.3612                 2.4701
 Frc consts  --      0.1351                 0.2191                 0.1961
 IR Inten    --      0.0148                 3.3670                 0.8610

                     22                     23                     24
                      A                      A                      A
 Frequencies --    403.2910               417.4130               429.3030
 Red. masses --      2.0768                 2.5642                 2.5971
 Frc consts  --      0.1990                 0.2632                 0.2820
 IR Inten    --      0.3574                 1.1897                 1.2511

                     25                     26                     27
                      A                      A                      A
 Frequencies --    466.0868               486.9977               553.5356
 Red. masses --      3.5785                 3.3259                 2.8144
 Frc consts  --      0.4580                 0.4647                 0.5081
 IR Inten    --      4.5587                 2.3007                 0.0849

                     28                     29                     30
                      A                      A                      A
 Frequencies --    583.8607               624.7192               630.1711
 Red. masses --      3.6036                 4.4257                 4.2153
 Frc consts  --      0.7238                 1.0177                 0.9863
 IR Inten    --      2.8541                15.0657                 1.7672

                     31                     32                     33
                      A                      A                      A
 Frequencies --    659.8281               678.8808               697.3128
 Red. masses --      3.6212                 2.5691                 1.9293
 Frc consts  --      0.9289                 0.6976                 0.5527
 IR Inten    --      3.0138                12.5963                 7.0686

                     34                     35                     36
                      A                      A                      A
 Frequencies --    724.3104               765.5103               787.0668
 Red. masses --      1.6683                 1.6236                 2.1508
 Frc consts  --      0.5157                 0.5606                 0.7850
 IR Inten    --     20.5195                 6.4319                 3.2280

                     37                     38                     39
                      A                      A                      A
 Frequencies --    816.8518               830.0027               848.5715
 Red. masses --      2.8374                 1.5340                 2.2520
 Frc consts  --      1.1155                 0.6226                 0.9554
 IR Inten    --      1.4207                 8.9953                13.4060

                     40                     41                     42
                      A                      A                      A
 Frequencies --    855.7647               895.5611               913.1028
 Red. masses --      1.3629                 2.5829                 1.9154
 Frc consts  --      0.5881                 1.2205                 0.9409
 IR Inten    --      3.5673                 0.1146                 1.5388

                     43                     44                     45
                      A                      A                      A
 Frequencies --    923.9126               931.3962               951.3193
 Red. masses --      1.5069                 2.2181                 1.7339
 Frc consts  --      0.7579                 1.1337                 0.9246
 IR Inten    --      1.2093                 3.0214                 1.4977

                     46                     47                     48
                      A                      A                      A
 Frequencies --    962.7650               981.8085               999.1348
 Red. masses --      1.4623                 1.8181                 1.9528
 Frc consts  --      0.7986                 1.0326                 1.1486
 IR Inten    --      0.7690                 1.9962                 4.4220

                     49                     50                     51
                      A                      A                      A
 Frequencies --   1014.8550              1047.0861              1049.6722
 Red. masses --      3.3722                 1.7067                 1.4365
 Frc consts  --      2.0463                 1.1025                 0.9325
 IR Inten    --     19.4159                 0.6803                 0.8385

                     52                     53                     54
                      A                      A                      A
 Frequencies --   1053.6079              1061.0308              1088.4882
 Red. masses --      1.4347                 1.5213                 2.3417
 Frc consts  --      0.9383                 1.0091                 1.6347
 IR Inten    --      0.3774                 2.3342                 0.3499

                     55                     56                     57
                      A                      A                      A
 Frequencies --   1122.7553              1131.2387              1158.1050
 Red. masses --      1.7767                 1.8298                 1.7892
 Frc consts  --      1.3196                 1.3796                 1.4139
 IR Inten    --      4.7623                30.2769                 0.2012

                     58                     59                     60
                      A                      A                      A
 Frequencies --   1162.7387              1179.2705              1179.7684
 Red. masses --      1.8473                 2.1639                 1.7194
 Frc consts  --      1.4714                 1.7730                 1.4100
 IR Inten    --      3.6286                 5.1666                 1.3740

                     61                     62                     63
                      A                      A                      A
 Frequencies --   1197.9123              1214.4125              1255.3692
 Red. masses --      1.9886                 1.9370                 2.2693
 Frc consts  --      1.6813                 1.6831                 2.1071
 IR Inten    --     17.2879                19.2298                76.9883

                     64                     65                     66
                      A                      A                      A
 Frequencies --   1268.1285              1292.9713              1303.8834
 Red. masses --      1.3642                 2.1756                 1.4028
 Frc consts  --      1.2926                 2.1429                 1.4052
 IR Inten    --      1.3357                 4.0751                30.6666

                     67                     68                     69
                      A                      A                      A
 Frequencies --   1316.6679              1324.7418              1333.2911
 Red. masses --      1.3994                 1.3295                 1.5628
 Frc consts  --      1.4293                 1.3747                 1.6369
 IR Inten    --      5.5118                14.8765                 9.9954

                     70                     71                     72
                      A                      A                      A
 Frequencies --   1348.6727              1371.2217              1376.7102
 Red. masses --      1.6814                 1.5237                 1.6497
 Frc consts  --      1.8019                 1.6880                 1.8422
 IR Inten    --      0.7280                 2.0364                 4.5224

                     73                     74                     75
                      A                      A                      A
 Frequencies --   1395.2800              1400.9411              1415.8972
 Red. masses --      1.8072                 1.4313                 1.3616
 Frc consts  --      2.0729                 1.6550                 1.6083
 IR Inten    --      3.2537                 8.8483                 7.3287

                     76                     77                     78
                      A                      A                      A
 Frequencies --   1427.4501              1429.6963              1445.1768
 Red. masses --      2.5391                 1.3195                 1.3147
 Frc consts  --      3.0482                 1.5891                 1.6178
 IR Inten    --     17.3635                 3.5122                 4.6019

                     79                     80                     81
                      A                      A                      A
 Frequencies --   1447.7335              1449.6175              1463.2922
 Red. masses --      1.2645                 1.2495                 1.8350
 Frc consts  --      1.5615                 1.5470                 2.3150
 IR Inten    --     11.0958                11.6470                23.6040

                     82                     83                     84
                      A                      A                      A
 Frequencies --   1486.8938              1505.3906              1508.2836
 Red. masses --      1.1066                 2.1960                 1.5966
 Frc consts  --      1.4414                 2.9321                 2.1400
 IR Inten    --     13.7659                77.9746                18.0475

                     85                     86                     87
                      A                      A                      A
 Frequencies --   1509.5638              1518.1686              1519.5699
 Red. masses --      1.1125                 1.0644                 1.0796
 Frc consts  --      1.4936                 1.4454                 1.4687
 IR Inten    --      2.4118                 1.1697                 1.4183

                     88                     89                     90
                      A                      A                      A
 Frequencies --   1524.5720              1527.6306              1532.3388
 Red. masses --      1.1174                 1.0730                 1.0484
 Frc consts  --      1.5302                 1.4753                 1.4504
 IR Inten    --      9.3948                 3.5228                 2.0078

                     91                     92                     93
                      A                      A                      A
 Frequencies --   1533.9387              1537.4065              1538.5480
 Red. masses --      1.0711                 1.2353                 1.6980
 Frc consts  --      1.4848                 1.7203                 2.3682
 IR Inten    --      6.0046                30.8612                61.9543

                     94                     95                     96
                      A                      A                      A
 Frequencies --   1541.1967              1542.2829              1542.9146
 Red. masses --      1.1185                 1.1209                 1.0889
 Frc consts  --      1.5653                 1.5708                 1.5273
 IR Inten    --      5.2056                 4.3650                 0.6092

                     97                     98                     99
                      A                      A                      A
 Frequencies --   1591.9075              1771.9342              3002.8284
 Red. masses --      6.4678                11.9736                 1.0685
 Frc consts  --      9.6569                22.1498                 5.6766
 IR Inten    --     17.6097               344.7214                26.2663

                    100                    101                    102
                      A                      A                      A
 Frequencies --   3020.3439              3038.3019              3044.8453
 Red. masses --      1.0679                 1.0358                 1.0577
 Frc consts  --      5.7399                 5.6334                 5.7774
 IR Inten    --     19.2961                32.0768                14.1820

                    103                    104                    105
                      A                      A                      A
 Frequencies --   3046.8725              3047.7504              3049.9279
 Red. masses --      1.0448                 1.0395                 1.0564
 Frc consts  --      5.7147                 5.6887                 5.7896
 IR Inten    --     32.2445                19.0858                19.5946

                    106                    107                    108
                      A                      A                      A
 Frequencies --   3052.6454              3056.9579              3061.3596
 Red. masses --      1.0614                 1.0417                 1.0895
 Frc consts  --      5.8275                 5.7356                 6.0158
 IR Inten    --      2.7529                16.2906                26.4095

                    109                    110                    111
                      A                      A                      A
 Frequencies --   3075.9263              3083.6201              3084.0398
 Red. masses --      1.0977                 1.0891                 1.1007
 Frc consts  --      6.1190                 6.1015                 6.1685
 IR Inten    --     25.4901                17.0212                17.5329

                    112                    113                    114
                      A                      A                      A
 Frequencies --   3101.8124              3101.9926              3103.6871
 Red. masses --      1.0975                 1.0978                 1.0980
 Frc consts  --      6.2213                 6.2240                 6.2318
 IR Inten    --     57.4315                11.5837                15.5295

                    115                    116                    117
                      A                      A                      A
 Frequencies --   3109.4285              3113.0816              3114.4599
 Red. masses --      1.1015                 1.1021                 1.1007
 Frc consts  --      6.2748                 6.2932                 6.2906
 IR Inten    --     21.1006                59.0602                56.0421

                    118                    119                    120
                      A                      A                      A
 Frequencies --   3119.1884              3120.9014              3131.7823
 Red. masses --      1.1012                 1.1017                 1.1010
 Frc consts  --      6.3125                 6.3220                 6.3622
 IR Inten    --     37.0920                34.1949                30.2879

                    121                    122                    123
                      A                      A                      A
 Frequencies --   3132.8446              3276.1772              3300.7189
 Red. masses --      1.1025                 1.0913                 1.1015
 Frc consts  --      6.3753                 6.9013                 7.0704
 IR Inten    --     31.0905                 0.7904                 2.8669

 - Thermochemistry -
 -------------------
 Temperature   298.150 Kelvin.  Pressure   1.00000 Atm.
 Atom     1 has atomic number  6 and mass  12.00000

 Molecular mass:   247.19361 amu.
 Principal axes and moments of inertia in atomic units:
                           1         2         3
     Eigenvalues --  2716.002677036.213698078.66911
           X            0.99980   0.01965   0.00481
           Y           -0.01952   0.99946  -0.02655
           Z           -0.00533   0.02646   0.99964
 This molecule is an asymmetric top.
 Rotational symmetry number  1.
 Warning -- assumption of classical behavior for rotation
           may cause significant error
 Rotational temperatures (Kelvin)      0.03189     0.01231     0.01072
 Rotational constants (GHZ):           0.66448     0.25649     0.22340
 Zero-point vibrational energy    1013120.9 (Joules/Mol)
                                  242.14171 (Kcal/Mol)
 Warning -- explicit consideration of  28 degrees of freedom as
           vibrations may cause significant error
 Vibrational temperatures:     44.28    61.04    91.86   115.02   133.89
          (Kelvin)            143.00   171.89   205.71   258.75   309.60
                              327.55   352.33   355.55   367.44   382.32
                              396.11   420.20   451.38   463.10   478.61
                              528.16   580.25   600.56   617.67   670.59
                              700.68   796.41   840.05   898.83   906.68
                              949.35   976.76  1003.28  1042.12  1101.40
                             1132.41  1175.27  1194.19  1220.91  1231.25
                             1288.51  1313.75  1329.30  1340.07  1368.74
                             1385.20  1412.60  1437.53  1460.15  1506.52
                             1510.24  1515.91  1526.59  1566.09  1615.39
                             1627.60  1666.25  1672.92  1696.71  1697.42
                             1723.53  1747.27  1806.20  1824.55  1860.30
                             1876.00  1894.39  1906.01  1918.31  1940.44
                             1972.88  1980.78  2007.50  2015.64  2037.16
                             2053.78  2057.01  2079.29  2082.97  2085.68
                             2105.35  2139.31  2165.92  2170.08  2171.93
                             2184.31  2186.32  2193.52  2197.92  2204.69
                             2207.00  2211.98  2213.63  2217.44  2219.00
                             2219.91  2290.40  2549.42  4320.40  4345.60
                             4371.44  4380.85  4383.77  4385.03  4388.17
                             4392.08  4398.28  4404.61  4425.57  4436.64
                             4437.25  4462.82  4463.08  4465.51  4473.77
                             4479.03  4481.01  4487.82  4490.28  4505.94
                             4507.46  4713.69  4749.00

 Zero-point correction=                           0.385877 (Hartree/Particle)
 Thermal correction to Energy=                    0.404695
 Thermal correction to Enthalpy=                  0.405640
 Thermal correction to Gibbs Free Energy=         0.339245
 Sum of electronic and zero-point Energies=           -754.455023
 Sum of electronic and thermal Energies=              -754.436205
 Sum of electronic and thermal Enthalpies=            -754.435260
 Sum of electronic and thermal Free Energies=         -754.501655

                     E (Thermal)             CV                S
                      KCal/Mol        Cal/Mol-Kelvin    Cal/Mol-Kelvin
 Total                  253.950             72.833            139.739
 Electronic               0.000              0.000              0.000
 Translational            0.889              2.981             42.416
 Rotational               0.889              2.981             33.401
 Vibrational            252.173             66.871             63.922
 Vibration     1          0.594              1.984              5.779
 Vibration     2          0.595              1.980              5.143
 Vibration     3          0.597              1.972              4.335
 Vibration     4          0.600              1.963              3.892
 Vibration     5          0.602              1.954              3.595
 Vibration     6          0.604              1.950              3.466
 Vibration     7          0.609              1.933              3.109
 Vibration     8          0.616              1.910              2.764
 Vibration     9          0.629              1.867              2.330
 Vibration    10          0.645              1.818              1.999
 Vibration    11          0.651              1.799              1.897
 Vibration    12          0.660              1.771              1.767
 Vibration    13          0.661              1.768              1.751
 Vibration    14          0.666              1.754              1.693
 Vibration    15          0.672              1.736              1.624
 Vibration    16          0.677              1.719              1.563
 Vibration    17          0.687              1.689              1.462
 Vibration    18          0.702              1.647              1.343
 Vibration    19          0.707              1.632              1.301
 Vibration    20          0.715              1.610              1.247
 Vibration    21          0.740              1.540              1.092
 Vibration    22          0.769              1.463              0.951
 Vibration    23          0.780              1.432              0.901
 Vibration    24          0.791              1.406              0.861
 Vibration    25          0.823              1.325              0.749
 Vibration    26          0.843              1.279              0.691
 Vibration    27          0.909              1.132              0.537
 Vibration    28          0.941              1.066              0.478

 Optimization completed.
    -- Stationary point found.
 Normal termination of Gaussian 16 at Fri Dec 11 22:31:28 2020.

 ----------------------------------------------------------------------
 # B3LYP/6-311++G(d,p) empiricaldispersion=gd3bj scf=xqc pop=npa geom=c
 heck
 ----------------------------------------------------------------------

 --------------------------------------
 CID_62118986_JID_8740_Energie_neutraal
 --------------------------------------
 Structure from the checkpoint file:  "JID_8740.chk"
 Charge =  0 Multiplicity = 1

 SCF Done:  E(RB3LYP) =  -755.044741424     A.U. after   15 cycles
 Normal termination of Gaussian 16 at Fri Dec 11 22:40:27 2020.

 ----------------------------------------------------------------------
 # B3LYP/6-311++G(d,p) empiricaldispersion=gd3bj scf=xqc pop=npa geom=c
 heck
 ----------------------------------------------------------------------

 ------------------------------------
 CID_62118986_JID_8740_Energie_kation
 ------------------------------------
 Structure from the checkpoint file:  "JID_8740.chk"
 Charge =  1 Multiplicity = 2

 SCF Done:  E(UB3LYP) =  -754.758632285     A.U. after   30 cycles
 Normal termination of Gaussian 16 at Fri Dec 11 23:05:01 2020.
 Gaussian 16:  ES64L-G16RevA.03 25-Dec-2016

 ----------------------------------------------------------------------
 # B3LYP/6-311++G(d,p) empiricaldispersion=gd3bj scf=xqc pop=npa geom=c
 heck
 ----------------------------------------------------------------------

 -----------------------------------
 CID_62118986_JID_8740_Energie_anion
 -----------------------------------
 Structure from the checkpoint file:  "JID_8740.chk"
 Charge = -1 Multiplicity = 2

                         Standard orientation:
 ---------------------------------------------------------------------
 Center     Atomic      Atomic             Coordinates (Angstroms)
 Number     Number       Type             X           Y           Z
 ---------------------------------------------------------------------
      1          6           0       -4.217671    1.771835   -1.268142
      2          6           0       -4.386772    0.366209   -0.683110
      3          6           0       -3.118926   -0.499016   -0.738825
      4          6           0       -1.914141    0.102650   -0.000456
      5          6           0       -2.148256    0.360042    1.502107
      6          6           0       -2.510167   -0.878348    2.324283
      7          7           0       -0.710419   -0.713267   -0.211074
      8          6           0       -0.644437   -2.106979   -0.227981
      9          6           0        0.668469   -2.485691   -0.339061
     10          6           0        1.441964   -1.285420   -0.390487
     11          6           0        0.560881   -0.212483   -0.300207
     12          6           0        0.956056    1.229005   -0.309591
     13          6           0        2.432872    1.387137    0.142108
     14          6           0        3.316401    0.373784   -0.623120
     15          6           0        2.881535   -1.090702   -0.499487
     16          8           0        3.696460   -2.004865   -0.526132
     17          6           0        2.544502    1.141659    1.657456
     18          6           0        2.901154    2.814248   -0.172666
     19          1           0       -3.529075    2.384010   -0.674721
     20          1           0       -5.176622    2.299752   -1.300366
     21          1           0       -3.825399    1.727893   -2.291507
     22          1           0       -4.743737    0.438192    0.352175
     23          1           0       -5.174699   -0.160090   -1.235905
     24          1           0       -3.353811   -1.487560   -0.329805
     25          1           0       -2.828320   -0.656049   -1.785203
     26          1           0       -1.691547    1.066712   -0.466769
     27          1           0       -1.235142    0.810931    1.909389
     28          1           0       -2.936066    1.117135    1.600465
     29          1           0       -1.733817   -1.645877    2.245292
     30          1           0       -2.615765   -0.616257    3.382112
     31          1           0       -3.458657   -1.320053    1.998960
     32          1           0       -1.542707   -2.700401   -0.170285
     33          1           0        1.053472   -3.493729   -0.389356
     34          1           0        0.313595    1.832484    0.343803
     35          1           0        0.844201    1.646521   -1.322637
     36          1           0        3.299313    0.622975   -1.695425
     37          1           0        4.359828    0.443410   -0.298857
     38          1           0        3.586155    1.231721    1.985218
     39          1           0        1.952322    1.878396    2.213921
     40          1           0        2.190432    0.143551    1.932032
     41          1           0        2.849538    3.022093   -1.248038
     42          1           0        2.279130    3.554666    0.345540
     43          1           0        3.937860    2.963784    0.149611
 ---------------------------------------------------------------------

 SCF Done:  E(UB3LYP) =  -755.037951708     A.U. after   33 cycles
 SCF Done:  E(UB3LYP) =  -755.037951708     a.u. after    1 cycles

 The electronic state is 2-A.
 Alpha  occ. eigenvalues --  -18.99354 -14.27385 -10.14613 -10.12808 -10.11323
 Alpha  occ. eigenvalues --  -10.10416 -10.10401 -10.09147 -10.08431 -10.08132
 Alpha  occ. eigenvalues --  -10.07887 -10.07770 -10.07429 -10.07264 -10.06996
 Alpha  occ. eigenvalues --  -10.06965 -10.06518 -10.06411  -0.92567  -0.90019
 Alpha  occ. eigenvalues --   -0.75905  -0.74249  -0.69337  -0.67334  -0.66499
 Alpha  occ. eigenvalues --   -0.63446  -0.61558  -0.60180  -0.58912  -0.57395
 Alpha  occ. eigenvalues --   -0.53170  -0.50928  -0.49274  -0.47146  -0.44085
 Alpha  occ. eigenvalues --   -0.42606  -0.40983  -0.39297  -0.38619  -0.37279
 Alpha  occ. eigenvalues --   -0.36697  -0.36179  -0.35262  -0.34328  -0.34129
 Alpha  occ. eigenvalues --   -0.32810  -0.32569  -0.31688  -0.31269  -0.30771
 Alpha  occ. eigenvalues --   -0.30028  -0.29676  -0.29330  -0.28741  -0.27505
 Alpha  occ. eigenvalues --   -0.27219  -0.26765  -0.26214  -0.25486  -0.24916
 Alpha  occ. eigenvalues --   -0.24808  -0.23937  -0.23815  -0.23530  -0.23216
 Alpha  occ. eigenvalues --   -0.15275  -0.14382  -0.12818   0.03772
 Alpha virt. eigenvalues --    0.05791   0.06006   0.06656   0.07010   0.07888
 Alpha virt. eigenvalues --    0.08328   0.08649   0.08980   0.09532   0.09820
 Alpha virt. eigenvalues --    0.10124   0.10755   0.11082   0.11154   0.11749

  Beta  occ. eigenvalues --  -18.99283 -14.27386 -10.14552 -10.12800 -10.11275
  Beta  occ. eigenvalues --  -10.10412 -10.10406 -10.09129 -10.08422 -10.08105
  Beta  occ. eigenvalues --  -10.07863 -10.07770 -10.07408 -10.07245 -10.06986
  Beta  occ. eigenvalues --  -10.06947 -10.06472 -10.06418  -0.92434  -0.89996
  Beta  occ. eigenvalues --   -0.75870  -0.74226  -0.69302  -0.67293  -0.66455
  Beta  occ. eigenvalues --   -0.63378  -0.61517  -0.60141  -0.58879  -0.57338
  Beta  occ. eigenvalues --   -0.53090  -0.50869  -0.49198  -0.47098  -0.44035
  Beta  occ. eigenvalues --   -0.42569  -0.40920  -0.39243  -0.38584  -0.37246
  Beta  occ. eigenvalues --   -0.36651  -0.36137  -0.35210  -0.34275  -0.34098
  Beta  occ. eigenvalues --   -0.32755  -0.32496  -0.31663  -0.31221  -0.30719
  Beta  occ. eigenvalues --   -0.29996  -0.29637  -0.29247  -0.28705  -0.27473
  Beta  occ. eigenvalues --   -0.27148  -0.26686  -0.26151  -0.25439  -0.24868
  Beta  occ. eigenvalues --   -0.24756  -0.23895  -0.23764  -0.23432  -0.23181
  Beta  occ. eigenvalues --   -0.15199  -0.14321  -0.12681
  Beta virt. eigenvalues --    0.05914   0.06411   0.06520   0.07178   0.07576
  Beta virt. eigenvalues --    0.08152   0.08527   0.08951   0.09230   0.09770
  Beta virt. eigenvalues --    0.10091   0.10314   0.10953   0.11195   0.11347

 Mulliken charges and spin densities:
               1          2
     1  C    1.092982  -1.684921
     2  C   -0.928703   0.607801
     3  C    0.181716  -0.371083
     4  C   -0.720473   0.390878
     5  C    0.177307  -0.329697
     6  C   -0.104700  -0.553921
     7  N    0.692212  -0.010634
     8  C   -0.082505  -0.017408
     9  C   -0.043651   0.067739
    10  C    0.262041  -0.064108
    11  C    0.301918  -0.654358
    12  C   -0.142124  -0.480200
    13  C   -0.686433   1.523018
    14  C    0.012296  -0.499816
    15  C   -0.477875  -0.099788
    16  O   -0.326811   0.029345
    17  C   -0.047372  -0.645969
    18  C    0.222438  -0.667542
    19  H   -0.527562   0.680246
    20  H   -0.552959   0.713038
    21  H   -0.081565   0.217540
    22  H    0.029121   0.120793
    23  H   -0.310311   0.473603
    24  H    0.107629   0.028410
    25  H    0.021579   0.157015
    26  H    0.869327  -0.595692
    27  H    0.158723  -0.028004
    28  H   -0.363476   0.558946
    29  H    0.088007   0.075712
    30  H   -0.175464   0.340014
    31  H    0.084089   0.053949
    32  H    0.012614   0.111116
    33  H    0.167924   0.014965
    34  H   -0.094709   0.257159
    35  H   -0.040914   0.233965
    36  H    0.033876   0.157426
    37  H    0.207964  -0.028095
    38  H    0.126755   0.026945
    39  H   -0.117751   0.268291
    40  H    0.139726   0.026450
    41  H   -0.024614   0.160720
    42  H   -0.157926   0.308591
    43  H    0.017654   0.127561
 Sum of Mulliken charges =  -1.00000   1.00000

 Dipole moment (field-independent basis, Debye):
    X=              3.0812    Y=             -3.1233    Z=              0.3113  Tot=              4.3984
 Quadrupole moment (field-independent basis, Debye-Ang):
   XX=           -209.8188   YY=           -164.4945   ZZ=           -151.7130
   XY=             25.9719   XZ=             -0.5867   YZ=             -2.6139

 Summary of Natural Population Analysis:

                                       Natural Population
                Natural  -----------------------------------------------
    Atom  No    Charge         Core      Valence    Rydberg      Total
 -----------------------------------------------------------------------
      C    1   -0.28766      0.99967     2.28293    0.00506     3.28766
      C    2   -0.19096      0.99964     2.18291    0.00841     3.19096
      C    3   -0.19216      0.99961     2.18325    0.00930     3.19216
      C    4   -0.00207      0.99956     1.98934    0.01317     3.00207
      C    5   -0.19494      0.99961     2.18656    0.00876     3.19494
      C    6   -0.29072      0.99966     2.28517    0.00588     3.29072
      N    7   -0.20192      0.99961     2.69161    0.01070     3.70192
      C    8   -0.02139      0.99956     2.01211    0.00973     3.02139
      C    9   -0.12075      0.99953     2.11206    0.00916     3.12075
      C   10   -0.11882      0.99941     2.10881    0.01060     3.11882
      C   11    0.12648      0.99948     1.86298    0.01106     2.87352
      C   12   -0.20924      0.99956     2.19984    0.00984     3.20924
      C   13   -0.03709      0.99959     2.02680    0.01069     3.03709
      C   14   -0.23054      0.99956     2.22012    0.01087     3.23054
      C   15    0.28544      0.99958     1.69497    0.02001     2.71456
      O   16   -0.29619      0.99988     3.29008    0.00623     4.29619
      C   17   -0.28797      0.99962     2.28150    0.00685     3.28797
      C   18   -0.28252      0.99962     2.27566    0.00723     3.28252
      H   19    0.09793      0.00000     0.40047    0.00160     0.40207
      H   20    0.10263      0.00000     0.39595    0.00142     0.39737
      H   21    0.09634      0.00000     0.40245    0.00121     0.40366
      H   22    0.09634      0.00000     0.40226    0.00140     0.40366
      H   23    0.09780      0.00000     0.40119    0.00101     0.40220
      H   24    0.09759      0.00000     0.40111    0.00131     0.40241
      H   25    0.10205      0.00000     0.39677    0.00118     0.39795
      H   26    0.10586      0.00000     0.39170    0.00244     0.39414
      H   27    0.10051      0.00000     0.39809    0.00139     0.39949
      H   28    0.10370      0.00000     0.39462    0.00168     0.39630
      H   29    0.10074      0.00000     0.39819    0.00106     0.39926
      H   30    0.10235      0.00000     0.39693    0.00072     0.39765
      H   31    0.09563      0.00000     0.40349    0.00088     0.40437
      H   32    0.10178      0.00000     0.39725    0.00097     0.39822
      H   33    0.10948      0.00000     0.38965    0.00088     0.39052
      H   34    0.11054      0.00000     0.38769    0.00177     0.38946
      H   35    0.10874      0.00000     0.38995    0.00131     0.39126
      H   36    0.10922      0.00000     0.38961    0.00117     0.39078
      H   37    0.10759      0.00000     0.39122    0.00119     0.39241
      H   38    0.09859      0.00000     0.40067    0.00074     0.40141
      H   39    0.10108      0.00000     0.39803    0.00089     0.39892
      H   40    0.10571      0.00000     0.39337    0.00092     0.39429
      H   41    0.09959      0.00000     0.39952    0.00089     0.40041
      H   42    0.10235      0.00000     0.39670    0.00095     0.39765
      H   43    0.09889      0.00000     0.40031    0.00080     0.40111
 =======================================================================
   * Total *    0.00000     17.99275    49.80389    0.20336    68.00000

 Normal termination of Gaussian 16 at Fri Dec 11 23:31:51 2020.
