 Gaussian 16, Revision A.03,

 -----------------------------------------------------------
 # opt freq B3LYP/6-31G(d) empiricaldispersion=gd3bj scf=xqc
 -----------------------------------------------------------

 -------------------------------
 CID_131308938_JID_4348_neutraal
 -------------------------------
 Symbolic Z-matrix:
 Charge =  0 Multiplicity = 1

 SCF Done:  E(RB3LYP) =  -633.413489617     A.U. after   15 cycles
 SCF Done:  E(RB3LYP) =  -633.417566609     A.U. after   13 cycles
 SCF Done:  E(RB3LYP) =  -633.411020349     A.U. after   13 cycles
 SCF Done:  E(RB3LYP) =  -633.409984821     A.U. after   14 cycles
 SCF Done:  E(RB3LYP) =  -633.410108306     A.U. after   14 cycles
 SCF Done:  E(RB3LYP) =  -633.417773968     A.U. after   10 cycles
 SCF Done:  E(RB3LYP) =  -633.418941879     A.U. after   12 cycles
 SCF Done:  E(RB3LYP) =  -633.419189165     A.U. after   13 cycles
 SCF Done:  E(RB3LYP) =  -633.419201991     A.U. after   12 cycles
 SCF Done:  E(RB3LYP) =  -633.419373852     A.U. after   13 cycles
 SCF Done:  E(RB3LYP) =  -633.419626483     A.U. after   12 cycles
 SCF Done:  E(RB3LYP) =  -633.419658398     A.U. after   12 cycles
 SCF Done:  E(RB3LYP) =  -633.419663298     A.U. after   11 cycles
 SCF Done:  E(RB3LYP) =  -633.419664533     A.U. after    9 cycles
 SCF Done:  E(RB3LYP) =  -633.419664786     A.U. after    8 cycles
 Optimization completed.
    -- Stationary point found.
 Normal termination of Gaussian 16 at Thu Dec 10 09:27:48 2020.

 --------------------------------------------------------------------
 #N Geom=AllCheck Guess=TCheck SCRF=Check GenChk RB3LYP/6-31G(d) Freq
 --------------------------------------------------------------------

 Structure from the checkpoint file:  "JID_4348.chk"
 -------------------------------
 CID_131308938_JID_4348_neutraal
 -------------------------------
 Charge =  0 Multiplicity = 1

 SCF Done:  E(RB3LYP) =  -633.419664786     A.U. after    1 cycles

  Exact polarizability: 148.388  -5.426 140.517   5.059  -6.293  83.709
 Approx polarizability: 237.736  -7.678 216.760  16.559 -16.674 130.385

                      1                      2                      3
                      A                      A                      A
 Frequencies --     50.6728                80.9937               116.4631
 Red. masses --      4.1550                 3.4643                 4.4104
 Frc consts  --      0.0063                 0.0134                 0.0352
 IR Inten    --      2.4288                 0.9182                 3.2817

                      4                      5                      6
                      A                      A                      A
 Frequencies --    149.2661               177.2470               195.8002
 Red. masses --      2.7927                 1.7514                 4.1685
 Frc consts  --      0.0367                 0.0324                 0.0942
 IR Inten    --      3.4658                 2.3188                 6.6298

                      7                      8                      9
                      A                      A                      A
 Frequencies --    217.4795               231.1194               245.3086
 Red. masses --      2.5938                 2.3885                 2.4832
 Frc consts  --      0.0723                 0.0752                 0.0880
 IR Inten    --      0.3973                 8.1474                 0.9273

                     10                     11                     12
                      A                      A                      A
 Frequencies --    267.0433               271.4316               285.2535
 Red. masses --      1.2396                 2.0049                 1.6223
 Frc consts  --      0.0521                 0.0870                 0.0778
 IR Inten    --      0.3338                 1.0274                 0.8145

                     13                     14                     15
                      A                      A                      A
 Frequencies --    318.6549               329.7897               371.8633
 Red. masses --      2.1012                 2.9148                 1.6924
 Frc consts  --      0.1257                 0.1868                 0.1379
 IR Inten    --      0.8932                 1.4124                53.8454

                     16                     17                     18
                      A                      A                      A
 Frequencies --    395.1403               404.3450               441.5575
 Red. masses --      2.7961                 1.8379                 2.7737
 Frc consts  --      0.2572                 0.1770                 0.3186
 IR Inten    --     21.2695                67.1034                 5.3118

                     19                     20                     21
                      A                      A                      A
 Frequencies --    469.8764               511.9413               550.3255
 Red. masses --      3.2451                 4.0932                 4.7652
 Frc consts  --      0.4221                 0.6321                 0.8503
 IR Inten    --      5.5282                 3.6265                 9.1681

                     22                     23                     24
                      A                      A                      A
 Frequencies --    576.1768               605.4422               651.5785
 Red. masses --      2.8816                 4.3901                 5.9610
 Frc consts  --      0.5636                 0.9481                 1.4911
 IR Inten    --      6.9532                 1.6526                34.4415

                     25                     26                     27
                      A                      A                      A
 Frequencies --    697.9225               790.8282               804.3362
 Red. masses --      4.5233                 5.1986                 5.2445
 Frc consts  --      1.2981                 1.9156                 1.9991
 IR Inten    --     12.5556                 4.7122                 9.8930

                     28                     29                     30
                      A                      A                      A
 Frequencies --    855.6643               878.4530               938.4777
 Red. masses --      2.9250                 1.2588                 3.0450
 Frc consts  --      1.2618                 0.5723                 1.5801
 IR Inten    --      2.5077                14.6312                19.1598

                     31                     32                     33
                      A                      A                      A
 Frequencies --    947.8040               952.1920               977.2386
 Red. masses --      1.7913                 2.4030                 1.2028
 Frc consts  --      0.9481                 1.2837                 0.6768
 IR Inten    --      1.0815                 7.4406                 0.6465

                     34                     35                     36
                      A                      A                      A
 Frequencies --    989.1718              1007.6288              1024.3680
 Red. masses --      1.3736                 1.5659                 1.8129
 Frc consts  --      0.7919                 0.9367                 1.1208
 IR Inten    --      2.4944                22.8267                 0.4964

                     37                     38                     39
                      A                      A                      A
 Frequencies --   1064.9254              1069.8754              1089.3483
 Red. masses --      1.4102                 1.5057                 3.8823
 Frc consts  --      0.9423                 1.0155                 2.7144
 IR Inten    --      5.0967                10.6949                57.8356

                     40                     41                     42
                      A                      A                      A
 Frequencies --   1103.8201              1167.3936              1224.3175
 Red. masses --      4.8167                 1.5257                 2.5251
 Frc consts  --      3.4578                 1.2251                 2.2300
 IR Inten    --     67.0426                14.0654                 5.8304

                     43                     44                     45
                      A                      A                      A
 Frequencies --   1228.3122              1239.3172              1248.1371
 Red. masses --      1.2239                 2.4875                 3.2853
 Frc consts  --      1.0880                 2.2510                 3.0154
 IR Inten    --     23.1236                14.6145                 6.0860

                     46                     47                     48
                      A                      A                      A
 Frequencies --   1266.6662              1277.5982              1317.9986
 Red. masses --      2.6942                 2.5233                 4.6198
 Frc consts  --      2.5468                 2.4267                 4.7283
 IR Inten    --      3.8871                21.0290                 2.0575

                     49                     50                     51
                      A                      A                      A
 Frequencies --   1387.3738              1412.4529              1425.8136
 Red. masses --      1.8906                 1.4171                 1.2318
 Frc consts  --      2.1441                 1.6657                 1.4754
 IR Inten    --     16.0936                 5.0438                31.0738

                     52                     53                     54
                      A                      A                      A
 Frequencies --   1428.0171              1428.9905              1431.7221
 Red. masses --      1.2287                 1.2747                 1.4876
 Frc consts  --      1.4762                 1.5336                 1.7966
 IR Inten    --      8.5720                 2.7439                20.2652

                     55                     56                     57
                      A                      A                      A
 Frequencies --   1462.5217              1481.7006              1508.1076
 Red. masses --      1.2381                 2.2138                 1.0507
 Frc consts  --      1.5603                 2.8636                 1.4079
 IR Inten    --      9.3407                 7.1045                 0.5102

                     58                     59                     60
                      A                      A                      A
 Frequencies --   1517.8957              1524.3361              1532.5894
 Red. masses --      1.0649                 1.0608                 1.0589
 Frc consts  --      1.4456                 1.4523                 1.4654
 IR Inten    --      3.8080                 1.5800                 3.9472

                     61                     62                     63
                      A                      A                      A
 Frequencies --   1547.0200              1555.5889              1577.5643
 Red. masses --      1.0571                 1.0499                 1.0561
 Frc consts  --      1.4905                 1.4969                 1.5486
 IR Inten    --      3.6140                 3.0132                16.6151

                     64                     65                     66
                      A                      A                      A
 Frequencies --   1599.0764              1618.4218              1799.3679
 Red. masses --      5.6405                 5.7713                10.2440
 Frc consts  --      8.4977                 8.9065                19.5417
 IR Inten    --      2.9399                15.1202               198.7660

                     67                     68                     69
                      A                      A                      A
 Frequencies --   2979.7125              3047.6402              3057.2106
 Red. masses --      1.0859                 1.0399                 1.0516
 Frc consts  --      5.6804                 5.6908                 5.7909
 IR Inten    --     92.2893                26.6281                29.0955

                     70                     71                     72
                      A                      A                      A
 Frequencies --   3058.8898              3066.8437              3105.6399
 Red. masses --      1.0539                 1.0448                 1.1017
 Frc consts  --      5.8102                 5.7898                 6.2608
 IR Inten    --     19.5034                42.5878                27.0537

                     73                     74                     75
                      A                      A                      A
 Frequencies --   3113.3179              3125.2689              3127.9949
 Red. masses --      1.1022                 1.1003                 1.0993
 Frc consts  --      6.2946                 6.3321                 6.3374
 IR Inten    --      8.0483                49.5565                25.6132

                     76                     77                     78
                      A                      A                      A
 Frequencies --   3169.0711              3173.5474              3181.4645
 Red. masses --      1.0984                 1.0951                 1.0904
 Frc consts  --      6.4995                 6.4981                 6.5026
 IR Inten    --      1.4643                26.0797                27.4211

                     79                     80                     81
                      A                      A                      A
 Frequencies --   3226.3411              3232.3561              3729.8409
 Red. masses --      1.0916                 1.0921                 1.0661
 Frc consts  --      6.6949                 6.7227                 8.7384
 IR Inten    --      4.7299                 4.1754                16.1528

 - Thermochemistry -
 -------------------
 Temperature   298.150 Kelvin.  Pressure   1.00000 Atm.
 Atom     1 has atomic number  6 and mass  12.00000

 Molecular mass:   193.11028 amu.
 Principal axes and moments of inertia in atomic units:
                           1         2         3
     Eigenvalues --  2059.174012804.039024141.87788
           X            0.99849  -0.05392  -0.01024
           Y            0.05396   0.99854   0.00343
           Z            0.01004  -0.00398   0.99994
 This molecule is an asymmetric top.
 Rotational symmetry number  1.
 Warning -- assumption of classical behavior for rotation
           may cause significant error
 Rotational temperatures (Kelvin)      0.04206     0.03089     0.02091
 Rotational constants (GHZ):           0.87644     0.64362     0.43573
 Zero-point vibrational energy     644250.5 (Joules/Mol)
                                  153.97955 (Kcal/Mol)
 Warning -- explicit consideration of  23 degrees of freedom as
           vibrations may cause significant error
 Vibrational temperatures:     72.91   116.53   167.56   214.76   255.02
          (Kelvin)            281.71   312.90   332.53   352.94   384.22
                              390.53   410.42   458.47   474.49   535.03
                              568.52   581.76   635.30   676.05   736.57
                              791.80   828.99   871.10   937.48  1004.15
                             1137.83  1157.26  1231.11  1263.90  1350.26
                             1363.68  1369.99  1406.03  1423.20  1449.75
                             1473.84  1532.19  1539.31  1567.33  1588.15
                             1679.62  1761.52  1767.27  1783.10  1795.79
                             1822.45  1838.18  1896.31  1996.12  2032.20
                             2051.43  2054.60  2056.00  2059.93  2104.24
                             2131.84  2169.83  2183.91  2193.18  2205.05
                             2225.82  2238.15  2269.76  2300.71  2328.55
                             2588.89  4287.14  4384.87  4398.64  4401.06
                             4412.50  4468.32  4479.37  4496.56  4500.49
                             4559.59  4566.03  4577.42  4641.99  4650.64
                             5366.41

 Zero-point correction=                           0.245382 (Hartree/Particle)
 Thermal correction to Energy=                    0.259346
 Thermal correction to Enthalpy=                  0.260290
 Thermal correction to Gibbs Free Energy=         0.205785
 Sum of electronic and zero-point Energies=           -633.174283
 Sum of electronic and thermal Energies=              -633.160319
 Sum of electronic and thermal Enthalpies=            -633.159375
 Sum of electronic and thermal Free Energies=         -633.213880

                     E (Thermal)             CV                S
                      KCal/Mol        Cal/Mol-Kelvin    Cal/Mol-Kelvin
 Total                  162.742             53.834            114.715
 Electronic               0.000              0.000              0.000
 Translational            0.889              2.981             41.680
 Rotational               0.889              2.981             31.548
 Vibrational            160.964             47.873             41.488
 Vibration     1          0.595              1.977              4.791
 Vibration     2          0.600              1.962              3.867
 Vibration     3          0.608              1.936              3.158
 Vibration     4          0.618              1.903              2.682
 Vibration     5          0.628              1.870              2.357
 Vibration     6          0.636              1.846              2.172
 Vibration     7          0.646              1.814              1.980
 Vibration     8          0.653              1.793              1.870
 Vibration     9          0.660              1.771              1.764
 Vibration    10          0.672              1.734              1.615
 Vibration    11          0.675              1.726              1.587
 Vibration    12          0.683              1.701              1.502
 Vibration    13          0.705              1.638              1.317
 Vibration    14          0.713              1.616              1.261
 Vibration    15          0.744              1.530              1.072
 Vibration    16          0.762              1.481              0.981
 Vibration    17          0.770              1.461              0.947
 Vibration    18          0.801              1.380              0.822
 Vibration    19          0.827              1.317              0.738
 Vibration    20          0.867              1.224              0.629
 Vibration    21          0.906              1.139              0.543
 Vibration    22          0.933              1.083              0.492
 Vibration    23          0.964              1.020              0.440

                           ! Non-Optimized Parameters !
 Normal termination of Gaussian 16 at Thu Dec 10 09:37:36 2020.

 ----------------------------------------------------------------------
 # B3LYP/6-311++G(d,p) empiricaldispersion=gd3bj scf=xqc pop=npa geom=c
 heck
 ----------------------------------------------------------------------

 ---------------------------------------
 CID_131308938_JID_4348_Energie_neutraal
 ---------------------------------------
 Structure from the checkpoint file:  "JID_4348.chk"
 Charge =  0 Multiplicity = 1

 SCF Done:  E(RB3LYP) =  -633.601936411     A.U. after   15 cycles
 Normal termination of Gaussian 16 at Thu Dec 10 09:42:07 2020.

 ----------------------------------------------------------------------
 # B3LYP/6-311++G(d,p) empiricaldispersion=gd3bj scf=xqc pop=npa geom=c
 heck
 ----------------------------------------------------------------------

 -------------------------------------
 CID_131308938_JID_4348_Energie_kation
 -------------------------------------
 Structure from the checkpoint file:  "JID_4348.chk"
 Charge =  1 Multiplicity = 2

 SCF Done:  E(UB3LYP) =  -633.266266485     A.U. after   32 cycles
 Normal termination of Gaussian 16 at Thu Dec 10 09:55:22 2020.
 Gaussian 16:  ES64L-G16RevA.03 25-Dec-2016

 ----------------------------------------------------------------------
 # B3LYP/6-311++G(d,p) empiricaldispersion=gd3bj scf=xqc pop=npa geom=c
 heck
 ----------------------------------------------------------------------

 ------------------------------------
 CID_131308938_JID_4348_Energie_anion
 ------------------------------------
 Structure from the checkpoint file:  "JID_4348.chk"
 Charge = -1 Multiplicity = 2

                         Standard orientation:
 ---------------------------------------------------------------------
 Center     Atomic      Atomic             Coordinates (Angstroms)
 Number     Number       Type             X           Y           Z
 ---------------------------------------------------------------------
      1          6           0        2.159902   -1.160926   -1.049902
      2          6           0        0.861913   -1.322875   -0.220219
      3          6           0        0.052650   -2.403409   -0.982487
      4          6           0        1.204532   -1.842446    1.192485
      5          6           0        0.090736    0.018760   -0.127766
      6          6           0       -1.324216    0.100964   -0.098276
      7          6           0       -1.943929    1.337614   -0.309815
      8          6           0       -1.174153    2.475813   -0.504896
      9          7           0        0.145951    2.458413   -0.357885
     10          6           0        0.752473    1.280052   -0.119283
     11          6           0        2.148658    1.581074    0.341803
     12          8           0        2.843574    0.905683    1.074901
     13          6           0       -2.270659   -1.058791    0.222371
     14          8           0       -3.523396   -0.616689    0.723839
     15          1           0        2.598302   -2.150571   -1.214539
     16          1           0        2.912764   -0.555950   -0.554240
     17          1           0        1.941373   -0.726126   -2.032228
     18          1           0        0.728666   -3.220256   -1.252763
     19          1           0       -0.746928   -2.850234   -0.392646
     20          1           0       -0.373329   -2.007469   -1.911220
     21          1           0        1.843227   -1.128960    1.715462
     22          1           0        0.298657   -2.007301    1.787576
     23          1           0        1.733606   -2.800052    1.118511
     24          1           0       -3.026512    1.388040   -0.318817
     25          1           0       -1.630262    3.434688   -0.742230
     26          1           0        2.457950    2.596761    0.028059
     27          1           0       -2.512732   -1.631233   -0.676029
     28          1           0       -1.797228   -1.743118    0.935211
     29          1           0       -3.358071   -0.154043    1.561090
 ---------------------------------------------------------------------

 SCF Done:  E(UB3LYP) =  -633.621810314     A.U. after   27 cycles

 The electronic state is 2-A.
 Alpha  occ. eigenvalues --  -19.01971 -18.91785 -14.14700 -10.10830 -10.06476
 Alpha  occ. eigenvalues --  -10.04960 -10.04877 -10.04713 -10.04365 -10.03384
 Alpha  occ. eigenvalues --  -10.03299 -10.02920 -10.02316 -10.01375  -0.92186
 Alpha  occ. eigenvalues --   -0.85781  -0.78525  -0.70092  -0.65668  -0.60654
 Alpha  occ. eigenvalues --   -0.57934  -0.56231  -0.55334  -0.50662  -0.46883
 Alpha  occ. eigenvalues --   -0.42856  -0.41615  -0.38373  -0.36143  -0.34798
 Alpha  occ. eigenvalues --   -0.32804  -0.32572  -0.31703  -0.30333  -0.28965
 Alpha  occ. eigenvalues --   -0.27939  -0.27353  -0.26685  -0.25608  -0.25117
 Alpha  occ. eigenvalues --   -0.24210  -0.23750  -0.23145  -0.21441  -0.21021
 Alpha  occ. eigenvalues --   -0.19674  -0.18936  -0.17338  -0.13168  -0.10946
 Alpha  occ. eigenvalues --   -0.10461  -0.07607   0.04371
 Alpha virt. eigenvalues --    0.08012   0.08852   0.09956   0.10324   0.11041
 Alpha virt. eigenvalues --    0.11802   0.11933   0.12458   0.12924   0.13519
 Alpha virt. eigenvalues --    0.14212   0.14848   0.15121   0.16237   0.16494

  Beta  occ. eigenvalues --  -19.01964 -18.91222 -14.14547 -10.10820 -10.06496
  Beta  occ. eigenvalues --  -10.05058 -10.04726 -10.04555 -10.04353 -10.03187
  Beta  occ. eigenvalues --  -10.03003 -10.02895 -10.02313 -10.01066  -0.92172
  Beta  occ. eigenvalues --   -0.84744  -0.78113  -0.69919  -0.65473  -0.60115
  Beta  occ. eigenvalues --   -0.57792  -0.56162  -0.55292  -0.49852  -0.46647
  Beta  occ. eigenvalues --   -0.42632  -0.41439  -0.38027  -0.35966  -0.34709
  Beta  occ. eigenvalues --   -0.32765  -0.32352  -0.31604  -0.30227  -0.28602
  Beta  occ. eigenvalues --   -0.27576  -0.27197  -0.26420  -0.25466  -0.24579
  Beta  occ. eigenvalues --   -0.23744  -0.23454  -0.22885  -0.21054  -0.20746
  Beta  occ. eigenvalues --   -0.19003  -0.17591  -0.17234  -0.12112  -0.10522
  Beta  occ. eigenvalues --   -0.08819  -0.07079
  Beta virt. eigenvalues --    0.07986   0.08829   0.09958   0.10294   0.10806
  Beta virt. eigenvalues --    0.11280   0.11848   0.12191   0.12609   0.12916
  Beta virt. eigenvalues --    0.13492   0.14204   0.14828   0.15148   0.16227

 Mulliken charges and spin densities:
               1          2
     1  C   -0.680583  -0.001171
     2  C    0.827917   0.009564
     3  C   -0.682819  -0.004384
     4  C   -0.798379  -0.008050
     5  C    0.396626   0.164644
     6  C    0.704006  -0.054308
     7  C   -0.564678   0.253526
     8  C   -0.258190  -0.022081
     9  N    0.057433   0.050324
    10  C   -0.573919   0.189855
    11  C   -0.447074   0.240893
    12  O   -0.372013   0.189101
    13  C   -0.447325   0.005618
    14  O   -0.257113  -0.000309
    15  H    0.093669  -0.002468
    16  H    0.167915  -0.002096
    17  H    0.125913   0.000741
    18  H    0.114886   0.003494
    19  H    0.105948  -0.000112
    20  H    0.138673   0.003576
    21  H    0.216731   0.005020
    22  H    0.095973  -0.002411
    23  H    0.107245   0.010096
    24  H    0.161802  -0.019358
    25  H    0.122230   0.001117
    26  H    0.059232  -0.019073
    27  H    0.185589   0.000367
    28  H    0.174440  -0.001271
    29  H    0.225865   0.009157
 Sum of Mulliken charges =  -1.00000   1.00000

 Dipole moment (field-independent basis, Debye):
    X=             -3.7786    Y=             -4.7415    Z=             -0.7603  Tot=              6.1105
 Quadrupole moment (field-independent basis, Debye-Ang):
   XX=           -124.1994   YY=           -108.1250   ZZ=            -94.2897
   XY=             -7.5570   XZ=             -8.3536   YZ=              0.1423

 Summary of Natural Population Analysis:

                                       Natural Population
                Natural  -----------------------------------------------
    Atom  No    Charge         Core      Valence    Rydberg      Total
 -----------------------------------------------------------------------
      C    1   -0.28361      0.99964     2.27840    0.00557     3.28361
      C    2   -0.05372      0.99959     2.04447    0.00966     3.05372
      C    3   -0.28202      0.99965     2.27664    0.00573     3.28202
      C    4   -0.28196      0.99962     2.27683    0.00550     3.28196
      C    5    0.04494      0.99942     1.94312    0.01252     2.95506
      C    6   -0.04923      0.99947     2.04204    0.00771     3.04923
      C    7   -0.07726      0.99951     2.06854    0.00921     3.07726
      C    8    0.00663      0.99959     1.97912    0.01467     2.99337
      N    9   -0.20825      0.99969     2.69766    0.01090     3.70825
      C   10    0.08520      0.99948     1.89857    0.01675     2.91480
      C   11    0.24480      0.99970     1.73433    0.02117     2.75520
      O   12   -0.25394      0.99988     3.24674    0.00732     4.25394
      C   13   -0.01634      0.99956     2.00515    0.01163     3.01634
      O   14   -0.36914      0.99990     3.36321    0.00604     4.36914
      H   15    0.08558      0.00000     0.41354    0.00087     0.41442
      H   16    0.12034      0.00000     0.37854    0.00112     0.37966
      H   17    0.09697      0.00000     0.40229    0.00073     0.40303
      H   18    0.09354      0.00000     0.40557    0.00089     0.40646
      H   19    0.09381      0.00000     0.40518    0.00101     0.40619
      H   20    0.09961      0.00000     0.39965    0.00074     0.40039
      H   21    0.12268      0.00000     0.37630    0.00101     0.37732
      H   22    0.08854      0.00000     0.41048    0.00097     0.41146
      H   23    0.08716      0.00000     0.41190    0.00093     0.41284
      H   24    0.09789      0.00000     0.40078    0.00133     0.40211
      H   25    0.07672      0.00000     0.42148    0.00180     0.42328
      H   26    0.03919      0.00000     0.45800    0.00281     0.46081
      H   27    0.08719      0.00000     0.41142    0.00139     0.41281
      H   28    0.07871      0.00000     0.41987    0.00142     0.42129
      H   29    0.22597      0.00000     0.27144    0.00259     0.27403
 =======================================================================
   * Total *    0.00000     13.99470    37.84128    0.16402    52.00000

 Normal termination of Gaussian 16 at Thu Dec 10 10:07:00 2020.
