 Gaussian 16, Revision A.03,

 -----------------------------------------------------------
 # opt freq B3LYP/6-31G(d) empiricaldispersion=gd3bj scf=xqc
 -----------------------------------------------------------

 ------------------------------
 CID_69230538_JID_3395_neutraal
 ------------------------------
 Symbolic Z-matrix:
 Charge =  0 Multiplicity = 1

 SCF Done:  E(RB3LYP) =  -647.317265940     A.U. after   15 cycles
 SCF Done:  E(RB3LYP) =  -647.323357474     A.U. after   12 cycles
 SCF Done:  E(RB3LYP) =  -647.324157637     A.U. after   11 cycles
 SCF Done:  E(RB3LYP) =  -647.324247843     A.U. after   11 cycles
 SCF Done:  E(RB3LYP) =  -647.324257874     A.U. after   10 cycles
 SCF Done:  E(RB3LYP) =  -647.324258246     A.U. after   10 cycles
 SCF Done:  E(RB3LYP) =  -647.324262178     A.U. after    9 cycles
 SCF Done:  E(RB3LYP) =  -647.324262868     A.U. after    8 cycles
 SCF Done:  E(RB3LYP) =  -647.324263002     A.U. after    7 cycles
 Optimization completed.
    -- Stationary point found.
 Normal termination of Gaussian 16 at Wed Dec  9 23:04:30 2020.

 --------------------------------------------------------------------
 #N Geom=AllCheck Guess=TCheck SCRF=Check GenChk RB3LYP/6-31G(d) Freq
 --------------------------------------------------------------------

 Structure from the checkpoint file:  "JID_3395.chk"
 ------------------------------
 CID_69230538_JID_3395_neutraal
 ------------------------------
 Charge =  0 Multiplicity = 1

 SCF Done:  E(RB3LYP) =  -647.324263002     A.U. after    1 cycles

  Exact polarizability: 134.381   2.831 104.840  -0.005   0.002  66.419
 Approx polarizability: 175.075   2.545 173.240  -0.011   0.001  94.124

                      1                      2                      3
                      A                      A                      A
 Frequencies --     38.8770                48.8178               116.9539
 Red. masses --      4.0853                 4.7234                 4.5286
 Frc consts  --      0.0036                 0.0066                 0.0365
 IR Inten    --      2.3640                 1.6542                 4.7371

                      4                      5                      6
                      A                      A                      A
 Frequencies --    118.3001               130.7084               211.0290
 Red. masses --      4.5410                 5.2431                 1.0819
 Frc consts  --      0.0374                 0.0528                 0.0284
 IR Inten    --      0.1897                 0.0109                 0.1860

                      7                      8                      9
                      A                      A                      A
 Frequencies --    223.3264               241.9033               251.8723
 Red. masses --      5.0067                 3.2620                 1.6870
 Frc consts  --      0.1471                 0.1125                 0.0631
 IR Inten    --     15.0686                 1.6821                 0.3818

                     10                     11                     12
                      A                      A                      A
 Frequencies --    263.6303               275.7851               332.1367
 Red. masses --      1.9329                 1.0681                 3.6836
 Frc consts  --      0.0792                 0.0479                 0.2394
 IR Inten    --      2.0181                 0.0430                 5.3547

                     13                     14                     15
                      A                      A                      A
 Frequencies --    352.1566               415.4427               415.5503
 Red. masses --      2.4947                 2.9912                 1.2711
 Frc consts  --      0.1823                 0.3042                 0.1293
 IR Inten    --      0.5971                 1.4636                65.9710

                     16                     17                     18
                      A                      A                      A
 Frequencies --    456.5786               460.8813               501.5880
 Red. masses --      3.0408                 2.9311                 5.6584
 Frc consts  --      0.3735                 0.3668                 0.8388
 IR Inten    --      8.0761                 5.1750                 0.2435

                     19                     20                     21
                      A                      A                      A
 Frequencies --    573.6011               596.1511               667.0630
 Red. masses --      4.4302                 3.7150                 1.4396
 Frc consts  --      0.8588                 0.7779                 0.3774
 IR Inten    --      0.6056                 0.1042                83.4759

                     22                     23                     24
                      A                      A                      A
 Frequencies --    742.3037               750.9089               765.9386
 Red. masses --      5.0890                 8.2747                 4.5172
 Frc consts  --      1.6522                 2.7490                 1.5614
 IR Inten    --     13.7439                16.1045                 4.7188

                     25                     26                     27
                      A                      A                      A
 Frequencies --    768.9880               810.4183               856.0594
 Red. masses --     10.3194                 1.2002                 8.0718
 Frc consts  --      3.5954                 0.4644                 3.4852
 IR Inten    --     24.3029                 0.0965                17.3074

                     28                     29                     30
                      A                      A                      A
 Frequencies --    870.7428               897.6730               938.6113
 Red. masses --      3.4658                 4.8388                 1.6309
 Frc consts  --      1.5482                 2.2973                 0.8466
 IR Inten    --     57.9308                47.1245                 0.1223

                     31                     32                     33
                      A                      A                      A
 Frequencies --    940.3136               984.0806              1067.6005
 Red. masses --      1.6324                 1.1984                 1.4032
 Frc consts  --      0.8504                 0.6838                 0.9423
 IR Inten    --      0.2194                 0.2428                 0.2794

                     34                     35                     36
                      A                      A                      A
 Frequencies --   1067.9758              1079.9210              1101.5910
 Red. masses --      1.5922                 1.6985                 1.8094
 Frc consts  --      1.0700                 1.1671                 1.2937
 IR Inten    --     35.1208                72.2427                 9.7709

                     37                     38                     39
                      A                      A                      A
 Frequencies --   1171.8553              1203.4140              1221.6289
 Red. masses --      2.0461                 4.4481                 2.2024
 Frc consts  --      1.6555                 3.7954                 1.9366
 IR Inten    --    304.4716                96.0069               184.0084

                     40                     41                     42
                      A                      A                      A
 Frequencies --   1252.6914              1288.5576              1299.2028
 Red. masses --      3.5025                 2.7119                 2.8611
 Frc consts  --      3.2383                 2.6530                 2.8454
 IR Inten    --      5.5593                15.5883                70.7066

                     43                     44                     45
                      A                      A                      A
 Frequencies --   1349.6397              1406.3573              1426.0527
 Red. masses --      4.6809                 2.5395                 1.2805
 Frc consts  --      5.0236                 2.9593                 1.5343
 IR Inten    --    514.3168               219.3833                18.0836

                     46                     47                     48
                      A                      A                      A
 Frequencies --   1428.2653              1439.1006              1453.8668
 Red. masses --      1.2997                 2.5693                 1.2393
 Frc consts  --      1.5621                 3.1351                 1.5434
 IR Inten    --     24.2873               105.2181                12.8830

                     49                     50                     51
                      A                      A                      A
 Frequencies --   1500.4061              1519.9992              1520.7156
 Red. masses --      1.0463                 1.0469                 1.0514
 Frc consts  --      1.3878                 1.4251                 1.4326
 IR Inten    --      0.5840                 0.4000                 0.4891

                     52                     53                     54
                      A                      A                      A
 Frequencies --   1525.9848              1534.9943              1556.9659
 Red. masses --      1.0663                 1.0528                 1.0553
 Frc consts  --      1.4629                 1.4615                 1.5073
 IR Inten    --     12.1939                 1.3190                14.8747

                     55                     56                     57
                      A                      A                      A
 Frequencies --   1664.9630              1809.6001              1895.8438
 Red. masses --      5.2301                11.7788                11.5316
 Frc consts  --      8.5422                22.7256                24.4200
 IR Inten    --      4.0777                53.1639               658.7007

                     58                     59                     60
                      A                      A                      A
 Frequencies --   3059.1531              3061.8028              3068.4243
 Red. masses --      1.0353                 1.0382                 1.0386
 Frc consts  --      5.7082                 5.7346                 5.7613
 IR Inten    --      8.9951                22.5874                17.2365

                     61                     62                     63
                      A                      A                      A
 Frequencies --   3124.2175              3126.1765              3134.7197
 Red. masses --      1.1027                 1.1024                 1.1033
 Frc consts  --      6.3416                 6.3478                 6.3876
 IR Inten    --      5.5767                15.7643                31.5359

                     64                     65                     66
                      A                      A                      A
 Frequencies --   3139.3331              3174.6945              3177.6635
 Red. masses --      1.1024                 1.0999                 1.0993
 Frc consts  --      6.4010                 6.5315                 6.5402
 IR Inten    --     46.6280                 0.7642                 9.4333

                     67                     68                     69
                      A                      A                      A
 Frequencies --   3301.3278              3347.7154              3687.6222
 Red. masses --      1.0956                 1.1027                 1.0806
 Frc consts  --      7.0353                 7.2809                 8.6578
 IR Inten    --      2.9270                 5.8704                86.0385

 - Thermochemistry -
 -------------------
 Temperature   298.150 Kelvin.  Pressure   1.00000 Atm.
 Atom     1 has atomic number  6 and mass  12.00000

 Molecular mass:   184.08479 amu.
 Principal axes and moments of inertia in atomic units:
                           1         2         3
     Eigenvalues --  1049.851973724.056664369.44128
           X            0.99997   0.00815   0.00000
           Y           -0.00815   0.99997   0.00001
           Z           -0.00000  -0.00001   1.00000
 This molecule is an asymmetric top.
 Rotational symmetry number  1.
 Warning -- assumption of classical behavior for rotation
           may cause significant error
 Rotational temperatures (Kelvin)      0.08250     0.02326     0.01982
 Rotational constants (GHZ):           1.71904     0.48462     0.41304
 Zero-point vibrational energy     533584.9 (Joules/Mol)
                                  127.52986 (Kcal/Mol)
 Warning -- explicit consideration of  20 degrees of freedom as
           vibrations may cause significant error
 Vibrational temperatures:     55.94    70.24   168.27   170.21   188.06
          (Kelvin)            303.62   321.32   348.04   362.39   379.31
                              396.79   477.87   506.67   597.73   597.88
                              656.91   663.11   721.67   825.28   857.73
                              959.75  1068.01  1080.39  1102.01  1106.40
                             1166.01  1231.68  1252.80  1291.55  1350.45
                             1352.90  1415.87  1536.04  1536.58  1553.77
                             1584.94  1686.04  1731.44  1757.65  1802.34
                             1853.95  1869.26  1941.83  2023.43  2051.77
                             2054.96  2070.54  2091.79  2158.75  2186.94
                             2187.97  2195.55  2208.51  2240.13  2395.51
                             2603.61  2727.70  4401.44  4405.25  4414.78
                             4495.05  4497.87  4510.16  4516.80  4567.68
                             4571.95  4749.87  4816.62  5305.67

 Zero-point correction=                           0.203232 (Hartree/Particle)
 Thermal correction to Energy=                    0.216361
 Thermal correction to Enthalpy=                  0.217305
 Thermal correction to Gibbs Free Energy=         0.163532
 Sum of electronic and zero-point Energies=           -647.121031
 Sum of electronic and thermal Energies=              -647.107902
 Sum of electronic and thermal Enthalpies=            -647.106958
 Sum of electronic and thermal Free Energies=         -647.160731

                     E (Thermal)             CV                S
                      KCal/Mol        Cal/Mol-Kelvin    Cal/Mol-Kelvin
 Total                  135.769             49.157            113.176
 Electronic               0.000              0.000              0.000
 Translational            0.889              2.981             41.537
 Rotational               0.889              2.981             31.214
 Vibrational            133.991             43.195             40.425
 Vibration     1          0.594              1.981              5.316
 Vibration     2          0.595              1.978              4.865
 Vibration     3          0.608              1.935              3.150
 Vibration     4          0.608              1.934              3.128
 Vibration     5          0.612              1.923              2.936
 Vibration     6          0.643              1.824              2.035
 Vibration     7          0.649              1.806              1.932
 Vibration     8          0.658              1.776              1.789
 Vibration     9          0.664              1.760              1.717
 Vibration    10          0.670              1.740              1.638
 Vibration    11          0.677              1.718              1.560
 Vibration    12          0.714              1.611              1.250
 Vibration    13          0.729              1.571              1.157
 Vibration    14          0.779              1.437              0.908
 Vibration    15          0.779              1.436              0.907
 Vibration    16          0.815              1.346              0.776
 Vibration    17          0.819              1.337              0.764
 Vibration    18          0.857              1.246              0.654
 Vibration    19          0.930              1.088              0.497
 Vibration    20          0.954              1.040              0.456

 Optimization completed.
    -- Stationary point found.
 Normal termination of Gaussian 16 at Wed Dec  9 23:10:19 2020.

 ----------------------------------------------------------------------
 # B3LYP/6-311++G(d,p) empiricaldispersion=gd3bj scf=xqc pop=npa geom=c
 heck
 ----------------------------------------------------------------------

 --------------------------------------
 CID_69230538_JID_3395_Energie_neutraal
 --------------------------------------
 Structure from the checkpoint file:  "JID_3395.chk"
 Charge =  0 Multiplicity = 1

 SCF Done:  E(RB3LYP) =  -647.515709062     A.U. after   14 cycles
 Normal termination of Gaussian 16 at Wed Dec  9 23:12:41 2020.

 ----------------------------------------------------------------------
 # B3LYP/6-311++G(d,p) empiricaldispersion=gd3bj scf=xqc pop=npa geom=c
 heck
 ----------------------------------------------------------------------

 ------------------------------------
 CID_69230538_JID_3395_Energie_kation
 ------------------------------------
 Structure from the checkpoint file:  "JID_3395.chk"
 Charge =  1 Multiplicity = 2

 SCF Done:  E(UB3LYP) =  -647.212749876     A.U. after   19 cycles
 Normal termination of Gaussian 16 at Wed Dec  9 23:17:12 2020.
 Gaussian 16:  ES64L-G16RevA.03 25-Dec-2016

 ----------------------------------------------------------------------
 # B3LYP/6-311++G(d,p) empiricaldispersion=gd3bj scf=xqc pop=npa geom=c
 heck
 ----------------------------------------------------------------------

 -----------------------------------
 CID_69230538_JID_3395_Energie_anion
 -----------------------------------
 Structure from the checkpoint file:  "JID_3395.chk"
 Charge = -1 Multiplicity = 2

                         Standard orientation:
 ---------------------------------------------------------------------
 Center     Atomic      Atomic             Coordinates (Angstroms)
 Number     Number       Type             X           Y           Z
 ---------------------------------------------------------------------
      1          6           0       -3.066162    1.534278   -0.000728
      2          6           0       -2.408027    0.155574   -0.000124
      3          6           0       -2.758489   -0.617293    1.271945
      4          6           0       -2.758646   -0.618488   -1.271425
      5          8           0       -0.971485    0.491879   -0.000384
      6          6           0       -0.044212   -0.485290    0.000295
      7          8           0       -0.236825   -1.676911    0.000761
      8          7           0        1.226868    0.108038    0.000194
      9          6           0        1.495357    1.493800    0.000278
     10          6           0        2.831276    1.648339    0.000062
     11          7           0        3.409776    0.380113   -0.000142
     12          6           0        2.452334   -0.625520   -0.000148
     13          8           0        2.633196   -1.823293   -0.000480
     14          1           0       -4.155412    1.427468   -0.000663
     15          1           0       -2.772966    2.101517   -0.889801
     16          1           0       -2.772942    2.102317    0.887828
     17          1           0       -3.843825   -0.754691    1.325340
     18          1           0       -2.278735   -1.596552    1.282693
     19          1           0       -2.441670   -0.054920    2.156647
     20          1           0       -2.441990   -0.056916   -2.156692
     21          1           0       -2.278823   -1.597722   -1.281329
     22          1           0       -3.843982   -0.756007   -1.324531
     23          1           0        0.696962    2.213546    0.000526
     24          1           0        3.424353    2.549069    0.000126
     25          1           0        4.392845    0.160032   -0.000620
 ---------------------------------------------------------------------

 SCF Done:  E(UB3LYP) =  -647.506719504     A.U. after   31 cycles

 The electronic state is 2-A.
 Alpha  occ. eigenvalues --  -19.07682 -19.01758 -18.99738 -14.28397 -14.26436
 Alpha  occ. eigenvalues --  -10.24500 -10.21132 -10.16041 -10.11948 -10.11376
 Alpha  occ. eigenvalues --  -10.07443 -10.07375 -10.07375  -1.02802  -0.96980
 Alpha  occ. eigenvalues --   -0.93777  -0.89972  -0.82512  -0.72859  -0.66536
 Alpha  occ. eigenvalues --   -0.61164  -0.61075  -0.60311  -0.53850  -0.51816
 Alpha  occ. eigenvalues --   -0.45213  -0.43608  -0.41968  -0.40451  -0.38800
 Alpha  occ. eigenvalues --   -0.37229  -0.37115  -0.36080  -0.35279  -0.34378
 Alpha  occ. eigenvalues --   -0.33606  -0.32999  -0.30506  -0.30233  -0.28463
 Alpha  occ. eigenvalues --   -0.27708  -0.26986  -0.25651  -0.25244  -0.22182
 Alpha  occ. eigenvalues --   -0.21859  -0.20397  -0.17566  -0.12218   0.03890
 Alpha virt. eigenvalues --    0.05416   0.07360   0.07584   0.08368   0.08522
 Alpha virt. eigenvalues --    0.08767   0.10230   0.10799   0.11502   0.12038
 Alpha virt. eigenvalues --    0.12092   0.12348   0.13870   0.14257   0.14711

  Beta  occ. eigenvalues --  -19.07674 -19.01756 -18.99736 -14.28389 -14.26399
  Beta  occ. eigenvalues --  -10.24496 -10.21134 -10.16039 -10.11913 -10.11368
  Beta  occ. eigenvalues --  -10.07404 -10.07353 -10.07353  -1.02791  -0.96967
  Beta  occ. eigenvalues --   -0.93769  -0.89954  -0.82470  -0.72838  -0.66486
  Beta  occ. eigenvalues --   -0.61118  -0.61036  -0.60261  -0.53804  -0.51756
  Beta  occ. eigenvalues --   -0.45169  -0.43555  -0.41921  -0.40433  -0.38778
  Beta  occ. eigenvalues --   -0.37177  -0.37093  -0.36033  -0.35235  -0.34359
  Beta  occ. eigenvalues --   -0.33587  -0.32978  -0.30460  -0.30205  -0.28432
  Beta  occ. eigenvalues --   -0.27683  -0.26961  -0.25625  -0.25235  -0.22160
  Beta  occ. eigenvalues --   -0.21849  -0.20386  -0.17556  -0.12200
  Beta virt. eigenvalues --    0.06163   0.07349   0.07634   0.08242   0.08610
  Beta virt. eigenvalues --    0.09150   0.09673   0.10517   0.11333   0.11681
  Beta virt. eigenvalues --    0.12166   0.12297   0.12395   0.14245   0.14264

 Mulliken charges and spin densities:
               1          2
     1  C    0.466847  -0.894064
     2  C   -1.147227   1.061382
     3  C    0.369022  -0.781293
     4  C    0.368298  -0.780749
     5  O    0.107644  -0.040351
     6  C    0.389821  -0.239525
     7  O   -0.201584  -0.006034
     8  N   -0.232410  -0.053544
     9  C   -0.606062   0.602718
    10  C    1.883693  -2.141199
    11  N   -0.309042   0.044133
    12  C    0.728083  -0.451576
    13  O   -0.379862   0.028202
    14  H   -0.272471   0.420958
    15  H   -0.184662   0.346689
    16  H   -0.184963   0.346987
    17  H   -0.148509   0.315838
    18  H    0.118692   0.063860
    19  H    0.052762   0.093685
    20  H    0.052883   0.093549
    21  H    0.118777   0.063805
    22  H   -0.148411   0.315704
    23  H   -0.051022   0.234283
    24  H   -1.484462   1.682103
    25  H   -0.305836   0.674438
 Sum of Mulliken charges =  -1.00000   1.00000

 Dipole moment (field-independent basis, Debye):
    X=             -4.2903    Y=             -2.4006    Z=              0.0002  Tot=              4.9163
 Quadrupole moment (field-independent basis, Debye-Ang):
   XX=           -170.3554   YY=           -128.3975   ZZ=            -99.5723
   XY=             -6.5776   XZ=              0.0058   YZ=              0.0005

 Summary of Natural Population Analysis:

                                       Natural Population
                Natural  -----------------------------------------------
    Atom  No    Charge         Core      Valence    Rydberg      Total
 -----------------------------------------------------------------------
      C    1   -0.29011      0.99960     2.28324    0.00727     3.29011
      C    2    0.13613      0.99954     1.85026    0.01407     2.86387
      C    3   -0.30260      0.99960     2.29653    0.00647     3.30260
      C    4   -0.30260      0.99960     2.29653    0.00647     3.30260
      O    5   -0.29748      0.99985     3.28757    0.01006     4.29748
      C    6    0.47797      0.99969     1.49768    0.02466     2.52203
      O    7   -0.29900      0.99987     3.29451    0.00463     4.29900
      N    8   -0.26312      0.99961     2.75444    0.00907     3.76312
      C    9   -0.03072      0.99954     2.01950    0.01167     3.03072
      C   10   -0.01361      0.99954     2.00126    0.01280     3.01361
      N   11   -0.30632      0.99968     2.79576    0.01088     3.80632
      C   12    0.39994      0.99971     1.57649    0.02386     2.60006
      O   13   -0.30926      0.99987     3.30380    0.00559     4.30926
      H   14    0.10473      0.00000     0.39361    0.00166     0.39527
      H   15    0.10462      0.00000     0.39408    0.00130     0.39538
      H   16    0.10462      0.00000     0.39407    0.00130     0.39538
      H   17    0.10466      0.00000     0.39444    0.00091     0.39534
      H   18    0.11406      0.00000     0.38508    0.00086     0.38594
      H   19    0.10302      0.00000     0.39609    0.00089     0.39698
      H   20    0.10302      0.00000     0.39609    0.00089     0.39698
      H   21    0.11406      0.00000     0.38508    0.00086     0.38594
      H   22    0.10465      0.00000     0.39444    0.00091     0.39535
      H   23    0.11812      0.00000     0.38048    0.00141     0.38188
      H   24    0.11397      0.00000     0.37627    0.00976     0.38603
      H   25    0.21123      0.00000     0.28260    0.00617     0.28877
 =======================================================================
   * Total *   -0.00000     12.99570    35.82990    0.17440    49.00000

 Normal termination of Gaussian 16 at Wed Dec  9 23:24:27 2020.
