 Gaussian 16, Revision A.03,

 -----------------------------------------------------------
 # opt freq B3LYP/6-31G(d) empiricaldispersion=gd3bj scf=xqc
 -----------------------------------------------------------

 -------------------------------
 CID_18401283_JID_10548_neutraal
 -------------------------------
 Symbolic Z-matrix:
 Charge =  0 Multiplicity = 1

 SCF Done:  E(RB3LYP) =  -1270.23505936     A.U. after   15 cycles
 SCF Done:  E(RB3LYP) =  -1270.24134344     A.U. after   13 cycles
 SCF Done:  E(RB3LYP) =  -1270.24271889     A.U. after   12 cycles
 SCF Done:  E(RB3LYP) =  -1270.24317983     A.U. after   12 cycles
 SCF Done:  E(RB3LYP) =  -1270.24353365     A.U. after   12 cycles
 SCF Done:  E(RB3LYP) =  -1270.24390296     A.U. after   12 cycles
 SCF Done:  E(RB3LYP) =  -1270.24409618     A.U. after   12 cycles
 SCF Done:  E(RB3LYP) =  -1270.24418479     A.U. after   11 cycles
 SCF Done:  E(RB3LYP) =  -1270.24420236     A.U. after   10 cycles
 SCF Done:  E(RB3LYP) =  -1270.24421671     A.U. after   11 cycles
 SCF Done:  E(RB3LYP) =  -1270.24430873     A.U. after   10 cycles
 SCF Done:  E(RB3LYP) =  -1270.24431065     A.U. after   11 cycles
 SCF Done:  E(RB3LYP) =  -1270.24431055     A.U. after    9 cycles
 SCF Done:  E(RB3LYP) =  -1270.24431074     A.U. after    8 cycles
 SCF Done:  E(RB3LYP) =  -1270.24431090     A.U. after    9 cycles
 SCF Done:  E(RB3LYP) =  -1270.24431092     A.U. after    8 cycles
 Optimization completed.
    -- Stationary point found.
 Normal termination of Gaussian 16 at Mon Dec 14 14:04:47 2020.

 --------------------------------------------------------------------
 #N Geom=AllCheck Guess=TCheck SCRF=Check GenChk RB3LYP/6-31G(d) Freq
 --------------------------------------------------------------------

 Structure from the checkpoint file:  "JID_10548.chk"
 -------------------------------
 CID_18401283_JID_10548_neutraal
 -------------------------------
 Charge =  0 Multiplicity = 1

 SCF Done:  E(RB3LYP) =  -1270.24431092     A.U. after    1 cycles

  Exact polarizability: 335.571  -7.911 165.140  13.432   6.984 100.154
 Approx polarizability: 453.624 -10.021 308.121  39.281  16.496 167.888

                      1                      2                      3
                      A                      A                      A
 Frequencies --     15.1549                19.9734                38.7304
 Red. masses --      6.8410                 6.3116                 6.1259
 Frc consts  --      0.0009                 0.0015                 0.0054
 IR Inten    --      1.9882                 0.5417                 0.4706

                      4                      5                      6
                      A                      A                      A
 Frequencies --     69.3025                93.6057               131.5592
 Red. masses --      4.3945                 5.1043                 6.6769
 Frc consts  --      0.0124                 0.0264                 0.0681
 IR Inten    --      0.7416                 2.0738                 0.2729

                      7                      8                      9
                      A                      A                      A
 Frequencies --    148.1256               173.9976               205.3229
 Red. masses --      1.7465                 8.1325                 4.6582
 Frc consts  --      0.0226                 0.1451                 0.1157
 IR Inten    --     34.2477                 0.9394                 8.2586

                     10                     11                     12
                      A                      A                      A
 Frequencies --    229.5628               253.4109               290.2668
 Red. masses --      3.6418                 4.6956                 5.9372
 Frc consts  --      0.1131                 0.1777                 0.2947
 IR Inten    --      8.6970                 1.1340                 1.5788

                     13                     14                     15
                      A                      A                      A
 Frequencies --    329.7147               339.5715               357.6544
 Red. masses --      3.8686                 3.6278                 5.1592
 Frc consts  --      0.2478                 0.2465                 0.3888
 IR Inten    --     15.7989                 7.3031                18.0813

                     16                     17                     18
                      A                      A                      A
 Frequencies --    358.5774               380.1956               403.6854
 Red. masses --      1.4369                 2.8651                 1.5780
 Frc consts  --      0.1089                 0.2440                 0.1515
 IR Inten    --    184.0152                40.3466                52.9136

                     19                     20                     21
                      A                      A                      A
 Frequencies --    419.2044               429.4541               442.0468
 Red. masses --      3.3228                 4.2832                 3.0159
 Frc consts  --      0.3440                 0.4654                 0.3472
 IR Inten    --      6.1032                 2.9103                10.4703

                     22                     23                     24
                      A                      A                      A
 Frequencies --    444.3799               482.8911               534.0648
 Red. masses --      4.6069                 6.5665                 3.5754
 Frc consts  --      0.5360                 0.9022                 0.6008
 IR Inten    --      4.3952                 4.2378                21.0810

                     25                     26                     27
                      A                      A                      A
 Frequencies --    543.2285               571.1282               632.9491
 Red. masses --      6.1421                 6.0456                 4.7148
 Frc consts  --      1.0679                 1.1619                 1.1129
 IR Inten    --    103.8920                35.5270                 2.1476

                     28                     29                     30
                      A                      A                      A
 Frequencies --    645.2411               656.8134               666.4805
 Red. masses --      5.3760                 6.9413                 3.5002
 Frc consts  --      1.3187                 1.7643                 0.9160
 IR Inten    --      2.6242                17.7865                33.5048

                     31                     32                     33
                      A                      A                      A
 Frequencies --    696.4866               708.7958               732.5721
 Red. masses --      3.4428                 4.9813                 4.0197
 Frc consts  --      0.9840                 1.4745                 1.2710
 IR Inten    --    206.6518                29.3292                54.8473

                     34                     35                     36
                      A                      A                      A
 Frequencies --    757.5794               792.9622               809.4424
 Red. masses --      2.8782                 4.7021                 3.3956
 Frc consts  --      0.9733                 1.7420                 1.3108
 IR Inten    --      3.3501                 4.8551                 2.9170

                     37                     38                     39
                      A                      A                      A
 Frequencies --    821.0088               830.7876               841.6028
 Red. masses --      1.3874                 1.4355                 1.4598
 Frc consts  --      0.5510                 0.5837                 0.6092
 IR Inten    --      7.8195                36.2218                23.9972

                     40                     41                     42
                      A                      A                      A
 Frequencies --    850.3144               868.0226               880.6930
 Red. masses --      2.0494                 1.4769                 3.1662
 Frc consts  --      0.8730                 0.6556                 1.4469
 IR Inten    --      2.3153                27.2173                32.2762

                     43                     44                     45
                      A                      A                      A
 Frequencies --    894.6616               955.9257               958.1486
 Red. masses --      2.2943                 1.3435                 3.4521
 Frc consts  --      1.0820                 0.7233                 1.8673
 IR Inten    --    154.3753                13.0730                66.8598

                     46                     47                     48
                      A                      A                      A
 Frequencies --    967.4394               973.2270               984.0136
 Red. masses --      1.2779                 1.2637                 2.9353
 Frc consts  --      0.7047                 0.7052                 1.6746
 IR Inten    --      0.4567                 0.1351                 9.8128

                     49                     50                     51
                      A                      A                      A
 Frequencies --   1028.8546              1096.0513              1105.5909
 Red. masses --      3.4251                 3.7658                 4.1391
 Frc consts  --      2.1361                 2.6654                 2.9809
 IR Inten    --      4.3698                61.4580                24.2166

                     52                     53                     54
                      A                      A                      A
 Frequencies --   1115.3218              1151.5998              1154.8737
 Red. masses --      1.4714                 3.4362                 1.3828
 Frc consts  --      1.0784                 2.6850                 1.0866
 IR Inten    --      5.5346               371.8921                50.3167

                     55                     56                     57
                      A                      A                      A
 Frequencies --   1168.2292              1208.9378              1222.4590
 Red. masses --      1.4381                 1.7736                 1.2112
 Frc consts  --      1.1563                 1.5273                 1.0664
 IR Inten    --     31.5960                15.6205                 7.6620

                     58                     59                     60
                      A                      A                      A
 Frequencies --   1239.0998              1275.8096              1292.6972
 Red. masses --      1.5834                 1.7101                 2.5026
 Frc consts  --      1.4324                 1.6400                 2.4640
 IR Inten    --      4.9086                 3.4923                23.3459

                     61                     62                     63
                      A                      A                      A
 Frequencies --   1333.9098              1340.5164              1347.1008
 Red. masses --      4.5505                 2.9292                 1.9181
 Frc consts  --      4.7705                 3.1013                 2.0508
 IR Inten    --    110.4550                36.2267                17.1819

                     64                     65                     66
                      A                      A                      A
 Frequencies --   1350.0112              1379.6144              1395.6666
 Red. masses --      2.7352                 4.5316                 2.1609
 Frc consts  --      2.9371                 5.0818                 2.4800
 IR Inten    --     60.0289               288.8990                19.9072

                     67                     68                     69
                      A                      A                      A
 Frequencies --   1398.7620              1459.4384              1473.6892
 Red. masses --      5.2865                 2.9949                 3.2583
 Frc consts  --      6.0940                 3.7584                 4.1692
 IR Inten    --     63.8087                 9.7812                 6.0317

                     70                     71                     72
                      A                      A                      A
 Frequencies --   1521.2822              1545.3501              1552.4901
 Red. masses --      2.4116                 2.8472                 2.5456
 Frc consts  --      3.2883                 4.0061                 3.6149
 IR Inten    --      9.0270               141.8901                19.5045

                     73                     74                     75
                      A                      A                      A
 Frequencies --   1580.3379              1621.5845              1631.1806
 Red. masses --      3.5251                 1.1348                 5.6153
 Frc consts  --      5.1870                 1.7582                 8.8029
 IR Inten    --    236.5282                37.1813                12.9262

                     76                     77                     78
                      A                      A                      A
 Frequencies --   1642.0051              1659.3041              1689.2445
 Red. masses --      3.8470                 5.6141                 6.6182
 Frc consts  --      6.1112                 9.1072                11.1269
 IR Inten    --     17.3603               480.4010               102.0710

                     79                     80                     81
                      A                      A                      A
 Frequencies --   3185.4671              3195.6002              3201.9627
 Red. masses --      1.0897                 1.0911                 1.0893
 Frc consts  --      6.5147                 6.5647                 6.5799
 IR Inten    --     14.2553                12.1317                 6.7637

                     82                     83                     84
                      A                      A                      A
 Frequencies --   3220.0293              3228.3695              3233.8640
 Red. masses --      1.0888                 1.0935                 1.0922
 Frc consts  --      6.6515                 6.7147                 6.7300
 IR Inten    --      2.4827                 6.3501                 1.3453

                     85                     86                     87
                      A                      A                      A
 Frequencies --   3238.2683              3261.2180              3481.0935
 Red. masses --      1.0933                 1.0960                 1.0470
 Frc consts  --      6.7547                 6.8678                 7.4752
 IR Inten    --      2.7564                10.4084                29.7409

                     88                     89                     90
                      A                      A                      A
 Frequencies --   3591.5187              3617.5643              3677.9202
 Red. masses --      1.0971                 1.0758                 1.0809
 Frc consts  --      8.3378                 8.2948                 8.6148
 IR Inten    --     25.9854                23.8428                82.3906

 - Thermochemistry -
 -------------------
 Temperature   298.150 Kelvin.  Pressure   1.00000 Atm.
 Atom     1 has atomic number  6 and mass  12.00000

 Molecular mass:   288.06810 amu.
 Principal axes and moments of inertia in atomic units:
                           1         2         3
     Eigenvalues --  1501.57746********************
           X            0.99999  -0.00132  -0.00385
           Y            0.00134   0.99998   0.00552
           Z            0.00384  -0.00552   0.99998
 This molecule is an asymmetric top.
 Rotational symmetry number  1.
 Warning -- assumption of classical behavior for rotation
           may cause significant error
 Rotational temperatures (Kelvin)      0.05768     0.00501     0.00482
 Rotational constants (GHZ):           1.20190     0.10431     0.10042
 Zero-point vibrational energy     638470.1 (Joules/Mol)
                                  152.59802 (Kcal/Mol)
 Warning -- explicit consideration of  26 degrees of freedom as
           vibrations may cause significant error
 Vibrational temperatures:     21.80    28.74    55.72    99.71   134.68
          (Kelvin)            189.28   213.12   250.34   295.41   330.29
                              364.60   417.63   474.39   488.57   514.58
                              515.91   547.02   580.81   603.14   617.89
                              636.01   639.36   694.77   768.40   781.58
                              821.73   910.67   928.36   945.01   958.92
                             1002.09  1019.80  1054.01  1089.99  1140.90
                             1164.61  1181.25  1195.32  1210.88  1223.41
                             1248.89  1267.12  1287.22  1375.36  1378.56
                             1391.93  1400.26  1415.78  1480.29  1576.97
                             1590.70  1604.70  1656.90  1661.61  1680.82
                             1739.39  1758.85  1782.79  1835.61  1859.90
                             1919.20  1928.70  1938.18  1942.37  1984.96
                             2008.05  2012.51  2099.81  2120.31  2188.79
                             2223.41  2233.69  2273.75  2333.10  2346.90
                             2362.48  2387.37  2430.45  4583.18  4597.76
                             4606.91  4632.90  4644.90  4652.81  4659.15
                             4692.17  5008.52  5167.39  5204.87  5291.71

 Zero-point correction=                           0.243180 (Hartree/Particle)
 Thermal correction to Energy=                    0.260251
 Thermal correction to Enthalpy=                  0.261195
 Thermal correction to Gibbs Free Energy=         0.195895
 Sum of electronic and zero-point Energies=          -1270.001131
 Sum of electronic and thermal Energies=             -1269.984060
 Sum of electronic and thermal Enthalpies=           -1269.983116
 Sum of electronic and thermal Free Energies=        -1270.048416

                     E (Thermal)             CV                S
                      KCal/Mol        Cal/Mol-Kelvin    Cal/Mol-Kelvin
 Total                  163.310             66.627            137.436
 Electronic               0.000              0.000              0.000
 Translational            0.889              2.981             42.872
 Rotational               0.889              2.981             34.500
 Vibrational            161.532             60.665             60.064
 Vibration     1          0.593              1.986              7.185
 Vibration     2          0.593              1.986              6.637
 Vibration     3          0.594              1.981              5.323
 Vibration     4          0.598              1.969              4.173
 Vibration     5          0.603              1.954              3.583
 Vibration     6          0.612              1.922              2.923
 Vibration     7          0.618              1.905              2.696
 Vibration     8          0.627              1.874              2.392
 Vibration     9          0.640              1.832              2.085
 Vibration    10          0.652              1.796              1.882
 Vibration    11          0.665              1.757              1.707
 Vibration    12          0.686              1.692              1.472
 Vibration    13          0.713              1.616              1.261
 Vibration    14          0.719              1.596              1.214
 Vibration    15          0.733              1.560              1.132
 Vibration    16          0.733              1.558              1.128
 Vibration    17          0.750              1.512              1.038
 Vibration    18          0.769              1.462              0.949
 Vibration    19          0.782              1.429              0.895
 Vibration    20          0.791              1.406              0.860
 Vibration    21          0.802              1.378              0.820
 Vibration    22          0.804              1.373              0.813
 Vibration    23          0.839              1.288              0.702
 Vibration    24          0.889              1.175              0.578
 Vibration    25          0.898              1.155              0.558
 Vibration    26          0.927              1.094              0.502

 Optimization completed.
    -- Stationary point found.
 Normal termination of Gaussian 16 at Mon Dec 14 14:18:22 2020.

 ----------------------------------------------------------------------
 # B3LYP/6-311++G(d,p) empiricaldispersion=gd3bj scf=xqc pop=npa geom=c
 heck
 ----------------------------------------------------------------------

 ---------------------------------------
 CID_18401283_JID_10548_Energie_neutraal
 ---------------------------------------
 Structure from the checkpoint file:  "JID_10548.chk"
 Charge =  0 Multiplicity = 1

 SCF Done:  E(RB3LYP) =  -1270.51288224     A.U. after   16 cycles
 Normal termination of Gaussian 16 at Mon Dec 14 14:24:34 2020.

 ----------------------------------------------------------------------
 # B3LYP/6-311++G(d,p) empiricaldispersion=gd3bj scf=xqc pop=npa geom=c
 heck
 ----------------------------------------------------------------------

 -------------------------------------
 CID_18401283_JID_10548_Energie_kation
 -------------------------------------
 Structure from the checkpoint file:  "JID_10548.chk"
 Charge =  1 Multiplicity = 2

 SCF Done:  E(UB3LYP) =  -1270.23956446     A.U. after   24 cycles
 Normal termination of Gaussian 16 at Mon Dec 14 14:37:56 2020.
 Gaussian 16:  ES64L-G16RevA.03 25-Dec-2016

 ----------------------------------------------------------------------
 # B3LYP/6-311++G(d,p) empiricaldispersion=gd3bj scf=xqc pop=npa geom=c
 heck
 ----------------------------------------------------------------------

 ------------------------------------
 CID_18401283_JID_10548_Energie_anion
 ------------------------------------
 Structure from the checkpoint file:  "JID_10548.chk"
 Charge = -1 Multiplicity = 2

                         Standard orientation:
 ---------------------------------------------------------------------
 Center     Atomic      Atomic             Coordinates (Angstroms)
 Number     Number       Type             X           Y           Z
 ---------------------------------------------------------------------
      1          6           0       -1.364950    1.802164   -0.562833
      2          6           0       -2.693615    1.412685   -0.471894
      3          6           0       -3.003497    0.123440   -0.037762
      4          6           0       -1.989154   -0.771260    0.312679
      5          6           0       -0.661404   -0.379799    0.234982
      6          6           0       -0.328432    0.914253   -0.216238
      7          7           0        0.981610    1.361473   -0.301046
      8          6           0        2.165125    0.604890   -0.261302
      9          6           0        3.282240    1.144488    0.372140
     10          6           0        4.465763    0.396575    0.338098
     11          6           0        4.546376   -0.874874   -0.287088
     12          6           0        3.404484   -1.394328   -0.921614
     13          6           0        2.236480   -0.655986   -0.916831
     14          6           0        5.897045   -1.289921   -0.075163
     15          7           0        6.584499   -0.388479    0.602996
     16          7           0        5.711234    0.631608    0.847136
     17         16           0       -4.698908   -0.395192    0.037298
     18          8           0       -5.522360    0.708498   -0.472470
     19          8           0       -4.820407   -1.751794   -0.504532
     20          7           0       -4.947137   -0.579156    1.711436
     21          1           0       -1.116171    2.798758   -0.918581
     22          1           0       -3.493429    2.089903   -0.749314
     23          1           0       -2.243023   -1.767918    0.657308
     24          1           0        0.121185   -1.063989    0.538743
     25          1           0        1.101231    2.364282   -0.307423
     26          1           0        3.222256    2.101799    0.881727
     27          1           0        3.440441   -2.353114   -1.430316
     28          1           0        1.361666   -1.020569   -1.442192
     29          1           0        6.379040   -2.204753   -0.393384
     30          1           0        6.034919    1.428380    1.372234
     31          1           0       -5.337166    0.278216    2.100251
     32          1           0       -5.596495   -1.353643    1.843493
 ---------------------------------------------------------------------

 SCF Done:  E(UB3LYP) =  -1270.52416367     A.U. after   30 cycles

 The electronic state is 2-A.
 Alpha  occ. eigenvalues --  -88.95707 -19.01350 -19.01146 -14.26380 -14.24722
 Alpha  occ. eigenvalues --  -14.22771 -14.21473 -10.09951 -10.09854 -10.09259
 Alpha  occ. eigenvalues --  -10.07778 -10.07550 -10.07373 -10.07003 -10.06179
 Alpha  occ. eigenvalues --  -10.06084 -10.05769 -10.05530 -10.05363 -10.04903
 Alpha  occ. eigenvalues --   -8.01870  -5.98194  -5.98131  -5.97907  -1.01494
 Alpha  occ. eigenvalues --   -0.92730  -0.90620  -0.84061  -0.81387  -0.75120
 Alpha  occ. eigenvalues --   -0.73096  -0.71215  -0.66200  -0.64545  -0.63497
 Alpha  occ. eigenvalues --   -0.62067  -0.56144  -0.53312  -0.50910  -0.50329
 Alpha  occ. eigenvalues --   -0.49323  -0.47615  -0.44258  -0.44007  -0.42406
 Alpha  occ. eigenvalues --   -0.41779  -0.40030  -0.39112  -0.37239  -0.35541
 Alpha  occ. eigenvalues --   -0.34201  -0.34073  -0.33399  -0.33222  -0.32500
 Alpha  occ. eigenvalues --   -0.32076  -0.31140  -0.29991  -0.28567  -0.27227
 Alpha  occ. eigenvalues --   -0.26102  -0.25071  -0.24342  -0.23686  -0.22922
 Alpha  occ. eigenvalues --   -0.21708  -0.21294  -0.20565  -0.19258  -0.18481
 Alpha  occ. eigenvalues --   -0.18092  -0.15429  -0.14332  -0.11619  -0.08762
 Alpha  occ. eigenvalues --    0.03548
 Alpha virt. eigenvalues --    0.06209   0.07023   0.07844   0.08105   0.08624
 Alpha virt. eigenvalues --    0.09059   0.09795   0.10086   0.10573   0.11096
 Alpha virt. eigenvalues --    0.11973   0.12064   0.12554   0.13495   0.13568

  Beta  occ. eigenvalues --  -88.95698 -19.01328 -19.01112 -14.26326 -14.24699
  Beta  occ. eigenvalues --  -14.22845 -14.21190 -10.09904 -10.09666 -10.09061
  Beta  occ. eigenvalues --  -10.07779 -10.07396 -10.07331 -10.06894 -10.06169
  Beta  occ. eigenvalues --  -10.06129 -10.05626 -10.05564 -10.05309 -10.04696
  Beta  occ. eigenvalues --   -8.01861  -5.98169  -5.98115  -5.97905  -1.01413
  Beta  occ. eigenvalues --   -0.92484  -0.90559  -0.83885  -0.81324  -0.74862
  Beta  occ. eigenvalues --   -0.72871  -0.71011  -0.65825  -0.64374  -0.63333
  Beta  occ. eigenvalues --   -0.61722  -0.55886  -0.53055  -0.50840  -0.50078
  Beta  occ. eigenvalues --   -0.49244  -0.47405  -0.44174  -0.43896  -0.42266
  Beta  occ. eigenvalues --   -0.41619  -0.39886  -0.38963  -0.37109  -0.35420
  Beta  occ. eigenvalues --   -0.34079  -0.33934  -0.33285  -0.32732  -0.32363
  Beta  occ. eigenvalues --   -0.32020  -0.31037  -0.29894  -0.27968  -0.27118
  Beta  occ. eigenvalues --   -0.25986  -0.24489  -0.24227  -0.23542  -0.22806
  Beta  occ. eigenvalues --   -0.21594  -0.20790  -0.20458  -0.19054  -0.18113
  Beta  occ. eigenvalues --   -0.17414  -0.14930  -0.13272  -0.10974  -0.08096
  Beta virt. eigenvalues --    0.06223   0.07012   0.07794   0.08396   0.08573
  Beta virt. eigenvalues --    0.09192   0.09403   0.09753   0.10224   0.10530
  Beta virt. eigenvalues --    0.11118   0.12036   0.12276   0.12627   0.13476

 Mulliken charges and spin densities:
               1          2
     1  C   -0.413999   0.003998
     2  C   -0.126413  -0.044324
     3  C   -0.412932  -0.001643
     4  C   -0.122390   0.131381
     5  C   -0.089514   0.000011
     6  C   -0.090528   0.166101
     7  N    0.004225  -0.044161
     8  C    0.315868   0.082473
     9  C   -0.552351   0.109271
    10  C   -0.299105  -0.108356
    11  C    0.790669  -0.024383
    12  C   -0.654324   0.172247
    13  C   -0.321247  -0.011828
    14  C   -0.075932  -0.011024
    15  N   -0.255308   0.131284
    16  N   -0.055675   0.010779
    17  S    0.240870   0.030182
    18  O   -0.226087   0.003295
    19  O   -0.250467  -0.005547
    20  N   -0.318386  -0.003697
    21  H    0.027473   0.100633
    22  H    0.204320   0.007510
    23  H    0.209782  -0.005455
    24  H    0.182105   0.001886
    25  H    0.071277   0.198766
    26  H   -0.000003   0.099988
    27  H    0.131203  -0.010739
    28  H    0.160224   0.002602
    29  H    0.134742  -0.001052
    30  H    0.278406   0.004491
    31  H    0.258702   0.000362
    32  H    0.254796   0.014948
 Sum of Mulliken charges =  -1.00000   1.00000

 Dipole moment (field-independent basis, Debye):
    X=             -2.0215    Y=              1.1942    Z=              2.7763  Tot=              3.6360
 Quadrupole moment (field-independent basis, Debye-Ang):
   XX=           -239.8033   YY=           -134.3913   ZZ=           -132.7811
   XY=              3.3462   XZ=            -16.7416   YZ=              2.1583

 Summary of Natural Population Analysis:

                                       Natural Population
                Natural  -----------------------------------------------
    Atom  No    Charge         Core      Valence    Rydberg      Total
 -----------------------------------------------------------------------
      C    1   -0.12810      0.99954     2.11779    0.01078     3.12810
      C    2   -0.08181      0.99952     2.07303    0.00926     3.08181
      C    3   -0.14314      0.99936     2.12896    0.01482     3.14314
      C    4   -0.06040      0.99952     2.05143    0.00944     3.06040
      C    5   -0.13628      0.99954     2.12945    0.00729     3.13628
      C    6    0.14191      0.99950     1.84704    0.01155     2.85809
      N    7   -0.30333      0.99965     2.79428    0.00940     3.80333
      C    8    0.11433      0.99950     1.87453    0.01164     2.88567
      C    9   -0.10583      0.99949     2.09687    0.00947     3.10583
      C   10    0.07124      0.99950     1.91596    0.01330     2.92876
      C   11   -0.07054      0.99949     2.06354    0.00751     3.07054
      C   12   -0.05483      0.99954     2.04744    0.00784     3.05483
      C   13   -0.14125      0.99954     2.13413    0.00757     3.14125
      C   14   -0.01586      0.99961     2.00164    0.01460     3.01586
      N   15   -0.11241      0.99973     2.59962    0.01306     3.61241
      N   16   -0.18061      0.99965     2.66999    0.01097     3.68061
      S   17    1.09607      4.99926     1.80283    0.10184     6.90393
      O   18   -0.47183      0.99991     3.46636    0.00557     4.47183
      O   19   -0.46851      0.99991     3.46279    0.00581     4.46851
      N   20   -0.51412      0.99979     3.00395    0.01038     4.01412
      H   21    0.09717      0.00000     0.40180    0.00103     0.40283
      H   22    0.11037      0.00000     0.38870    0.00092     0.38963
      H   23    0.10447      0.00000     0.39443    0.00110     0.39553
      H   24    0.10868      0.00000     0.39019    0.00113     0.39132
      H   25    0.19207      0.00000     0.30480    0.00313     0.30793
      H   26    0.09641      0.00000     0.40252    0.00108     0.40359
      H   27    0.09329      0.00000     0.40533    0.00138     0.40671
      H   28    0.10444      0.00000     0.39452    0.00104     0.39556
      H   29    0.09189      0.00000     0.40717    0.00093     0.40811
      H   30    0.18945      0.00000     0.30753    0.00301     0.31055
      H   31    0.18793      0.00000     0.31023    0.00183     0.31207
      H   32    0.18911      0.00000     0.30870    0.00219     0.31089
 =======================================================================
   * Total *    0.00000     23.99155    50.69756    0.31089    75.00000

 Normal termination of Gaussian 16 at Mon Dec 14 14:54:00 2020.
