 Gaussian 16, Revision A.03,

 -----------------------------------------------------------
 # opt freq B3LYP/6-31G(d) empiricaldispersion=gd3bj scf=xqc
 -----------------------------------------------------------

 -------------------------------
 CID_110709231_JID_9377_neutraal
 -------------------------------
 Symbolic Z-matrix:
 Charge =  0 Multiplicity = 1

 SCF Done:  E(RB3LYP) =  -863.522104099     A.U. after   15 cycles
 SCF Done:  E(RB3LYP) =  -863.528386359     A.U. after   13 cycles
 SCF Done:  E(RB3LYP) =  -863.528722011     A.U. after   11 cycles
 SCF Done:  E(RB3LYP) =  -863.528994406     A.U. after   12 cycles
 SCF Done:  E(RB3LYP) =  -863.529128925     A.U. after   12 cycles
 SCF Done:  E(RB3LYP) =  -863.529244215     A.U. after   11 cycles
 SCF Done:  E(RB3LYP) =  -863.529451197     A.U. after   12 cycles
 SCF Done:  E(RB3LYP) =  -863.529592206     A.U. after   13 cycles
 SCF Done:  E(RB3LYP) =  -863.529796611     A.U. after   12 cycles
 SCF Done:  E(RB3LYP) =  -863.529745852     A.U. after   11 cycles
 SCF Done:  E(RB3LYP) =  -863.530612714     A.U. after    8 cycles
 SCF Done:  E(RB3LYP) =  -863.530612813     A.U. after    7 cycles
 SCF Done:  E(RB3LYP) =  -863.530612825     A.U. after    7 cycles
 SCF Done:  E(RB3LYP) =  -863.530612831     A.U. after    6 cycles
 Optimization completed.
    -- Stationary point found.
 Normal termination of Gaussian 16 at Sat Dec 12 10:06:18 2020.

 --------------------------------------------------------------------
 #N Geom=AllCheck Guess=TCheck SCRF=Check GenChk RB3LYP/6-31G(d) Freq
 --------------------------------------------------------------------

 Structure from the checkpoint file:  "JID_9377.chk"
 -------------------------------
 CID_110709231_JID_9377_neutraal
 -------------------------------
 Charge =  0 Multiplicity = 1

 SCF Done:  E(RB3LYP) =  -863.530612831     A.U. after    1 cycles

  Exact polarizability: 190.319  30.449 149.620   1.962  -9.455 148.433
 Approx polarizability: 258.361  54.611 225.789   9.039 -21.860 243.638

                      1                      2                      3
                      A                      A                      A
 Frequencies --     19.6990                24.3358                33.3387
 Red. masses --      4.6885                 5.3443                 6.2325
 Frc consts  --      0.0011                 0.0019                 0.0041
 IR Inten    --      0.6082                 0.5446                 2.3724

                      4                      5                      6
                      A                      A                      A
 Frequencies --     60.3595                71.3707                86.3248
 Red. masses --      3.6090                 3.5820                 2.6343
 Frc consts  --      0.0077                 0.0108                 0.0116
 IR Inten    --      2.7255                 0.3314                 0.2136

                      7                      8                      9
                      A                      A                      A
 Frequencies --    135.1940               175.6405               185.9893
 Red. masses --      4.3662                 3.9869                 3.1438
 Frc consts  --      0.0470                 0.0725                 0.0641
 IR Inten    --      2.2215                 0.2168                 3.2379

                     10                     11                     12
                      A                      A                      A
 Frequencies --    208.2407               239.3742               265.7150
 Red. masses --      3.1648                 2.6786                 3.7232
 Frc consts  --      0.0809                 0.0904                 0.1549
 IR Inten    --      0.7647                 0.4955                 1.9973

                     13                     14                     15
                      A                      A                      A
 Frequencies --    288.3687               307.9470               348.6595
 Red. masses --      3.2669                 2.9390                 3.4604
 Frc consts  --      0.1601                 0.1642                 0.2478
 IR Inten    --      3.3956                 2.3888                 3.5334

                     16                     17                     18
                      A                      A                      A
 Frequencies --    388.9294               418.8869               437.6864
 Red. masses --      3.5025                 2.9521                 6.7569
 Frc consts  --      0.3122                 0.3052                 0.7626
 IR Inten    --      2.5415                 3.7534                13.3881

                     19                     20                     21
                      A                      A                      A
 Frequencies --    468.8909               490.7003               515.7120
 Red. masses --      4.2537                 3.4971                 4.0854
 Frc consts  --      0.5510                 0.4961                 0.6402
 IR Inten    --      3.2481                 0.6196                 1.2928

                     22                     23                     24
                      A                      A                      A
 Frequencies --    557.6310               599.1146               602.6047
 Red. masses --      3.9021                 2.1367                 2.6346
 Frc consts  --      0.7149                 0.4519                 0.5637
 IR Inten    --      0.3871                14.3296                14.6918

                     25                     26                     27
                      A                      A                      A
 Frequencies --    611.2649               637.6795               655.9035
 Red. masses --      2.2392                 2.5613                 3.7745
 Frc consts  --      0.4930                 0.6136                 0.9567
 IR Inten    --      7.6148                 3.6291                42.0186

                     28                     29                     30
                      A                      A                      A
 Frequencies --    690.3422               730.0424               739.2162
 Red. masses --      3.2223                 4.1783                 4.1348
 Frc consts  --      0.9048                 1.3120                 1.3312
 IR Inten    --     54.4143                 3.8084                27.1017

                     31                     32                     33
                      A                      A                      A
 Frequencies --    761.4307               769.6131               785.2985
 Red. masses --      2.9325                 1.4243                 2.3247
 Frc consts  --      1.0017                 0.4970                 0.8447
 IR Inten    --     23.4347                34.2528                 0.1935

                     34                     35                     36
                      A                      A                      A
 Frequencies --    831.4608               861.1436               871.4253
 Red. masses --      3.9674                 2.0414                 1.4345
 Frc consts  --      1.6160                 0.8919                 0.6418
 IR Inten    --     10.6121                 4.1090                 3.0638

                     37                     38                     39
                      A                      A                      A
 Frequencies --    887.9814               921.0878               929.4210
 Red. masses --      2.0170                 1.8449                 2.3273
 Frc consts  --      0.9370                 0.9222                 1.1845
 IR Inten    --      5.0596                17.3755                 7.8303

                     40                     41                     42
                      A                      A                      A
 Frequencies --    935.1782               943.4556               967.1768
 Red. masses --      2.5288                 1.4191                 1.7761
 Frc consts  --      1.3030                 0.7442                 0.9789
 IR Inten    --      0.6966                 1.2607                 0.1576

                     43                     44                     45
                      A                      A                      A
 Frequencies --    973.6786               982.7526               999.2859
 Red. masses --      1.2377                 1.8920                 3.5264
 Frc consts  --      0.6913                 1.0766                 2.0747
 IR Inten    --      0.0458                 1.9915                21.9724

                     46                     47                     48
                      A                      A                      A
 Frequencies --   1027.7971              1051.1469              1069.2242
 Red. masses --      2.5493                 2.3637                 2.4039
 Frc consts  --      1.5867                 1.5387                 1.6192
 IR Inten    --      6.4229                18.2021                 0.6292

                     49                     50                     51
                      A                      A                      A
 Frequencies --   1079.5984              1095.9928              1109.0974
 Red. masses --      3.3591                 2.9504                 2.5592
 Frc consts  --      2.3067                 2.0881                 1.8548
 IR Inten    --     56.9535                34.3988                39.0895

                     52                     53                     54
                      A                      A                      A
 Frequencies --   1128.3113              1133.0404              1148.7400
 Red. masses --      2.5668                 2.2822                 2.2634
 Frc consts  --      1.9253                 1.7262                 1.7597
 IR Inten    --     48.1223                 4.2987                12.2243

                     55                     56                     57
                      A                      A                      A
 Frequencies --   1159.9548              1191.9090              1216.4693
 Red. masses --      2.0048                 1.1302                 1.4025
 Frc consts  --      1.5893                 0.9460                 1.2228
 IR Inten    --     21.3652                 0.8294                24.7665

                     58                     59                     60
                      A                      A                      A
 Frequencies --   1223.2363              1225.0240              1230.8635
 Red. masses --      1.4844                 1.6691                 1.5551
 Frc consts  --      1.3086                 1.4758                 1.3881
 IR Inten    --      3.9872                 1.5895                10.6867

                     61                     62                     63
                      A                      A                      A
 Frequencies --   1261.0946              1274.0198              1277.6433
 Red. masses --      1.7654                 1.2491                 1.6054
 Frc consts  --      1.6542                 1.1946                 1.5440
 IR Inten    --     54.7976                13.8972                41.2960

                     64                     65                     66
                      A                      A                      A
 Frequencies --   1297.8712              1318.2174              1325.4955
 Red. masses --      1.4835                 1.4539                 1.2909
 Frc consts  --      1.4724                 1.4885                 1.3363
 IR Inten    --     51.3283                13.8636                 1.9498

                     67                     68                     69
                      A                      A                      A
 Frequencies --   1331.8836              1343.8737              1353.5170
 Red. masses --      1.2084                 1.5560                 1.6039
 Frc consts  --      1.2630                 1.6557                 1.7313
 IR Inten    --      0.2855                50.7723                11.2919

                     70                     71                     72
                      A                      A                      A
 Frequencies --   1358.8417              1365.0713              1370.4135
 Red. masses --      1.3197                 1.9973                 1.3457
 Frc consts  --      1.4357                 2.1928                 1.4891
 IR Inten    --      1.0895                26.8496                23.0644

                     73                     74                     75
                      A                      A                      A
 Frequencies --   1389.8206              1404.1581              1409.1019
 Red. masses --      1.5640                 1.6226                 1.3899
 Frc consts  --      1.7800                 1.8849                 1.6260
 IR Inten    --     29.3857                29.9058                12.1951

                     76                     77                     78
                      A                      A                      A
 Frequencies --   1428.1898              1439.6679              1501.2412
 Red. masses --      1.4560                 1.7891                 2.1673
 Frc consts  --      1.7498                 2.1848                 2.8778
 IR Inten    --      6.4530                86.7724                23.0796

                     79                     80                     81
                      A                      A                      A
 Frequencies --   1508.8609              1513.4597              1519.7296
 Red. masses --      1.1186                 2.0083                 1.0915
 Frc consts  --      1.5005                 2.7104                 1.4853
 IR Inten    --      9.9764                70.9571                 1.7317

                     82                     83                     84
                      A                      A                      A
 Frequencies --   1531.1237              1534.3042              1537.8606
 Red. masses --      1.3544                 1.1221                 1.0884
 Frc consts  --      1.8708                 1.5564                 1.5167
 IR Inten    --      3.6463                15.1730                 0.9021

                     85                     86                     87
                      A                      A                      A
 Frequencies --   1545.6615              1550.1309              1637.8543
 Red. masses --      1.8328                 1.1032                 6.3338
 Frc consts  --      2.5799                 1.5619                10.0107
 IR Inten    --     50.9905                 2.2445                14.9269

                     88                     89                     90
                      A                      A                      A
 Frequencies --   1670.2893              1772.5303              2986.9745
 Red. masses --      6.1188                 7.4367                 1.0826
 Frc consts  --     10.0577                13.7664                 5.6906
 IR Inten    --     14.1500               414.6998                27.2401

                     91                     92                     93
                      A                      A                      A
 Frequencies --   3002.5224              3020.5157              3056.5226
 Red. masses --      1.0723                 1.0711                 1.0854
 Frc consts  --      5.6955                 5.7578                 5.9742
 IR Inten    --     78.1267                59.5967                35.3892

                     94                     95                     96
                      A                      A                      A
 Frequencies --   3066.3040              3068.7207              3072.1259
 Red. masses --      1.0610                 1.0737                 1.0632
 Frc consts  --      5.8775                 5.9574                 5.9122
 IR Inten    --     29.1579                40.1285                17.6563

                     97                     98                     99
                      A                      A                      A
 Frequencies --   3095.0189              3115.9549              3120.6623
 Red. masses --      1.0634                 1.1021                 1.0960
 Frc consts  --      6.0015                 6.3043                 6.2886
 IR Inten    --     20.8725                24.2275                20.7521

                    100                    101                    102
                      A                      A                      A
 Frequencies --   3125.8357              3127.7510              3141.2742
 Red. masses --      1.0986                 1.0956                 1.1064
 Frc consts  --      6.3247                 6.3151                 6.4321
 IR Inten    --     21.8383                40.3063                40.5598

                    103                    104                    105
                      A                      A                      A
 Frequencies --   3187.4154              3196.2201              3208.9002
 Red. masses --      1.0848                 1.0890                 1.0907
 Frc consts  --      6.4936                 6.5548                 6.6169
 IR Inten    --      0.2479                16.1009                 9.0832

                    106                    107                    108
                      A                      A                      A
 Frequencies --   3210.4074              3218.3976              3561.4853
 Red. masses --      1.0929                 1.0964                 1.0746
 Frc consts  --      6.6365                 6.6908                 8.0308
 IR Inten    --     25.0810                12.6012                11.5509

 - Thermochemistry -
 -------------------
 Temperature   298.150 Kelvin.  Pressure   1.00000 Atm.
 Atom     1 has atomic number  6 and mass  12.00000

 Molecular mass:   261.13649 amu.
 Principal axes and moments of inertia in atomic units:
                           1         2         3
     Eigenvalues --  2861.709757863.814588199.12491
           X            0.99987  -0.00544  -0.01513
           Y            0.00548   0.99998   0.00263
           Z            0.01512  -0.00271   0.99988
 This molecule is an asymmetric top.
 Rotational symmetry number  1.
 Warning -- assumption of classical behavior for rotation
           may cause significant error
 Rotational temperatures (Kelvin)      0.03027     0.01101     0.01056
 Rotational constants (GHZ):           0.63065     0.22950     0.22011
 Zero-point vibrational energy     854497.9 (Joules/Mol)
                                  204.22990 (Kcal/Mol)
 Warning -- explicit consideration of  25 degrees of freedom as
           vibrations may cause significant error
 Vibrational temperatures:     28.34    35.01    47.97    86.84   102.69
          (Kelvin)            124.20   194.51   252.71   267.60   299.61
                              344.41   382.30   414.90   443.07   501.64
                              559.58   602.68   629.73   674.63   706.01
                              741.99   802.31   861.99   867.01   879.47
                              917.48   943.70   993.25  1050.37  1063.57
                             1095.53  1107.30  1129.87  1196.29  1238.99
                             1253.79  1277.61  1325.24  1337.23  1345.51
                             1357.42  1391.55  1400.91  1413.96  1437.75
                             1478.77  1512.37  1538.38  1553.30  1576.89
                             1595.74  1623.39  1630.19  1652.78  1668.92
                             1714.89  1750.23  1759.96  1762.54  1770.94
                             1814.43  1833.03  1838.24  1867.35  1896.62
                             1907.09  1916.28  1933.53  1947.41  1955.07
                             1964.03  1971.72  1999.64  2020.27  2027.38
                             2054.85  2071.36  2159.95  2170.91  2177.53
                             2186.55  2202.95  2207.52  2212.64  2223.86
                             2230.29  2356.51  2403.17  2550.28  4297.59
                             4319.96  4345.85  4397.65  4411.73  4415.20
                             4420.10  4453.04  4483.16  4489.94  4497.38
                             4500.14  4519.59  4585.98  4598.65  4616.89
                             4619.06  4630.56  5124.18

 Zero-point correction=                           0.325461 (Hartree/Particle)
 Thermal correction to Energy=                    0.342112
 Thermal correction to Enthalpy=                  0.343057
 Thermal correction to Gibbs Free Energy=         0.278525
 Sum of electronic and zero-point Energies=           -863.205152
 Sum of electronic and thermal Energies=              -863.188500
 Sum of electronic and thermal Enthalpies=            -863.187556
 Sum of electronic and thermal Free Energies=         -863.252087

                     E (Thermal)             CV                S
                      KCal/Mol        Cal/Mol-Kelvin    Cal/Mol-Kelvin
 Total                  214.679             64.703            135.817
 Electronic               0.000              0.000              0.000
 Translational            0.889              2.981             42.579
 Rotational               0.889              2.981             33.578
 Vibrational            212.901             58.742             59.660
 Vibration     1          0.593              1.986              6.664
 Vibration     2          0.593              1.985              6.245
 Vibration     3          0.594              1.983              5.620
 Vibration     4          0.597              1.973              4.445
 Vibration     5          0.598              1.968              4.115
 Vibration     6          0.601              1.959              3.742
 Vibration     7          0.613              1.918              2.871
 Vibration     8          0.628              1.872              2.374
 Vibration     9          0.632              1.859              2.267
 Vibration    10          0.642              1.828              2.059
 Vibration    11          0.657              1.780              1.808
 Vibration    12          0.672              1.736              1.624
 Vibration    13          0.685              1.695              1.484
 Vibration    14          0.698              1.659              1.373
 Vibration    15          0.726              1.578              1.172
 Vibration    16          0.757              1.494              1.004
 Vibration    17          0.782              1.429              0.896
 Vibration    18          0.798              1.388              0.834
 Vibration    19          0.826              1.319              0.741
 Vibration    20          0.846              1.271              0.682
 Vibration    21          0.871              1.215              0.620
 Vibration    22          0.913              1.123              0.529
 Vibration    23          0.957              1.034              0.451
 Vibration    24          0.961              1.026              0.445
 Vibration    25          0.970              1.008              0.431

 Optimization completed.
    -- Stationary point found.
 Normal termination of Gaussian 16 at Sat Dec 12 10:27:18 2020.

 ----------------------------------------------------------------------
 # B3LYP/6-311++G(d,p) empiricaldispersion=gd3bj scf=xqc pop=npa geom=c
 heck
 ----------------------------------------------------------------------

 ---------------------------------------
 CID_110709231_JID_9377_Energie_neutraal
 ---------------------------------------
 Structure from the checkpoint file:  "JID_9377.chk"
 Charge =  0 Multiplicity = 1

 SCF Done:  E(RB3LYP) =  -863.770733904     A.U. after   16 cycles
 Normal termination of Gaussian 16 at Sat Dec 12 10:36:41 2020.

 ----------------------------------------------------------------------
 # B3LYP/6-311++G(d,p) empiricaldispersion=gd3bj scf=xqc pop=npa geom=c
 heck
 ----------------------------------------------------------------------

 -------------------------------------
 CID_110709231_JID_9377_Energie_kation
 -------------------------------------
 Structure from the checkpoint file:  "JID_9377.chk"
 Charge =  1 Multiplicity = 2

 SCF Done:  E(UB3LYP) =  -863.476588302     A.U. after   33 cycles
 SCF Done:  E(UB3LYP) =  -863.476588303     a.u. after    2 cycles
 Normal termination of Gaussian 16 at Sat Dec 12 11:29:02 2020.
 Gaussian 16:  ES64L-G16RevA.03 25-Dec-2016

 ----------------------------------------------------------------------
 # B3LYP/6-311++G(d,p) empiricaldispersion=gd3bj scf=xqc pop=npa geom=c
 heck
 ----------------------------------------------------------------------

 ------------------------------------
 CID_110709231_JID_9377_Energie_anion
 ------------------------------------
 Structure from the checkpoint file:  "JID_9377.chk"
 Charge = -1 Multiplicity = 2

                         Standard orientation:
 ---------------------------------------------------------------------
 Center     Atomic      Atomic             Coordinates (Angstroms)
 Number     Number       Type             X           Y           Z
 ---------------------------------------------------------------------
      1          6           0       -2.067633    1.456080    1.833111
      2          6           0       -2.932528    0.232024    1.471588
      3          6           0       -3.234431    0.430291   -0.048044
      4          8           0       -2.559107    1.622564   -0.449298
      5          6           0       -2.408827    2.439299    0.711313
      6          6           0       -2.886321   -0.797502   -0.890473
      7          8           0       -3.740071   -1.672032   -1.005680
      8          7           0       -1.659516   -0.936617   -1.475026
      9          6           0       -0.425514   -0.176779   -1.333973
     10          6           0        0.711886   -1.031032   -0.736065
     11          6           0        0.289355   -1.639359    0.608753
     12          6           0        1.503130   -2.171399    1.348951
     13          8           0        2.408905   -1.111734    1.664264
     14          6           0        2.735737   -0.286752    0.621353
     15          6           0        3.873468    0.506486    0.806099
     16          6           0        4.297726    1.363663   -0.201797
     17          6           0        3.594380    1.423534   -1.407287
     18          6           0        2.456980    0.638859   -1.576726
     19          6           0        1.988570   -0.216445   -0.568919
     20          1           0       -2.285439    1.851653    2.829295
     21          1           0       -1.001296    1.207847    1.794995
     22          1           0       -3.868021    0.221990    2.036763
     23          1           0       -2.423635   -0.714087    1.669658
     24          1           0       -4.313871    0.556887   -0.192724
     25          1           0       -3.347890    2.974197    0.925997
     26          1           0       -1.627422    3.173627    0.499755
     27          1           0       -1.601875   -1.803645   -1.999168
     28          1           0       -0.133577    0.208540   -2.316925
     29          1           0       -0.621373    0.685968   -0.703796
     30          1           0        0.913216   -1.859401   -1.434722
     31          1           0       -0.449367   -2.432959    0.460340
     32          1           0       -0.179813   -0.868437    1.231993
     33          1           0        1.235884   -2.618714    2.309045
     34          1           0        2.027512   -2.927498    0.745494
     35          1           0        4.410159    0.420894    1.745471
     36          1           0        5.184269    1.973291   -0.052143
     37          1           0        3.927516    2.076879   -2.207866
     38          1           0        1.917949    0.693101   -2.517876
 ---------------------------------------------------------------------

 SCF Done:  E(UB3LYP) =  -863.761558649     A.U. after   33 cycles
 SCF Done:  E(UB3LYP) =  -863.761558649     a.u. after    1 cycles

 The electronic state is 2-A.
 Alpha  occ. eigenvalues --  -19.05770 -19.04212 -18.99356 -14.24444 -10.18124
 Alpha  occ. eigenvalues --  -10.14133 -10.13931 -10.13466 -10.13132 -10.11333
 Alpha  occ. eigenvalues --  -10.09433 -10.08990 -10.08669 -10.08615 -10.08182
 Alpha  occ. eigenvalues --  -10.08165 -10.07997 -10.07756 -10.07711  -0.97657
 Alpha  occ. eigenvalues --   -0.96486  -0.94271  -0.83091  -0.76454  -0.72519
 Alpha  occ. eigenvalues --   -0.70046  -0.67144  -0.66732  -0.64973  -0.62406
 Alpha  occ. eigenvalues --   -0.56282  -0.54601  -0.53844  -0.51762  -0.51113
 Alpha  occ. eigenvalues --   -0.48954  -0.46853  -0.43478  -0.42337  -0.41214
 Alpha  occ. eigenvalues --   -0.40976  -0.40652  -0.38597  -0.37132  -0.36926
 Alpha  occ. eigenvalues --   -0.35897  -0.35332  -0.34636  -0.33860  -0.33479
 Alpha  occ. eigenvalues --   -0.32230  -0.31701  -0.30907  -0.30613  -0.29572
 Alpha  occ. eigenvalues --   -0.28796  -0.27399  -0.27304  -0.26355  -0.25669
 Alpha  occ. eigenvalues --   -0.24978  -0.24680  -0.24023  -0.23262  -0.21825
 Alpha  occ. eigenvalues --   -0.18149  -0.16758  -0.16138  -0.15743  -0.13180
 Alpha  occ. eigenvalues --    0.03940
 Alpha virt. eigenvalues --    0.05532   0.06427   0.06802   0.07452   0.08117
 Alpha virt. eigenvalues --    0.08214   0.08636   0.08820   0.09170   0.09301
 Alpha virt. eigenvalues --    0.10225   0.10362   0.11016   0.11180   0.11419

  Beta  occ. eigenvalues --  -19.05771 -19.04210 -18.99351 -14.24426 -10.18123
  Beta  occ. eigenvalues --  -10.14126 -10.13935 -10.13448 -10.13111 -10.11323
  Beta  occ. eigenvalues --  -10.09417 -10.08975 -10.08648 -10.08555 -10.08164
  Beta  occ. eigenvalues --  -10.08111 -10.07954 -10.07765 -10.07685  -0.97651
  Beta  occ. eigenvalues --   -0.96478  -0.94261  -0.83063  -0.76372  -0.72462
  Beta  occ. eigenvalues --   -0.70016  -0.67096  -0.66690  -0.64886  -0.62363
  Beta  occ. eigenvalues --   -0.56240  -0.54546  -0.53763  -0.51704  -0.51050
  Beta  occ. eigenvalues --   -0.48918  -0.46797  -0.43442  -0.42307  -0.41170
  Beta  occ. eigenvalues --   -0.40931  -0.40607  -0.38558  -0.37103  -0.36883
  Beta  occ. eigenvalues --   -0.35862  -0.35288  -0.34596  -0.33828  -0.33443
  Beta  occ. eigenvalues --   -0.32198  -0.31667  -0.30861  -0.30580  -0.29503
  Beta  occ. eigenvalues --   -0.28744  -0.27361  -0.27274  -0.26325  -0.25589
  Beta  occ. eigenvalues --   -0.24943  -0.24628  -0.23992  -0.23219  -0.21767
  Beta  occ. eigenvalues --   -0.18128  -0.16679  -0.16100  -0.15503  -0.13057
  Beta virt. eigenvalues --    0.06069   0.06600   0.06872   0.07171   0.07872
  Beta virt. eigenvalues --    0.08422   0.08565   0.08919   0.09120   0.09523
  Beta virt. eigenvalues --    0.09577   0.10320   0.10654   0.11086   0.11321

 Mulliken charges and spin densities:
               1          2
     1  C    0.407020  -0.700921
     2  C   -0.121801  -0.139557
     3  C    0.441746  -0.419705
     4  O   -0.063667  -0.016202
     5  C    0.014413  -0.298925
     6  C   -0.409249   0.255754
     7  O   -0.318428   0.009570
     8  N   -0.360507   0.318114
     9  C    0.859978  -1.756673
    10  C    1.340758  -0.710473
    11  C   -1.196478   0.702186
    12  C    0.323134  -0.908326
    13  O   -0.074834  -0.001164
    14  C   -1.112279   0.176086
    15  C   -0.908706   0.748844
    16  C    0.026811  -0.369566
    17  C    0.046023  -0.455947
    18  C   -0.398065   0.383661
    19  C    0.896456   0.252333
    20  H   -0.460676   0.639648
    21  H    0.076192   0.047878
    22  H   -0.276906   0.472980
    23  H   -0.054565   0.204018
    24  H    0.094465   0.149061
    25  H   -0.289135   0.425699
    26  H    0.020858   0.157549
    27  H    0.011515   0.296966
    28  H    0.134711   0.030715
    29  H    0.853646  -0.598236
    30  H   -0.450913   0.694030
    31  H    0.047148   0.181283
    32  H    0.479330  -0.305546
    33  H   -0.164915   0.350714
    34  H   -0.135968   0.311722
    35  H    0.047428   0.119008
    36  H    0.047613   0.084826
    37  H   -0.052159   0.207340
    38  H   -0.319994   0.461255
 Sum of Mulliken charges =  -1.00000   1.00000

 Dipole moment (field-independent basis, Debye):
    X=              3.1634    Y=              1.8593    Z=              0.3334  Tot=              3.6844
 Quadrupole moment (field-independent basis, Debye-Ang):
   XX=           -191.1276   YY=           -161.5448   ZZ=           -157.7401
   XY=              2.3230   XZ=              7.2473   YZ=            -10.4995

 Summary of Natural Population Analysis:

                                       Natural Population
                Natural  -----------------------------------------------
    Atom  No    Charge         Core      Valence    Rydberg      Total
 -----------------------------------------------------------------------
      C    1   -0.20702      0.99964     2.19971    0.00767     3.20702
      C    2   -0.20032      0.99962     2.19229    0.00841     3.20032
      C    3    0.02883      0.99953     1.95730    0.01434     2.97117
      O    4   -0.30266      0.99989     3.29446    0.00831     4.30266
      C    5   -0.01121      0.99960     1.99923    0.01238     3.01121
      C    6    0.33740      0.99963     1.64105    0.02191     2.66260
      O    7   -0.32796      0.99988     3.32246    0.00562     4.32796
      N    8   -0.31098      0.99967     2.80115    0.01017     3.81098
      C    9   -0.08493      0.99958     2.07375    0.01161     3.08493
      C   10   -0.11728      0.99956     2.10539    0.01233     3.11728
      C   11   -0.20627      0.99961     2.19826    0.00840     3.20627
      C   12   -0.00565      0.99956     1.99412    0.01198     3.00565
      O   13   -0.27930      0.99986     3.27086    0.00858     4.27930
      C   14    0.15992      0.99933     1.82775    0.01299     2.84008
      C   15   -0.11725      0.99952     2.10855    0.00917     3.11725
      C   16   -0.09156      0.99957     2.08256    0.00942     3.09156
      C   17   -0.11784      0.99956     2.10882    0.00945     3.11784
      C   18   -0.08518      0.99953     2.07591    0.00974     3.08518
      C   19   -0.03933      0.99947     2.02989    0.00997     3.03933
      H   20    0.10708      0.00000     0.39110    0.00181     0.39292
      H   21    0.09874      0.00000     0.39954    0.00172     0.40126
      H   22    0.10490      0.00000     0.39379    0.00132     0.39510
      H   23    0.10573      0.00000     0.39305    0.00122     0.39427
      H   24    0.09726      0.00000     0.40135    0.00139     0.40274
      H   25    0.08045      0.00000     0.41804    0.00151     0.41955
      H   26    0.09294      0.00000     0.40609    0.00097     0.40706
      H   27    0.19426      0.00000     0.30297    0.00276     0.30574
      H   28    0.09539      0.00000     0.40329    0.00132     0.40461
      H   29    0.11138      0.00000     0.38570    0.00292     0.38862
      H   30    0.10635      0.00000     0.38932    0.00433     0.39365
      H   31    0.10997      0.00000     0.38867    0.00136     0.39003
      H   32    0.09766      0.00000     0.39985    0.00248     0.40234
      H   33    0.09266      0.00000     0.40623    0.00111     0.40734
      H   34    0.08448      0.00000     0.41397    0.00155     0.41552
      H   35    0.10305      0.00000     0.39560    0.00135     0.39695
      H   36    0.09717      0.00000     0.40207    0.00076     0.40283
      H   37    0.09892      0.00000     0.40027    0.00081     0.40108
      H   38    0.10017      0.00000     0.39854    0.00129     0.39983
 =======================================================================
   * Total *   -0.00000     18.99261    50.77296    0.23443    70.00000

 Normal termination of Gaussian 16 at Sat Dec 12 11:58:02 2020.
