 Gaussian 16, Revision A.03,

 -----------------------------------------------------------
 # opt freq B3LYP/6-31G(d) empiricaldispersion=gd3bj scf=xqc
 -----------------------------------------------------------

 -------------------------------
 CID_117219438_JID_4620_neutraal
 -------------------------------
 Symbolic Z-matrix:
 Charge =  0 Multiplicity = 1

 SCF Done:  E(RB3LYP) =  -1049.25897929     A.U. after   15 cycles
 SCF Done:  E(RB3LYP) =  -1049.25866624     A.U. after   13 cycles
 SCF Done:  E(RB3LYP) =  -1049.26382398     A.U. after   13 cycles
 SCF Done:  E(RB3LYP) =  -1049.26479162     A.U. after   12 cycles
 SCF Done:  E(RB3LYP) =  -1049.26512551     A.U. after   12 cycles
 SCF Done:  E(RB3LYP) =  -1049.26532816     A.U. after   11 cycles
 SCF Done:  E(RB3LYP) =  -1049.26536604     A.U. after   11 cycles
 SCF Done:  E(RB3LYP) =  -1049.26538138     A.U. after   10 cycles
 SCF Done:  E(RB3LYP) =  -1049.26538541     A.U. after    9 cycles
 SCF Done:  E(RB3LYP) =  -1049.26538629     A.U. after    8 cycles
 SCF Done:  E(RB3LYP) =  -1049.26538640     A.U. after    7 cycles
 Optimization completed.
    -- Stationary point found.
 Normal termination of Gaussian 16 at Thu Dec 10 10:12:35 2020.

 --------------------------------------------------------------------
 #N Geom=AllCheck Guess=TCheck SCRF=Check GenChk RB3LYP/6-31G(d) Freq
 --------------------------------------------------------------------

 Structure from the checkpoint file:  "JID_4620.chk"
 -------------------------------
 CID_117219438_JID_4620_neutraal
 -------------------------------
 Charge =  0 Multiplicity = 1

 SCF Done:  E(RB3LYP) =  -1049.26538640     A.U. after    1 cycles

  Exact polarizability: 160.490   6.281 123.442 -11.378   7.218  80.362
 Approx polarizability: 237.266  15.511 209.247 -30.343  22.164 130.428

                      1                      2                      3
                      A                      A                      A
 Frequencies --     33.7973                57.6397                94.0725
 Red. masses --      4.7664                 6.4665                 2.5678
 Frc consts  --      0.0032                 0.0127                 0.0134
 IR Inten    --      1.4840                 0.1267                 0.3618

                      4                      5                      6
                      A                      A                      A
 Frequencies --    130.1508               174.0768               195.2811
 Red. masses --      3.4246                 2.9894                 5.1703
 Frc consts  --      0.0342                 0.0534                 0.1162
 IR Inten    --      2.5893                 0.8819                 2.6127

                      7                      8                      9
                      A                      A                      A
 Frequencies --    213.4228               233.4671               239.8189
 Red. masses --      1.8622                 5.4462                 3.8310
 Frc consts  --      0.0500                 0.1749                 0.1298
 IR Inten    --      1.8385                 6.7538                 0.5714

                     10                     11                     12
                      A                      A                      A
 Frequencies --    277.7514               308.5735               339.6926
 Red. masses --      3.8498                 2.6559                 4.3465
 Frc consts  --      0.1750                 0.1490                 0.2955
 IR Inten    --      9.1119                 0.2702                 0.2012

                     13                     14                     15
                      A                      A                      A
 Frequencies --    357.7499               372.0458               383.7019
 Red. masses --      5.3978                 1.1121                 5.7597
 Frc consts  --      0.4070                 0.0907                 0.4996
 IR Inten    --      6.0337               110.2768                14.7565

                     16                     17                     18
                      A                      A                      A
 Frequencies --    440.7316               469.1670               485.8258
 Red. masses --      3.3437                 3.4154                 6.2254
 Frc consts  --      0.3827                 0.4429                 0.8657
 IR Inten    --     23.7703                 9.3324                40.5074

                     19                     20                     21
                      A                      A                      A
 Frequencies --    518.7949               542.6406               580.6502
 Red. masses --      4.5014                 5.6163                 5.5251
 Frc consts  --      0.7138                 0.9744                 1.0975
 IR Inten    --     15.0901                 5.3970                 3.2964

                     22                     23                     24
                      A                      A                      A
 Frequencies --    623.9897               645.3729               648.0493
 Red. masses --      4.1644                 3.0137                 1.1635
 Frc consts  --      0.9553                 0.7396                 0.2879
 IR Inten    --      9.2565                27.9863                54.5804

                     25                     26                     27
                      A                      A                      A
 Frequencies --    710.1529               754.3445               759.3104
 Red. masses --      4.0924                 2.1042                 6.0918
 Frc consts  --      1.2160                 0.7055                 2.0694
 IR Inten    --     28.8447                 2.9397                 1.2374

                     28                     29                     30
                      A                      A                      A
 Frequencies --    782.2889               808.4133               812.4555
 Red. masses --      1.6927                 1.9416                 3.0137
 Frc consts  --      0.6103                 0.7476                 1.1720
 IR Inten    --      8.6211                70.5564                 7.1791

                     31                     32                     33
                      A                      A                      A
 Frequencies --    866.9866               906.7263               925.5210
 Red. masses --      1.4100                 1.7773                 1.3999
 Frc consts  --      0.6245                 0.8609                 0.7065
 IR Inten    --     21.2614                 9.2542                14.9022

                     34                     35                     36
                      A                      A                      A
 Frequencies --    995.6882              1001.3416              1064.3021
 Red. masses --      1.7323                 3.0503                 2.2244
 Frc consts  --      1.0118                 1.8020                 1.4846
 IR Inten    --      1.5149                30.9403                46.3862

                     37                     38                     39
                      A                      A                      A
 Frequencies --   1087.3742              1091.7688              1141.3482
 Red. masses --      2.3886                 2.0290                 1.8020
 Frc consts  --      1.6640                 1.4249                 1.3831
 IR Inten    --     30.7649                37.6420                93.7576

                     40                     41                     42
                      A                      A                      A
 Frequencies --   1187.9030              1189.8920              1218.1350
 Red. masses --      1.1881                 1.4380                 1.8938
 Frc consts  --      0.9878                 1.1996                 1.6556
 IR Inten    --      4.4463               168.3151                 8.9211

                     43                     44                     45
                      A                      A                      A
 Frequencies --   1252.3287              1261.1958              1278.4167
 Red. masses --      1.7795                 2.8859                 1.2569
 Frc consts  --      1.6443                 2.7046                 1.2103
 IR Inten    --     33.2046               194.4818                 4.7180

                     46                     47                     48
                      A                      A                      A
 Frequencies --   1306.7936              1315.6907              1334.4375
 Red. masses --      1.8005                 1.8660                 1.4489
 Frc consts  --      1.8116                 1.9031                 1.5202
 IR Inten    --      6.6601                41.5522                10.5276

                     49                     50                     51
                      A                      A                      A
 Frequencies --   1351.9220              1369.0350              1423.3895
 Red. masses --      3.1925                 3.2421                 1.6624
 Frc consts  --      3.4378                 3.5802                 1.9844
 IR Inten    --     87.8258                50.2812               158.4852

                     52                     53                     54
                      A                      A                      A
 Frequencies --   1440.2025              1477.5282              1483.3281
 Red. masses --      1.2172                 1.1284                 1.0957
 Frc consts  --      1.4875                 1.4513                 1.4204
 IR Inten    --      5.1422                11.0984                 9.6580

                     55                     56                     57
                      A                      A                      A
 Frequencies --   1525.2641              1529.8836              1531.8593
 Red. masses --      1.0859                 2.8146                 1.0564
 Frc consts  --      1.4884                 3.8813                 1.4606
 IR Inten    --      4.0091                63.5101                 4.4416

                     58                     59                     60
                      A                      A                      A
 Frequencies --   1556.6925              1638.4527              1689.3776
 Red. masses --      2.9378                 5.6929                 6.0500
 Frc consts  --      4.1945                 9.0043                10.1732
 IR Inten    --     61.5513                99.4871               165.9139

                     61                     62                     63
                      A                      A                      A
 Frequencies --   3069.9962              3073.8335              3094.0588
 Red. masses --      1.0364                 1.0626                 1.0606
 Frc consts  --      5.7551                 5.9155                 5.9819
 IR Inten    --     12.2605                 6.5590                 2.7431

                     64                     65                     66
                      A                      A                      A
 Frequencies --   3134.8099              3147.1679              3147.7135
 Red. masses --      1.1014                 1.1048                 1.1016
 Frc consts  --      6.3773                 6.4470                 6.4311
 IR Inten    --     17.1905                 1.0385                 1.3470

                     67                     68                     69
                      A                      A                      A
 Frequencies --   3162.8013              3174.2419              3191.1365
 Red. masses --      1.1044                 1.0868                 1.0948
 Frc consts  --      6.5093                 6.4515                 6.5684
 IR Inten    --      8.0386                13.0262                15.8473

                     70                     71                     72
                      A                      A                      A
 Frequencies --   3237.9287              3471.1914              3752.3465
 Red. masses --      1.0917                 1.0674                 1.0660
 Frc consts  --      6.7433                 7.5777                 8.8429
 IR Inten    --      0.4086               511.0069                52.2551

 - Thermochemistry -
 -------------------
 Temperature   298.150 Kelvin.  Pressure   1.00000 Atm.
 Atom     1 has atomic number  6 and mass  12.00000

 Molecular mass:   216.04563 amu.
 Principal axes and moments of inertia in atomic units:
                           1         2         3
     Eigenvalues --  1509.389284703.617615539.34338
           X            0.99991  -0.01298   0.00302
           Y            0.01301   0.99987  -0.00943
           Z           -0.00290   0.00947   0.99995
 This molecule is an asymmetric top.
 Rotational symmetry number  1.
 Warning -- assumption of classical behavior for rotation
           may cause significant error
 Rotational temperatures (Kelvin)      0.05738     0.01841     0.01564
 Rotational constants (GHZ):           1.19568     0.38369     0.32580
 Zero-point vibrational energy     538878.4 (Joules/Mol)
                                  128.79504 (Kcal/Mol)
 Warning -- explicit consideration of  21 degrees of freedom as
           vibrations may cause significant error
 Vibrational temperatures:     48.63    82.93   135.35   187.26   250.46
          (Kelvin)            280.97   307.07   335.91   345.05   399.62
                              443.97   488.74   514.72   535.29   552.06
                              634.11   675.03   698.99   746.43   780.74
                              835.43   897.78   928.55   932.40  1021.75
                             1085.33  1092.48  1125.54  1163.13  1168.94
                             1247.40  1304.58  1331.62  1432.57  1440.71
                             1531.29  1564.49  1570.81  1642.15  1709.13
                             1711.99  1752.62  1801.82  1814.58  1839.36
                             1880.18  1892.99  1919.96  1945.11  1969.74
                             2047.94  2072.13  2125.83  2134.18  2194.51
                             2201.16  2204.00  2239.73  2357.37  2430.64
                             4417.04  4422.56  4451.66  4510.29  4528.07
                             4528.86  4550.57  4567.03  4591.33  4658.66
                             4994.27  5398.79

 Zero-point correction=                           0.205248 (Hartree/Particle)
 Thermal correction to Energy=                    0.218961
 Thermal correction to Enthalpy=                  0.219905
 Thermal correction to Gibbs Free Energy=         0.164745
 Sum of electronic and zero-point Energies=          -1049.060138
 Sum of electronic and thermal Energies=             -1049.046425
 Sum of electronic and thermal Enthalpies=           -1049.045481
 Sum of electronic and thermal Free Energies=        -1049.100642

                     E (Thermal)             CV                S
                      KCal/Mol        Cal/Mol-Kelvin    Cal/Mol-Kelvin
 Total                  137.400             52.819            116.095
 Electronic               0.000              0.000              0.000
 Translational            0.889              2.981             42.014
 Rotational               0.889              2.981             32.042
 Vibrational            135.623             46.857             42.039
 Vibration     1          0.594              1.983              5.593
 Vibration     2          0.596              1.974              4.536
 Vibration     3          0.603              1.953              3.574
 Vibration     4          0.612              1.923              2.944
 Vibration     5          0.627              1.874              2.391
 Vibration     6          0.636              1.846              2.177
 Vibration     7          0.644              1.820              2.014
 Vibration     8          0.654              1.790              1.852
 Vibration     9          0.657              1.780              1.804
 Vibration    10          0.679              1.715              1.547
 Vibration    11          0.698              1.657              1.370
 Vibration    12          0.720              1.596              1.214
 Vibration    13          0.733              1.559              1.132
 Vibration    14          0.744              1.530              1.071
 Vibration    15          0.753              1.505              1.025
 Vibration    16          0.801              1.381              0.824
 Vibration    17          0.826              1.318              0.740
 Vibration    18          0.842              1.281              0.695
 Vibration    19          0.874              1.208              0.613
 Vibration    20          0.898              1.156              0.560
 Vibration    21          0.937              1.073              0.484

 Optimization completed.
    -- Stationary point found.
 Normal termination of Gaussian 16 at Thu Dec 10 10:20:33 2020.

 ----------------------------------------------------------------------
 # B3LYP/6-311++G(d,p) empiricaldispersion=gd3bj scf=xqc pop=npa geom=c
 heck
 ----------------------------------------------------------------------

 ---------------------------------------
 CID_117219438_JID_4620_Energie_neutraal
 ---------------------------------------
 Structure from the checkpoint file:  "JID_4620.chk"
 Charge =  0 Multiplicity = 1

 SCF Done:  E(RB3LYP) =  -1049.49397062     A.U. after   15 cycles
 Normal termination of Gaussian 16 at Thu Dec 10 10:24:13 2020.

 ----------------------------------------------------------------------
 # B3LYP/6-311++G(d,p) empiricaldispersion=gd3bj scf=xqc pop=npa geom=c
 heck
 ----------------------------------------------------------------------

 -------------------------------------
 CID_117219438_JID_4620_Energie_kation
 -------------------------------------
 Structure from the checkpoint file:  "JID_4620.chk"
 Charge =  1 Multiplicity = 2

 SCF Done:  E(UB3LYP) =  -1049.18839609     A.U. after   22 cycles
 Normal termination of Gaussian 16 at Thu Dec 10 10:31:50 2020.
 Gaussian 16:  ES64L-G16RevA.03 25-Dec-2016

 ----------------------------------------------------------------------
 # B3LYP/6-311++G(d,p) empiricaldispersion=gd3bj scf=xqc pop=npa geom=c
 heck
 ----------------------------------------------------------------------

 ------------------------------------
 CID_117219438_JID_4620_Energie_anion
 ------------------------------------
 Structure from the checkpoint file:  "JID_4620.chk"
 Charge = -1 Multiplicity = 2

                         Standard orientation:
 ---------------------------------------------------------------------
 Center     Atomic      Atomic             Coordinates (Angstroms)
 Number     Number       Type             X           Y           Z
 ---------------------------------------------------------------------
      1          6           0       -2.248906    2.392672   -0.509052
      2          6           0       -1.908991    1.053117   -1.150471
      3         16           0       -2.160969   -0.349747   -0.027867
      4          8           0       -3.476841   -0.224624    0.617543
      5          8           0       -1.838112   -1.578930   -0.801593
      6          6           0       -0.854976   -0.195042    1.248632
      7          6           0        0.528585   -0.024306    0.701981
      8          6           0        1.230639   -1.102895    0.111441
      9          6           0        2.556320   -0.937884   -0.291630
     10          6           0        3.189283    0.294965   -0.140854
     11          6           0        2.500746    1.383118    0.411233
     12          6           0        1.185974    1.205016    0.825570
     13          8           0        4.482645    0.386696   -0.564091
     14          8           0        0.682467   -2.332795   -0.045588
     15          1           0       -3.265996    2.383500   -0.109179
     16          1           0       -2.174028    3.186301   -1.258919
     17          1           0       -1.556555    2.635530    0.302852
     18          1           0       -2.564410    0.818203   -1.995006
     19          1           0       -0.871316    0.989515   -1.486990
     20          1           0       -1.153435    0.638973    1.887679
     21          1           0       -0.976758   -1.125530    1.816020
     22          1           0        3.084294   -1.772088   -0.738201
     23          1           0        2.992203    2.345553    0.529912
     24          1           0        0.660138    2.038057    1.285912
     25          1           0        4.800697    1.289953   -0.411676
     26          1           0       -0.272660   -2.247355   -0.267800
 ---------------------------------------------------------------------

 SCF Done:  E(UB3LYP) =  -1049.48974182     A.U. after   33 cycles
 SCF Done:  E(UB3LYP) =  -1049.48974182     a.u. after    1 cycles

 The electronic state is 2-A.
 Alpha  occ. eigenvalues --  -88.96191 -19.06010 -19.05151 -19.03982 -19.03579
 Alpha  occ. eigenvalues --  -10.15136 -10.14917 -10.13651 -10.12921 -10.09843
 Alpha  occ. eigenvalues --  -10.09329 -10.08942 -10.07723 -10.07675  -8.02795
 Alpha  occ. eigenvalues --   -5.99068  -5.98924  -5.98861  -1.02703  -0.97201
 Alpha  occ. eigenvalues --   -0.96796  -0.92459  -0.77226  -0.73045  -0.70283
 Alpha  occ. eigenvalues --   -0.65954  -0.63067  -0.59157  -0.54352  -0.52857
 Alpha  occ. eigenvalues --   -0.50099  -0.47807  -0.43970  -0.42304  -0.41594
 Alpha  occ. eigenvalues --   -0.40739  -0.38637  -0.37139  -0.36926  -0.35277
 Alpha  occ. eigenvalues --   -0.34872  -0.33392  -0.33013  -0.32111  -0.31047
 Alpha  occ. eigenvalues --   -0.30553  -0.29087  -0.28752  -0.27535  -0.25979
 Alpha  occ. eigenvalues --   -0.25551  -0.24250  -0.23050  -0.22660  -0.21030
 Alpha  occ. eigenvalues --   -0.15200  -0.13384   0.03830
 Alpha virt. eigenvalues --    0.06012   0.06738   0.07690   0.07976   0.08228
 Alpha virt. eigenvalues --    0.09407   0.09724   0.10162   0.10584   0.10999
 Alpha virt. eigenvalues --    0.12171   0.12848   0.13356   0.13595   0.14413

  Beta  occ. eigenvalues --  -88.96189 -19.05958 -19.05150 -19.03981 -19.03571
  Beta  occ. eigenvalues --  -10.15135 -10.14912 -10.13634 -10.12903 -10.09841
  Beta  occ. eigenvalues --  -10.09302 -10.08886 -10.07683 -10.07665  -8.02791
  Beta  occ. eigenvalues --   -5.99066  -5.98920  -5.98860  -1.02693  -0.97111
  Beta  occ. eigenvalues --   -0.96785  -0.92448  -0.77193  -0.73006  -0.70243
  Beta  occ. eigenvalues --   -0.65908  -0.63016  -0.59073  -0.54285  -0.52809
  Beta  occ. eigenvalues --   -0.50052  -0.47743  -0.43937  -0.42281  -0.41551
  Beta  occ. eigenvalues --   -0.40695  -0.38596  -0.37109  -0.36898  -0.35222
  Beta  occ. eigenvalues --   -0.34832  -0.33352  -0.32954  -0.32082  -0.30998
  Beta  occ. eigenvalues --   -0.30500  -0.29034  -0.28706  -0.27498  -0.25944
  Beta  occ. eigenvalues --   -0.25534  -0.24229  -0.23025  -0.22647  -0.21001
  Beta  occ. eigenvalues --   -0.15166  -0.13347
  Beta virt. eigenvalues --    0.06505   0.06859   0.07754   0.08201   0.08275
  Beta virt. eigenvalues --    0.08321   0.09873   0.09972   0.10430   0.10824
  Beta virt. eigenvalues --    0.11452   0.12446   0.13326   0.13498   0.13958

 Mulliken charges and spin densities:
               1          2
     1  C    0.990688  -1.478074
     2  C   -1.012405   0.503090
     3  S    0.729591  -0.382614
     4  O   -0.136068   0.001713
     5  O   -0.217396   0.014432
     6  C    0.514203  -1.625395
     7  C    0.084107   1.484542
     8  C   -1.606317   1.078679
     9  C    0.205635  -0.461753
    10  C    1.921047  -2.369327
    11  C    0.377604  -0.534644
    12  C   -0.479451   0.164687
    13  O   -0.266362   0.041338
    14  O   -0.261065  -0.003613
    15  H    0.024563   0.144218
    16  H   -0.626529   0.798374
    17  H   -0.289856   0.453998
    18  H    0.034616   0.206181
    19  H    0.237332   0.003774
    20  H    0.022982   0.281377
    21  H    0.269618   0.001624
    22  H    0.157153   0.044859
    23  H   -1.591679   1.788167
    24  H   -0.145513   0.310332
    25  H   -0.241454   0.527327
    26  H    0.304956   0.006709
 Sum of Mulliken charges =  -1.00000   1.00000

 Dipole moment (field-independent basis, Debye):
    X=             -4.4526    Y=             -6.6887    Z=              0.7996  Tot=              8.0749
 Quadrupole moment (field-independent basis, Debye-Ang):
   XX=           -174.2091   YY=           -151.2962   ZZ=           -114.4554
   XY=            -15.6635   XZ=             -0.6828   YZ=             -0.6612

 Summary of Natural Population Analysis:

                                       Natural Population
                Natural  -----------------------------------------------
    Atom  No    Charge         Core      Valence    Rydberg      Total
 -----------------------------------------------------------------------
      C    1   -0.29694      0.99965     2.29060    0.00668     3.29694
      C    2   -0.28776      0.99960     2.27689    0.01127     3.28776
      S    3    1.01415      4.99926     1.89583    0.09076     6.98585
      O    4   -0.46493      0.99991     3.45917    0.00585     4.46493
      O    5   -0.48815      0.99990     3.48219    0.00606     4.48815
      C    6   -0.29050      0.99955     2.27713    0.01382     3.29050
      C    7   -0.09776      0.99946     2.08704    0.01126     3.09776
      C    8    0.17233      0.99937     1.81282    0.01548     2.82767
      C    9   -0.14731      0.99948     2.13744    0.01038     3.14731
      C   10    0.17327      0.99940     1.81359    0.01374     2.82673
      C   11   -0.14436      0.99951     2.13244    0.01241     3.14436
      C   12   -0.07537      0.99953     2.06466    0.01118     3.07537
      O   13   -0.33750      0.99988     3.33069    0.00693     4.33750
      O   14   -0.35618      0.99987     3.35014    0.00617     4.35618
      H   15    0.10817      0.00000     0.39061    0.00122     0.39183
      H   16    0.11244      0.00000     0.38548    0.00208     0.38756
      H   17    0.10458      0.00000     0.39335    0.00207     0.39542
      H   18    0.11729      0.00000     0.38155    0.00116     0.38271
      H   19    0.12158      0.00000     0.37714    0.00128     0.37842
      H   20    0.12217      0.00000     0.37666    0.00117     0.37783
      H   21    0.12095      0.00000     0.37778    0.00127     0.37905
      H   22    0.10998      0.00000     0.38878    0.00123     0.39002
      H   23    0.11136      0.00000     0.38042    0.00822     0.38864
      H   24    0.10391      0.00000     0.39410    0.00200     0.39609
      H   25    0.24254      0.00000     0.24768    0.00978     0.25746
      H   26    0.25201      0.00000     0.24497    0.00302     0.24799
 =======================================================================
   * Total *    0.00000     17.99436    38.74914    0.25650    57.00000

 Normal termination of Gaussian 16 at Thu Dec 10 10:43:31 2020.
