 Gaussian 16, Revision A.03,

 -----------------------------------------------------------
 # opt freq B3LYP/6-31G(d) empiricaldispersion=gd3bj scf=xqc
 -----------------------------------------------------------

 ------------------------------
 CID_61272438_JID_3672_neutraal
 ------------------------------
 Symbolic Z-matrix:
 Charge =  0 Multiplicity = 1

 SCF Done:  E(RB3LYP) =  -556.797338592     A.U. after   14 cycles
 SCF Done:  E(RB3LYP) =  -556.799951814     A.U. after   12 cycles
 SCF Done:  E(RB3LYP) =  -556.800232552     A.U. after   11 cycles
 SCF Done:  E(RB3LYP) =  -556.800654089     A.U. after   11 cycles
 SCF Done:  E(RB3LYP) =  -556.800706106     A.U. after   11 cycles
 SCF Done:  E(RB3LYP) =  -556.800727229     A.U. after   10 cycles
 SCF Done:  E(RB3LYP) =  -556.800736587     A.U. after   10 cycles
 SCF Done:  E(RB3LYP) =  -556.800744551     A.U. after   10 cycles
 SCF Done:  E(RB3LYP) =  -556.800754357     A.U. after   10 cycles
 SCF Done:  E(RB3LYP) =  -556.800757648     A.U. after   10 cycles
 SCF Done:  E(RB3LYP) =  -556.800759079     A.U. after    8 cycles
 SCF Done:  E(RB3LYP) =  -556.800759666     A.U. after    8 cycles
 SCF Done:  E(RB3LYP) =  -556.800760034     A.U. after    8 cycles
 SCF Done:  E(RB3LYP) =  -556.800760237     A.U. after    7 cycles
 SCF Done:  E(RB3LYP) =  -556.800760274     A.U. after    6 cycles
 Optimization completed.
    -- Stationary point found.
 Normal termination of Gaussian 16 at Sun Dec 13 12:29:30 2020.

 --------------------------------------------------------------------
 #N Geom=AllCheck Guess=TCheck SCRF=Check GenChk RB3LYP/6-31G(d) Freq
 --------------------------------------------------------------------

 Structure from the checkpoint file:  "JID_3672.chk"
 ------------------------------
 CID_61272438_JID_3672_neutraal
 ------------------------------
 Charge =  0 Multiplicity = 1

 SCF Done:  E(RB3LYP) =  -556.800760274     A.U. after    1 cycles

  Exact polarizability: 148.902  -1.990 118.938   9.102   6.634  97.707
 Approx polarizability: 193.131  -5.869 181.449  20.433  16.929 148.152

                      1                      2                      3
                      A                      A                      A
 Frequencies --     30.7981                41.4756                53.4700
 Red. masses --      3.1401                 3.4291                 2.5115
 Frc consts  --      0.0018                 0.0035                 0.0042
 IR Inten    --      1.2194                 1.0493                 0.7099

                      4                      5                      6
                      A                      A                      A
 Frequencies --     92.1040               121.8773               150.3509
 Red. masses --      2.5101                 2.0693                 2.2978
 Frc consts  --      0.0125                 0.0181                 0.0306
 IR Inten    --      0.3812                 1.2239                 3.1429

                      7                      8                      9
                      A                      A                      A
 Frequencies --    168.5398               184.6360               205.7113
 Red. masses --      1.6740                 1.9060                 1.8352
 Frc consts  --      0.0280                 0.0383                 0.0458
 IR Inten    --      0.8444                 2.6672                 3.3741

                     10                     11                     12
                      A                      A                      A
 Frequencies --    235.2546               245.4165               258.6183
 Red. masses --      1.2320                 1.6677                 1.1722
 Frc consts  --      0.0402                 0.0592                 0.0462
 IR Inten    --     44.2064                 0.6954                 1.9771

                     13                     14                     15
                      A                      A                      A
 Frequencies --    291.9188               311.9690               325.9773
 Red. masses --      2.3767                 2.4060                 2.8523
 Frc consts  --      0.1193                 0.1380                 0.1786
 IR Inten    --      2.7822                 0.5782                 4.1259

                     16                     17                     18
                      A                      A                      A
 Frequencies --    389.1002               428.4719               438.0740
 Red. masses --      2.0926                 2.0653                 3.9845
 Frc consts  --      0.1867                 0.2234                 0.4505
 IR Inten    --      2.9468                 3.1746                 4.4675

                     19                     20                     21
                      A                      A                      A
 Frequencies --    491.4678               497.8624               629.2325
 Red. masses --      2.7933                 2.7681                 3.2426
 Frc consts  --      0.3975                 0.4042                 0.7564
 IR Inten    --      3.8267                 1.9986                 0.3940

                     22                     23                     24
                      A                      A                      A
 Frequencies --    666.5265               694.1580               713.9964
 Red. masses --      5.2846                 3.7391                 3.7807
 Frc consts  --      1.3832                 1.0615                 1.1356
 IR Inten    --      0.6615                 3.2166                 2.4098

                     25                     26                     27
                      A                      A                      A
 Frequencies --    742.2095               782.9129               818.0455
 Red. masses --      2.0285                 1.4965                 2.4630
 Frc consts  --      0.6584                 0.5404                 0.9711
 IR Inten    --      1.7716                18.3047                 0.8356

                     28                     29                     30
                      A                      A                      A
 Frequencies --    867.6920               876.9240               906.5853
 Red. masses --      1.3619                 2.1780                 1.5072
 Frc consts  --      0.6041                 0.9868                 0.7299
 IR Inten    --     11.0357               108.1086                 5.9636

                     31                     32                     33
                      A                      A                      A
 Frequencies --    927.7547               960.2022               962.5086
 Red. masses --      1.3263                 2.0485                 2.2750
 Frc consts  --      0.6726                 1.1128                 1.2418
 IR Inten    --     51.5871                 6.1188                14.4146

                     34                     35                     36
                      A                      A                      A
 Frequencies --    989.2420              1014.3812              1071.2945
 Red. masses --      1.5684                 1.6342                 1.6104
 Frc consts  --      0.9043                 0.9907                 1.0889
 IR Inten    --      0.8243                 9.8896                 1.6840

                     37                     38                     39
                      A                      A                      A
 Frequencies --   1073.2913              1085.4681              1095.5817
 Red. masses --      1.8698                 1.9411                 2.1047
 Frc consts  --      1.2690                 1.3475                 1.4885
 IR Inten    --      0.6380                13.2699                14.4398

                     40                     41                     42
                      A                      A                      A
 Frequencies --   1115.8275              1139.9021              1167.5293
 Red. masses --      1.7985                 1.8282                 2.1236
 Frc consts  --      1.3193                 1.3996                 1.7055
 IR Inten    --     16.0770                 2.1063                 1.4132

                     43                     44                     45
                      A                      A                      A
 Frequencies --   1190.0521              1199.7476              1251.6607
 Red. masses --      1.8126                 2.1180                 1.4894
 Frc consts  --      1.5124                 1.7962                 1.3748
 IR Inten    --      1.6121                13.8374                 2.1439

                     46                     47                     48
                      A                      A                      A
 Frequencies --   1262.0246              1284.2758              1334.6556
 Red. masses --      1.7661                 1.3436                 1.9263
 Frc consts  --      1.6573                 1.3057                 2.0217
 IR Inten    --      7.9601                 3.0115                12.7132

                     49                     50                     51
                      A                      A                      A
 Frequencies --   1347.6651              1359.2944              1387.0191
 Red. masses --      1.5838                 1.7607                 1.3418
 Frc consts  --      1.6948                 1.9168                 1.5209
 IR Inten    --     14.3463                16.1264                 8.6373

                     52                     53                     54
                      A                      A                      A
 Frequencies --   1397.5005              1406.8851              1418.1367
 Red. masses --      1.5201                 1.5607                 1.3792
 Frc consts  --      1.7491                 1.8201                 1.6342
 IR Inten    --      6.8607                 7.3136                11.8360

                     55                     56                     57
                      A                      A                      A
 Frequencies --   1430.5049              1442.9899              1446.4282
 Red. masses --      1.2403                 1.3052                 1.4345
 Frc consts  --      1.4954                 1.6012                 1.7683
 IR Inten    --      3.4518                13.8795                 5.0057

                     58                     59                     60
                      A                      A                      A
 Frequencies --   1452.6902              1460.0187              1507.2545
 Red. masses --      2.0581                 2.2649                 1.1320
 Frc consts  --      2.5589                 2.8446                 1.5152
 IR Inten    --     15.2707                16.1214                11.3473

                     61                     62                     63
                      A                      A                      A
 Frequencies --   1511.0876              1515.4876              1519.3320
 Red. masses --      1.2318                 1.0807                 1.2528
 Frc consts  --      1.6572                 1.4624                 1.7039
 IR Inten    --     15.2872                 1.1264                 6.1075

                     64                     65                     66
                      A                      A                      A
 Frequencies --   1521.7960              1525.8704              1530.3699
 Red. masses --      1.0752                 1.1319                 1.2121
 Frc consts  --      1.4671                 1.5527                 1.6725
 IR Inten    --      0.6167                 5.6096                 8.0939

                     67                     68                     69
                      A                      A                      A
 Frequencies --   1531.3327              1537.9185              1541.6676
 Red. masses --      1.3174                 1.1071                 1.1937
 Frc consts  --      1.8202                 1.5428                 1.6715
 IR Inten    --     16.1216                 2.7983                 4.9079

                     70                     71                     72
                      A                      A                      A
 Frequencies --   1619.3472              1693.0802              3037.6516
 Red. masses --      5.5176                 1.0923                 1.0819
 Frc consts  --      8.5247                 1.8448                 5.8816
 IR Inten    --     13.4133                25.6035                25.6589

                     73                     74                     75
                      A                      A                      A
 Frequencies --   3039.5535              3041.1302              3045.3648
 Red. masses --      1.0388                 1.0654                 1.0438
 Frc consts  --      5.6544                 5.8055                 5.7037
 IR Inten    --     32.0709                20.1576                 7.6187

                     76                     77                     78
                      A                      A                      A
 Frequencies --   3047.8589              3049.4891              3077.1515
 Red. masses --      1.0556                 1.0404                 1.1003
 Frc consts  --      5.7777                 5.7006                 6.1387
 IR Inten    --     27.1906                32.2149                12.0671

                     79                     80                     81
                      A                      A                      A
 Frequencies --   3086.5679              3097.9912              3103.9740
 Red. masses --      1.0626                 1.1013                 1.0973
 Frc consts  --      5.9647                 6.2274                 6.2290
 IR Inten    --     33.0933                23.5500                14.7557

                     82                     83                     84
                      A                      A                      A
 Frequencies --   3105.6549              3110.5501              3114.7493
 Red. masses --      1.1012                 1.1021                 1.1014
 Frc consts  --      6.2579                 6.2824                 6.2956
 IR Inten    --     55.5725                67.6293                41.0321

                     85                     86                     87
                      A                      A                      A
 Frequencies --   3117.7541              3138.6423              3149.0667
 Red. masses --      1.1021                 1.1024                 1.0961
 Frc consts  --      6.3116                 6.3984                 6.4043
 IR Inten    --     33.4340                24.8619                14.4054

                     88                     89                     90
                      A                      A                      A
 Frequencies --   3244.7660              3451.1312              3541.7495
 Red. masses --      1.0959                 1.0497                 1.0912
 Frc consts  --      6.7983                 7.3659                 8.0646
 IR Inten    --     10.7746                 6.2203                 3.0407

 - Thermochemistry -
 -------------------
 Temperature   298.150 Kelvin.  Pressure   1.00000 Atm.
 Atom     1 has atomic number  6 and mass  12.00000

 Molecular mass:   181.15790 amu.
 Principal axes and moments of inertia in atomic units:
                           1         2         3
     Eigenvalues --  1344.849253835.637474359.60579
           X            0.99996   0.00578  -0.00611
           Y           -0.00564   0.99976   0.02125
           Z            0.00623  -0.02122   0.99976
 This molecule is an asymmetric top.
 Rotational symmetry number  1.
 Warning -- assumption of classical behavior for rotation
           may cause significant error
 Rotational temperatures (Kelvin)      0.06440     0.02258     0.01987
 Rotational constants (GHZ):           1.34197     0.47052     0.41397
 Zero-point vibrational energy     756585.7 (Joules/Mol)
                                  180.82832 (Kcal/Mol)
 Warning -- explicit consideration of  20 degrees of freedom as
           vibrations may cause significant error
 Vibrational temperatures:     44.31    59.67    76.93   132.52   175.35
          (Kelvin)            216.32   242.49   265.65   295.97   338.48
                              353.10   372.09   420.01   448.85   469.01
                              559.83   616.48   630.29   707.11   716.31
                              905.33   958.98   998.74  1027.28  1067.87
                             1126.44  1176.98  1248.42  1261.70  1304.37
                             1334.83  1381.52  1384.84  1423.30  1459.47
                             1541.35  1544.23  1561.75  1576.30  1605.43
                             1640.06  1679.81  1712.22  1726.17  1800.86
                             1815.77  1847.79  1920.27  1938.99  1955.72
                             1995.61  2010.69  2024.19  2040.38  2058.18
                             2076.14  2081.09  2090.10  2100.64  2168.60
                             2174.12  2180.45  2185.98  2189.52  2195.39
                             2201.86  2203.25  2212.72  2218.12  2329.88
                             2435.96  4370.50  4373.24  4375.51  4381.60
                             4385.19  4387.53  4427.33  4440.88  4457.32
                             4465.93  4468.34  4475.39  4481.43  4485.75
                             4515.81  4530.80  4668.49  4965.41  5095.79

 Zero-point correction=                           0.288168 (Hartree/Particle)
 Thermal correction to Energy=                    0.302933
 Thermal correction to Enthalpy=                  0.303877
 Thermal correction to Gibbs Free Energy=         0.245842
 Sum of electronic and zero-point Energies=           -556.512592
 Sum of electronic and thermal Energies=              -556.497827
 Sum of electronic and thermal Enthalpies=            -556.496883
 Sum of electronic and thermal Free Energies=         -556.554919

                     E (Thermal)             CV                S
                      KCal/Mol        Cal/Mol-Kelvin    Cal/Mol-Kelvin
 Total                  190.093             54.400            122.146
 Electronic               0.000              0.000              0.000
 Translational            0.889              2.981             41.489
 Rotational               0.889              2.981             31.487
 Vibrational            188.316             48.438             49.171
 Vibration     1          0.594              1.984              5.777
 Vibration     2          0.594              1.981              5.187
 Vibration     3          0.596              1.976              4.685
 Vibration     4          0.602              1.955              3.615
 Vibration     5          0.609              1.931              3.070
 Vibration     6          0.618              1.902              2.668
 Vibration     7          0.625              1.881              2.452
 Vibration     8          0.631              1.861              2.281
 Vibration     9          0.640              1.832              2.081
 Vibration    10          0.655              1.787              1.838
 Vibration    11          0.660              1.770              1.763
 Vibration    12          0.667              1.748              1.671
 Vibration    13          0.687              1.689              1.463
 Vibration    14          0.700              1.651              1.352
 Vibration    15          0.710              1.624              1.280
 Vibration    16          0.757              1.493              1.004
 Vibration    17          0.790              1.408              0.864
 Vibration    18          0.798              1.387              0.833
 Vibration    19          0.847              1.269              0.680
 Vibration    20          0.853              1.255              0.663

 Optimization completed.
    -- Stationary point found.
 Normal termination of Gaussian 16 at Sun Dec 13 12:38:09 2020.

 ----------------------------------------------------------------------
 # B3LYP/6-311++G(d,p) empiricaldispersion=gd3bj scf=xqc pop=npa geom=c
 heck
 ----------------------------------------------------------------------

 --------------------------------------
 CID_61272438_JID_3672_Energie_neutraal
 --------------------------------------
 Structure from the checkpoint file:  "JID_3672.chk"
 Charge =  0 Multiplicity = 1

 SCF Done:  E(RB3LYP) =  -556.959626545     A.U. after   14 cycles
 Normal termination of Gaussian 16 at Sun Dec 13 12:42:11 2020.

 ----------------------------------------------------------------------
 # B3LYP/6-311++G(d,p) empiricaldispersion=gd3bj scf=xqc pop=npa geom=c
 heck
 ----------------------------------------------------------------------

 ------------------------------------
 CID_61272438_JID_3672_Energie_kation
 ------------------------------------
 Structure from the checkpoint file:  "JID_3672.chk"
 Charge =  1 Multiplicity = 2

 SCF Done:  E(UB3LYP) =  -556.659227004     A.U. after   33 cycles
 SCF Done:  E(UB3LYP) =  -556.659227004     a.u. after    1 cycles
 Normal termination of Gaussian 16 at Sun Dec 13 12:55:34 2020.
 Gaussian 16:  ES64L-G16RevA.03 25-Dec-2016

 ----------------------------------------------------------------------
 # B3LYP/6-311++G(d,p) empiricaldispersion=gd3bj scf=xqc pop=npa geom=c
 heck
 ----------------------------------------------------------------------

 -----------------------------------
 CID_61272438_JID_3672_Energie_anion
 -----------------------------------
 Structure from the checkpoint file:  "JID_3672.chk"
 Charge = -1 Multiplicity = 2

                         Standard orientation:
 ---------------------------------------------------------------------
 Center     Atomic      Atomic             Coordinates (Angstroms)
 Number     Number       Type             X           Y           Z
 ---------------------------------------------------------------------
      1          6           0        3.370375    1.795274   -0.204541
      2          6           0        2.876148    0.567303   -0.976115
      3          6           0        2.972118   -0.742161   -0.182656
      4          6           0        1.951037   -0.865393    0.955324
      5          7           0        0.585301   -0.928908    0.454660
      6          6           0       -0.396464    0.023528    0.500622
      7          6           0       -1.475784   -0.498128   -0.208878
      8          6           0       -1.029143   -1.767856   -0.637278
      9          7           0        0.212946   -2.030695   -0.239535
     10          6           0       -2.831505    0.106281   -0.467533
     11          6           0       -3.651297    0.271547    0.827820
     12          7           0       -2.706786    1.341866   -1.267072
     13          6           0       -0.213076    1.335651    1.197610
     14          1           0        2.805983    1.955801    0.721397
     15          1           0        3.276360    2.705975   -0.806311
     16          1           0        4.426033    1.685277    0.072209
     17          1           0        1.838054    0.716319   -1.300520
     18          1           0        3.466816    0.464092   -1.894703
     19          1           0        2.815682   -1.595566   -0.850688
     20          1           0        3.978268   -0.845719    0.246535
     21          1           0        2.134373   -1.780552    1.526062
     22          1           0        2.016022   -0.021839    1.646784
     23          1           0       -1.576869   -2.500102   -1.217592
     24          1           0       -3.374037   -0.605294   -1.103683
     25          1           0       -3.170303    0.971868    1.520240
     26          1           0       -4.654078    0.656526    0.603187
     27          1           0       -3.762330   -0.687102    1.347054
     28          1           0       -3.630789    1.761773   -1.373510
     29          1           0       -2.148946    2.023963   -0.755292
     30          1           0        0.150083    1.207694    2.224341
     31          1           0        0.498693    1.985334    0.674443
     32          1           0       -1.163684    1.869438    1.257436
 ---------------------------------------------------------------------

 SCF Done:  E(UB3LYP) =  -556.947306228     A.U. after   30 cycles

 The electronic state is 2-A.
 Alpha  occ. eigenvalues --  -14.28288 -14.22266 -14.19106 -10.11478 -10.11044
 Alpha  occ. eigenvalues --  -10.10812 -10.08491 -10.07767 -10.07531 -10.07196
 Alpha  occ. eigenvalues --  -10.06414 -10.06185 -10.06018  -0.94600  -0.78909
 Alpha  occ. eigenvalues --   -0.75025  -0.70826  -0.68722  -0.64245  -0.61558
 Alpha  occ. eigenvalues --   -0.60634  -0.56191  -0.52677  -0.50027  -0.47122
 Alpha  occ. eigenvalues --   -0.44113  -0.41416  -0.39082  -0.38437  -0.35877
 Alpha  occ. eigenvalues --   -0.34763  -0.34040  -0.33731  -0.32284  -0.31735
 Alpha  occ. eigenvalues --   -0.31464  -0.30486  -0.29676  -0.29564  -0.28679
 Alpha  occ. eigenvalues --   -0.27998  -0.26679  -0.24614  -0.24063  -0.23987
 Alpha  occ. eigenvalues --   -0.23562  -0.19108  -0.14922  -0.14471  -0.13439
 Alpha  occ. eigenvalues --    0.04262
 Alpha virt. eigenvalues --    0.06107   0.07406   0.07612   0.08579   0.08907
 Alpha virt. eigenvalues --    0.09018   0.10029   0.10114   0.10784   0.11053
 Alpha virt. eigenvalues --    0.11434   0.12035   0.12275   0.12806   0.13404

  Beta  occ. eigenvalues --  -14.28289 -14.22265 -14.19069 -10.11458 -10.11040
  Beta  occ. eigenvalues --  -10.10806 -10.08489 -10.07712 -10.07521 -10.07187
  Beta  occ. eigenvalues --  -10.06413 -10.06144 -10.05982  -0.94596  -0.78851
  Beta  occ. eigenvalues --   -0.75009  -0.70800  -0.68695  -0.64192  -0.61512
  Beta  occ. eigenvalues --   -0.60567  -0.56137  -0.52622  -0.49988  -0.47086
  Beta  occ. eigenvalues --   -0.44073  -0.41376  -0.39057  -0.38402  -0.35843
  Beta  occ. eigenvalues --   -0.34722  -0.34007  -0.33709  -0.32231  -0.31696
  Beta  occ. eigenvalues --   -0.31428  -0.30448  -0.29637  -0.29522  -0.28638
  Beta  occ. eigenvalues --   -0.27966  -0.26631  -0.24576  -0.24030  -0.23959
  Beta  occ. eigenvalues --   -0.23535  -0.19097  -0.14912  -0.14425  -0.13427
  Beta virt. eigenvalues --    0.06559   0.07045   0.08076   0.08164   0.08961
  Beta virt. eigenvalues --    0.09227   0.09379   0.10354   0.10615   0.11034
  Beta virt. eigenvalues --    0.11365   0.11714   0.12358   0.12608   0.13191

 Mulliken charges and spin densities:
               1          2
     1  C    1.019439  -1.579643
     2  C   -0.775142   0.629212
     3  C   -0.321462  -0.076663
     4  C    0.335376  -0.477109
     5  N    0.381961   0.150981
     6  C   -2.533860   1.832645
     7  C    2.326924  -1.196973
     8  C    0.757402  -0.579142
     9  N   -0.361164  -0.001407
    10  C   -4.220252   3.401763
    11  C    1.024167  -1.622474
    12  N   -0.157138  -0.189615
    13  C    3.543761  -4.347588
    14  H   -0.298193   0.433361
    15  H   -0.207404   0.350004
    16  H   -0.262967   0.397340
    17  H    0.208796  -0.033327
    18  H   -0.116969   0.271570
    19  H    0.194976  -0.030892
    20  H   -0.183581   0.322320
    21  H   -0.076634   0.283652
    22  H   -0.024097   0.139943
    23  H    0.075744   0.059255
    24  H    0.080784   0.089479
    25  H   -0.117884   0.270171
    26  H   -0.575275   0.704507
    27  H    0.026144   0.116936
    28  H   -0.145326   0.375405
    29  H    0.130965   0.095983
    30  H   -0.509849   0.696604
    31  H   -0.018691   0.186727
    32  H   -0.200552   0.326978
 Sum of Mulliken charges =  -1.00000   1.00000

 Dipole moment (field-independent basis, Debye):
    X=              0.5456    Y=             -4.8338    Z=             -1.8329  Tot=              5.1984
 Quadrupole moment (field-independent basis, Debye-Ang):
   XX=           -157.8468   YY=           -127.6737   ZZ=           -119.8334
   XY=              2.6682   XZ=             -1.6671   YZ=             -2.0831

 Summary of Natural Population Analysis:

                                       Natural Population
                Natural  -----------------------------------------------
    Atom  No    Charge         Core      Valence    Rydberg      Total
 -----------------------------------------------------------------------
      C    1   -0.28721      0.99967     2.28250    0.00504     3.28721
      C    2   -0.19457      0.99964     2.18703    0.00791     3.19457
      C    3   -0.19386      0.99962     2.18613    0.00812     3.19386
      C    4   -0.08259      0.99960     2.07157    0.01142     3.08259
      N    5   -0.11340      0.99962     2.60001    0.01377     3.61340
      C    6    0.09263      0.99947     1.89577    0.01213     2.90737
      C    7   -0.07424      0.99944     2.06251    0.01229     3.07424
      C    8   -0.00535      0.99957     1.99247    0.01331     3.00535
      N    9   -0.16180      0.99973     2.65101    0.01106     3.66180
      C   10   -0.01963      0.99958     2.00768    0.01237     3.01963
      C   11   -0.28669      0.99965     2.28170    0.00534     3.28669
      N   12   -0.41497      0.99977     2.90520    0.01000     3.91497
      C   13   -0.30654      0.99963     2.30069    0.00622     3.30654
      H   14    0.09672      0.00000     0.40163    0.00165     0.40328
      H   15    0.10045      0.00000     0.39857    0.00098     0.39955
      H   16    0.09601      0.00000     0.40260    0.00139     0.40399
      H   17    0.09921      0.00000     0.39934    0.00145     0.40079
      H   18    0.09541      0.00000     0.40366    0.00093     0.40459
      H   19    0.10526      0.00000     0.39348    0.00126     0.39474
      H   20    0.09657      0.00000     0.40242    0.00102     0.40343
      H   21    0.10273      0.00000     0.39603    0.00124     0.39727
      H   22    0.10323      0.00000     0.39525    0.00152     0.39677
      H   23    0.09415      0.00000     0.40493    0.00093     0.40585
      H   24    0.08950      0.00000     0.40861    0.00190     0.41050
      H   25    0.09782      0.00000     0.40065    0.00153     0.40218
      H   26    0.09656      0.00000     0.40179    0.00165     0.40344
      H   27    0.09918      0.00000     0.39982    0.00100     0.40082
      H   28    0.17254      0.00000     0.32548    0.00198     0.32746
      H   29    0.17285      0.00000     0.32508    0.00207     0.32715
      H   30    0.11014      0.00000     0.38815    0.00171     0.38986
      H   31    0.10994      0.00000     0.38844    0.00162     0.39006
      H   32    0.11000      0.00000     0.38830    0.00171     0.39000
 =======================================================================
   * Total *    0.00000     12.99499    36.84848    0.15653    50.00000

 Normal termination of Gaussian 16 at Sun Dec 13 13:07:42 2020.
