 Gaussian 16, Revision A.03,

 -----------------------------------------------------------
 # opt freq B3LYP/6-31G(d) empiricaldispersion=gd3bj scf=xqc
 -----------------------------------------------------------

 -------------------------------
 CID_84360033_JID_10065_neutraal
 -------------------------------
 Symbolic Z-matrix:
 Charge =  0 Multiplicity = 1

 SCF Done:  E(RB3LYP) =  -1218.36688019     A.U. after   15 cycles
 SCF Done:  E(RB3LYP) =  -1218.37744265     A.U. after   13 cycles
 SCF Done:  E(RB3LYP) =  -1218.37682583     A.U. after   13 cycles
 SCF Done:  E(RB3LYP) =  -1218.37858764     A.U. after   12 cycles
 SCF Done:  E(RB3LYP) =  -1218.37903798     A.U. after   12 cycles
 SCF Done:  E(RB3LYP) =  -1218.37969668     A.U. after   15 cycles
 SCF Done:  E(RB3LYP) =  -1218.38030253     A.U. after   13 cycles
 SCF Done:  E(RB3LYP) =  -1218.38028710     A.U. after   16 cycles
 SCF Done:  E(RB3LYP) =  -1218.38146549     A.U. after   13 cycles
 SCF Done:  E(RB3LYP) =  -1218.38231155     A.U. after   12 cycles
 SCF Done:  E(RB3LYP) =  -1218.38380721     A.U. after    8 cycles
 SCF Done:  E(RB3LYP) =  -1218.38380854     A.U. after    9 cycles
 SCF Done:  E(RB3LYP) =  -1218.38380898     A.U. after    8 cycles
 SCF Done:  E(RB3LYP) =  -1218.38380915     A.U. after    7 cycles
 SCF Done:  E(RB3LYP) =  -1218.38380920     A.U. after    7 cycles
 Optimization completed.
    -- Stationary point found.
 Normal termination of Gaussian 16 at Sat Dec 12 15:11:40 2020.

 --------------------------------------------------------------------
 #N Geom=AllCheck Guess=TCheck SCRF=Check GenChk RB3LYP/6-31G(d) Freq
 --------------------------------------------------------------------

 Structure from the checkpoint file:  "JID_10065.chk"
 -------------------------------
 CID_84360033_JID_10065_neutraal
 -------------------------------
 Charge =  0 Multiplicity = 1

 SCF Done:  E(RB3LYP) =  -1218.38380920     A.U. after    1 cycles

  Exact polarizability: 245.556  30.293 127.708   3.672   5.281 167.987
 Approx polarizability: 396.238  62.271 190.020   3.536  15.012 338.763

                      1                      2                      3
                      A                      A                      A
 Frequencies --     31.6123                35.9901                48.0630
 Red. masses --      4.1366                 4.9969                 3.1195
 Frc consts  --      0.0024                 0.0038                 0.0042
 IR Inten    --      0.2553                 0.4989                 0.2155

                      4                      5                      6
                      A                      A                      A
 Frequencies --     58.1771                73.4981                88.1512
 Red. masses --      8.1890                 8.5737                 4.8559
 Frc consts  --      0.0163                 0.0273                 0.0222
 IR Inten    --      1.3771                 1.2381                 0.0085

                      7                      8                      9
                      A                      A                      A
 Frequencies --    107.1322               122.3403               185.5930
 Red. masses --      4.5500                 5.1769                 4.8434
 Frc consts  --      0.0308                 0.0457                 0.0983
 IR Inten    --      0.8898                 0.1636                 0.1951

                     10                     11                     12
                      A                      A                      A
 Frequencies --    194.6827               229.7600               230.8051
 Red. masses --      2.2231                 1.7607                 3.1223
 Frc consts  --      0.0496                 0.0548                 0.0980
 IR Inten    --      0.5437                 0.2742                 2.1789

                     13                     14                     15
                      A                      A                      A
 Frequencies --    269.6242               305.0962               333.9781
 Red. masses --      3.8098                 4.2904                 2.2269
 Frc consts  --      0.1632                 0.2353                 0.1463
 IR Inten    --      0.5781                 5.0451                 2.4078

                     16                     17                     18
                      A                      A                      A
 Frequencies --    358.0728               394.3653               415.9554
 Red. masses --      6.9516                 4.0447                 3.6753
 Frc consts  --      0.5251                 0.3706                 0.3747
 IR Inten    --      4.4549                 0.2072                 7.4054

                     19                     20                     21
                      A                      A                      A
 Frequencies --    438.1249               446.4641               476.9810
 Red. masses --      2.9034                 3.0645                 2.7335
 Frc consts  --      0.3284                 0.3599                 0.3664
 IR Inten    --      4.1320                24.1000                17.3976

                     22                     23                     24
                      A                      A                      A
 Frequencies --    494.0459               522.4760               542.4084
 Red. masses --      3.0674                 3.4499                 3.3491
 Frc consts  --      0.4411                 0.5549                 0.5805
 IR Inten    --      7.1082                 9.3387                27.5180

                     25                     26                     27
                      A                      A                      A
 Frequencies --    596.7573               599.0611               613.4091
 Red. masses --      4.2738                 4.0200                 4.2415
 Frc consts  --      0.8967                 0.8500                 0.9403
 IR Inten    --     15.1084                25.6516                 1.2414

                     28                     29                     30
                      A                      A                      A
 Frequencies --    631.4747               646.6008               658.9971
 Red. masses --      5.1629                 5.3959                 3.5065
 Frc consts  --      1.2130                 1.3292                 0.8972
 IR Inten    --      4.1345                16.6620                11.4529

                     31                     32                     33
                      A                      A                      A
 Frequencies --    721.8927               728.7839               741.4549
 Red. masses --      1.3419                 1.4484                 4.1341
 Frc consts  --      0.4120                 0.4533                 1.3390
 IR Inten    --     39.2289                35.5211                 2.3008

                     34                     35                     36
                      A                      A                      A
 Frequencies --    759.6541               781.6858               795.6930
 Red. masses --      7.8013                 2.9447                 1.6905
 Frc consts  --      2.6525                 1.0601                 0.6306
 IR Inten    --      5.1096                 7.0688                 2.9483

                     37                     38                     39
                      A                      A                      A
 Frequencies --    803.3279               809.1924               817.3806
 Red. masses --      2.7404                 1.6665                 3.1883
 Frc consts  --      1.0419                 0.6429                 1.2551
 IR Inten    --      0.0976                18.7135                11.4877

                     40                     41                     42
                      A                      A                      A
 Frequencies --    839.7736               849.2213               879.3669
 Red. masses --      1.8731                 2.3749                 4.4453
 Frc consts  --      0.7783                 1.0091                 2.0253
 IR Inten    --      5.3457                13.2204                 7.0834

                     43                     44                     45
                      A                      A                      A
 Frequencies --    884.5982               895.9760               902.4453
 Red. masses --      1.3544                 1.4561                 4.4673
 Frc consts  --      0.6245                 0.6887                 2.1436
 IR Inten    --      1.6741                10.6534                 0.9576

                     46                     47                     48
                      A                      A                      A
 Frequencies --    925.7200               940.3653               987.6065
 Red. masses --      1.2739                 2.9688                 2.2242
 Frc consts  --      0.6432                 1.5468                 1.2782
 IR Inten    --      0.1266                 1.5515                 8.7054

                     49                     50                     51
                      A                      A                      A
 Frequencies --    994.9223              1074.2415              1086.7854
 Red. masses --      2.2908                 1.8431                 1.7032
 Frc consts  --      1.3360                 1.2532                 1.1852
 IR Inten    --      0.4090                 3.9656                 6.7322

                     52                     53                     54
                      A                      A                      A
 Frequencies --   1095.7842              1096.5497              1122.0893
 Red. masses --      1.6317                 1.5309                 1.7347
 Frc consts  --      1.1544                 1.0845                 1.2868
 IR Inten    --      3.2945                18.3124                 3.9147

                     55                     56                     57
                      A                      A                      A
 Frequencies --   1152.9259              1173.4433              1186.6590
 Red. masses --      2.1656                 1.8803                 1.3288
 Frc consts  --      1.6960                 1.5255                 1.1025
 IR Inten    --     73.6549                 3.9858                 2.9234

                     58                     59                     60
                      A                      A                      A
 Frequencies --   1221.3798              1247.9451              1262.1112
 Red. masses --      1.6346                 2.5594                 2.2243
 Frc consts  --      1.4367                 2.3484                 2.0875
 IR Inten    --     22.5996                 6.0147                 3.0986

                     61                     62                     63
                      A                      A                      A
 Frequencies --   1285.9618              1289.2259              1341.4389
 Red. masses --      1.3648                 1.5631                 1.6859
 Frc consts  --      1.3298                 1.5307                 1.7874
 IR Inten    --     33.4632                78.6594                30.2949

                     64                     65                     66
                      A                      A                      A
 Frequencies --   1343.9329              1358.2785              1363.2672
 Red. masses --      3.8187                 2.0155                 1.6686
 Frc consts  --      4.0637                 2.1908                 1.8271
 IR Inten    --    159.1776                 2.5380                 6.6706

                     67                     68                     69
                      A                      A                      A
 Frequencies --   1373.4565              1395.3563              1411.6192
 Red. masses --      1.5979                 3.2260                 3.1666
 Frc consts  --      1.7760                 3.7007                 3.7177
 IR Inten    --      7.4435                29.4755                22.0578

                     70                     71                     72
                      A                      A                      A
 Frequencies --   1431.8911              1437.5777              1462.4331
 Red. masses --      1.2448                 2.8559                 1.8155
 Frc consts  --      1.5038                 3.4774                 2.2876
 IR Inten    --      2.2471                 4.5908                45.5277

                     73                     74                     75
                      A                      A                      A
 Frequencies --   1495.7877              1500.3839              1502.4297
 Red. masses --      2.7480                 3.6632                 1.4378
 Frc consts  --      3.6225                 4.8587                 1.9122
 IR Inten    --     23.0695                36.6225                 6.4675

                     76                     77                     78
                      A                      A                      A
 Frequencies --   1517.3188              1524.7089              1531.0615
 Red. masses --      1.0761                 1.0434                 2.2385
 Frc consts  --      1.4597                 1.4292                 3.0917
 IR Inten    --      1.1739                 8.4699                31.7392

                     79                     80                     81
                      A                      A                      A
 Frequencies --   1539.0728              1574.3550              1576.6344
 Red. masses --      1.2615                 7.2005                 4.3011
 Frc consts  --      1.7605                10.5152                 6.2993
 IR Inten    --     19.3016                63.1764                 6.1034

                     82                     83                     84
                      A                      A                      A
 Frequencies --   1631.7150              1678.9845              1810.8479
 Red. masses --      6.2587                 6.6716                 9.2577
 Frc consts  --      9.8179                11.0808                17.8861
 IR Inten    --      3.7400                 1.8841               437.4441

                     85                     86                     87
                      A                      A                      A
 Frequencies --   3042.5575              3043.5235              3077.5196
 Red. masses --      1.0520                 1.0426                 1.1028
 Frc consts  --      5.7380                 5.6900                 6.1540
 IR Inten    --     32.7190                39.7810                 7.6543

                     88                     89                     90
                      A                      A                      A
 Frequencies --   3091.3300              3113.9795              3115.6210
 Red. masses --      1.0621                 1.1027                 1.1034
 Frc consts  --      5.9803                 6.3000                 6.3107
 IR Inten    --     27.8583                70.0134                36.6225

                     91                     92                     93
                      A                      A                      A
 Frequencies --   3152.3048              3176.0622              3177.2902
 Red. masses --      1.1026                 1.0886                 1.0892
 Frc consts  --      6.4555                 6.4700                 6.4786
 IR Inten    --      4.0153                16.3216                17.0147

                     94                     95                     96
                      A                      A                      A
 Frequencies --   3207.4090              3245.2190              3255.4494
 Red. masses --      1.0931                 1.0913                 1.0894
 Frc consts  --      6.6252                 6.7716                 6.8023
 IR Inten    --     10.5342                 4.0274                 1.8000

                     97                     98                     99
                      A                      A                      A
 Frequencies --   3274.0840              3285.0143              3579.1696
 Red. masses --      1.1041                 1.0983                 1.0756
 Frc consts  --      6.9731                 6.9833                 8.1183
 IR Inten    --      3.2381                 0.9429                46.2435

 - Thermochemistry -
 -------------------
 Temperature   298.150 Kelvin.  Pressure   1.00000 Atm.
 Atom     1 has atomic number  6 and mass  12.00000

 Molecular mass:   285.09358 amu.
 Principal axes and moments of inertia in atomic units:
                           1         2         3
     Eigenvalues --  3084.490346928.938747945.92256
           X            0.99986   0.01659   0.00276
           Y           -0.01663   0.99971   0.01770
           Z           -0.00247  -0.01774   0.99984
 This molecule is an asymmetric top.
 Rotational symmetry number  1.
 Warning -- assumption of classical behavior for rotation
           may cause significant error
 Rotational temperatures (Kelvin)      0.02808     0.01250     0.01090
 Rotational constants (GHZ):           0.58510     0.26046     0.22713
 Zero-point vibrational energy     730577.1 (Joules/Mol)
                                  174.61211 (Kcal/Mol)
 Warning -- explicit consideration of  27 degrees of freedom as
           vibrations may cause significant error
 Vibrational temperatures:     45.48    51.78    69.15    83.70   105.75
          (Kelvin)            126.83   154.14   176.02   267.03   280.11
                              330.57   332.08   387.93   438.97   480.52
                              515.19   567.40   598.47   630.36   642.36
                              686.27   710.82   751.73   780.40   858.60
                              861.92   882.56   908.55   930.31   948.15
                             1038.64  1048.56  1066.79  1092.97  1124.67
                             1144.82  1155.81  1164.25  1176.03  1208.25
                             1221.84  1265.21  1272.74  1289.11  1298.42
                             1331.90  1352.98  1420.95  1431.47  1545.59
                             1563.64  1576.59  1577.69  1614.44  1658.80
                             1688.32  1707.34  1757.29  1795.51  1815.90
                             1850.21  1854.91  1930.03  1933.62  1954.26
                             1961.44  1976.10  2007.61  2031.01  2060.17
                             2068.35  2104.12  2152.10  2158.72  2161.66
                             2183.08  2193.72  2202.86  2214.38  2265.15
                             2268.43  2347.67  2415.68  2605.41  4377.56
                             4378.95  4427.86  4447.73  4480.32  4482.68
                             4535.46  4569.65  4571.41  4614.75  4669.15
                             4683.87  4710.68  4726.40  5149.63

 Zero-point correction=                           0.278262 (Hartree/Particle)
 Thermal correction to Energy=                    0.295829
 Thermal correction to Enthalpy=                  0.296773
 Thermal correction to Gibbs Free Energy=         0.231405
 Sum of electronic and zero-point Energies=          -1218.105547
 Sum of electronic and thermal Energies=             -1218.087980
 Sum of electronic and thermal Enthalpies=           -1218.087036
 Sum of electronic and thermal Free Energies=        -1218.152404

                     E (Thermal)             CV                S
                      KCal/Mol        Cal/Mol-Kelvin    Cal/Mol-Kelvin
 Total                  185.635             67.952            137.578
 Electronic               0.000              0.000              0.000
 Translational            0.889              2.981             42.841
 Rotational               0.889              2.981             33.495
 Vibrational            183.858             61.990             61.241
 Vibration     1          0.594              1.983              5.726
 Vibration     2          0.594              1.982              5.468
 Vibration     3          0.595              1.978              4.896
 Vibration     4          0.596              1.974              4.518
 Vibration     5          0.599              1.967              4.057
 Vibration     6          0.601              1.958              3.701
 Vibration     7          0.606              1.944              3.320
 Vibration     8          0.610              1.930              3.063
 Vibration     9          0.632              1.860              2.271
 Vibration    10          0.635              1.847              2.183
 Vibration    11          0.652              1.796              1.881
 Vibration    12          0.653              1.794              1.873
 Vibration    13          0.674              1.729              1.599
 Vibration    14          0.696              1.664              1.389
 Vibration    15          0.716              1.608              1.241
 Vibration    16          0.733              1.559              1.130
 Vibration    17          0.761              1.482              0.984
 Vibration    18          0.779              1.436              0.906
 Vibration    19          0.798              1.387              0.833
 Vibration    20          0.806              1.369              0.807
 Vibration    21          0.834              1.301              0.718
 Vibration    22          0.850              1.263              0.673
 Vibration    23          0.877              1.200              0.604
 Vibration    24          0.898              1.156              0.560
 Vibration    25          0.955              1.039              0.455
 Vibration    26          0.957              1.034              0.451
 Vibration    27          0.973              1.003              0.427

 Optimization completed.
    -- Stationary point found.
 Normal termination of Gaussian 16 at Sat Dec 12 15:31:54 2020.

 ----------------------------------------------------------------------
 # B3LYP/6-311++G(d,p) empiricaldispersion=gd3bj scf=xqc pop=npa geom=c
 heck
 ----------------------------------------------------------------------

 ---------------------------------------
 CID_84360033_JID_10065_Energie_neutraal
 ---------------------------------------
 Structure from the checkpoint file:  "JID_10065.chk"
 Charge =  0 Multiplicity = 1

 SCF Done:  E(RB3LYP) =  -1218.62964545     A.U. after   16 cycles
 Normal termination of Gaussian 16 at Sat Dec 12 15:39:33 2020.

 ----------------------------------------------------------------------
 # B3LYP/6-311++G(d,p) empiricaldispersion=gd3bj scf=xqc pop=npa geom=c
 heck
 ----------------------------------------------------------------------

 -------------------------------------
 CID_84360033_JID_10065_Energie_kation
 -------------------------------------
 Structure from the checkpoint file:  "JID_10065.chk"
 Charge =  1 Multiplicity = 2

 SCF Done:  E(UB3LYP) =  -1218.35518638     A.U. after   28 cycles
 Normal termination of Gaussian 16 at Sat Dec 12 15:58:00 2020.
 Gaussian 16:  ES64L-G16RevA.03 25-Dec-2016

 ----------------------------------------------------------------------
 # B3LYP/6-311++G(d,p) empiricaldispersion=gd3bj scf=xqc pop=npa geom=c
 heck
 ----------------------------------------------------------------------

 ------------------------------------
 CID_84360033_JID_10065_Energie_anion
 ------------------------------------
 Structure from the checkpoint file:  "JID_10065.chk"
 Charge = -1 Multiplicity = 2

                         Standard orientation:
 ---------------------------------------------------------------------
 Center     Atomic      Atomic             Coordinates (Angstroms)
 Number     Number       Type             X           Y           Z
 ---------------------------------------------------------------------
      1          6           0        4.649395    1.005033    0.055222
      2          6           0        4.405437   -0.506830    0.194438
      3          6           0        2.931016   -0.839784    0.236483
      4          6           0        2.247899   -1.192824   -0.923663
      5          6           0        0.861837   -1.411530   -0.882940
      6          6           0        0.176320   -1.252758    0.352464
      7          6           0        0.850596   -0.929179    1.531938
      8          6           0        2.221882   -0.726961    1.454020
      9          7           0       -1.172880   -1.472546    0.114086
     10          6           0       -1.338141   -1.784892   -1.228333
     11          6           0       -0.127034   -1.759390   -1.866323
     12          6           0       -2.259691   -1.274773    1.049902
     13          6           0       -3.347401   -0.341461    0.504296
     14          8           0       -4.526586   -0.642554    0.532204
     15          7           0       -2.925354    0.846408   -0.066666
     16          6           0       -1.652632    1.415676    0.043536
     17          7           0       -1.040412    1.638188    1.172249
     18          6           0        0.212666    2.160633    0.948997
     19          6           0        0.554667    2.362559   -0.356810
     20         16           0       -0.728819    1.830375   -1.392126
     21          1           0        4.194598    1.384108   -0.867242
     22          1           0        5.720228    1.237979    0.030979
     23          1           0        4.200327    1.549042    0.894183
     24          1           0        4.880072   -1.029338   -0.644962
     25          1           0        4.896898   -0.868968    1.106541
     26          1           0        2.788203   -1.293391   -1.862373
     27          1           0        0.327858   -0.824001    2.477090
     28          1           0        2.770193   -0.467207    2.356436
     29          1           0       -2.327948   -1.989621   -1.612644
     30          1           0        0.043641   -1.960967   -2.914590
     31          1           0       -2.762048   -2.215449    1.292783
     32          1           0       -1.851832   -0.844801    1.966857
     33          1           0       -3.676807    1.399281   -0.463556
     34          1           0        0.848986    2.380278    1.796828
     35          1           0        1.471044    2.772020   -0.756994
 ---------------------------------------------------------------------

 SCF Done:  E(UB3LYP) =  -1218.62842634     A.U. after   33 cycles
 SCF Done:  E(UB3LYP) =  -1218.62842634     a.u. after    1 cycles

 The electronic state is 2-A.
 Alpha  occ. eigenvalues --  -88.74247 -18.98296 -14.25281 -14.23273 -14.17514
 Alpha  occ. eigenvalues --  -10.16159 -10.11611 -10.11453 -10.09330 -10.09085
 Alpha  occ. eigenvalues --  -10.07041 -10.07026 -10.06260 -10.06210 -10.06134
 Alpha  occ. eigenvalues --  -10.06009 -10.05964 -10.05704 -10.05433 -10.05373
 Alpha  occ. eigenvalues --   -7.82913  -5.79188  -5.78854  -5.78523  -0.93760
 Alpha  occ. eigenvalues --   -0.88061  -0.85047  -0.79256  -0.74216  -0.70066
 Alpha  occ. eigenvalues --   -0.67378  -0.66568  -0.63497  -0.61051  -0.60603
 Alpha  occ. eigenvalues --   -0.59137  -0.53149  -0.50576  -0.50291  -0.47973
 Alpha  occ. eigenvalues --   -0.46688  -0.45974  -0.44443  -0.42162  -0.38559
 Alpha  occ. eigenvalues --   -0.38207  -0.36746  -0.36162  -0.34936  -0.34578
 Alpha  occ. eigenvalues --   -0.33704  -0.32583  -0.32317  -0.31023  -0.30934
 Alpha  occ. eigenvalues --   -0.30703  -0.29547  -0.29373  -0.28593  -0.27486
 Alpha  occ. eigenvalues --   -0.26695  -0.26610  -0.24816  -0.23591  -0.23417
 Alpha  occ. eigenvalues --   -0.22579  -0.21627  -0.17822  -0.17553  -0.15905
 Alpha  occ. eigenvalues --   -0.15052  -0.14827  -0.11575  -0.11000  -0.09933
 Alpha  occ. eigenvalues --    0.04637
 Alpha virt. eigenvalues --    0.06196   0.08120   0.08242   0.08443   0.08704
 Alpha virt. eigenvalues --    0.09353   0.09725   0.10044   0.10900   0.11181
 Alpha virt. eigenvalues --    0.11310   0.11908   0.12142   0.12179   0.13001

  Beta  occ. eigenvalues --  -88.74200 -18.98159 -14.25283 -14.23339 -14.17400
  Beta  occ. eigenvalues --  -10.15999 -10.11463 -10.11224 -10.09309 -10.09078
  Beta  occ. eigenvalues --  -10.07070 -10.07032 -10.06280 -10.06190 -10.06102
  Beta  occ. eigenvalues --  -10.05963 -10.05772 -10.05673 -10.05347 -10.05332
  Beta  occ. eigenvalues --   -7.82870  -5.79172  -5.78837  -5.78357  -0.93502
  Beta  occ. eigenvalues --   -0.88026  -0.84708  -0.79113  -0.74154  -0.70014
  Beta  occ. eigenvalues --   -0.67337  -0.66251  -0.63377  -0.60983  -0.60273
  Beta  occ. eigenvalues --   -0.59041  -0.53073  -0.50288  -0.50186  -0.47693
  Beta  occ. eigenvalues --   -0.46566  -0.45886  -0.44249  -0.42074  -0.38437
  Beta  occ. eigenvalues --   -0.38009  -0.36632  -0.36076  -0.34876  -0.34520
  Beta  occ. eigenvalues --   -0.33560  -0.32361  -0.32237  -0.30958  -0.30772
  Beta  occ. eigenvalues --   -0.30535  -0.29460  -0.29112  -0.28514  -0.27351
  Beta  occ. eigenvalues --   -0.26372  -0.25954  -0.24787  -0.23401  -0.23294
  Beta  occ. eigenvalues --   -0.22547  -0.21420  -0.17504  -0.17088  -0.15705
  Beta  occ. eigenvalues --   -0.14880  -0.14055  -0.11054  -0.10436  -0.09500
  Beta virt. eigenvalues --    0.06630   0.08083   0.08413   0.08573   0.08673
  Beta virt. eigenvalues --    0.08998   0.09621   0.09813   0.10637   0.10888
  Beta virt. eigenvalues --    0.11213   0.11867   0.11875   0.12152   0.12754

 Mulliken charges and spin densities:
               1          2
     1  C    0.160403  -0.697236
     2  C   -0.394291  -0.049297
     3  C    0.938096   0.256455
     4  C   -0.819181   0.032113
     5  C   -0.019087  -0.112220
     6  C    0.649202  -0.147080
     7  C   -0.167968  -0.048024
     8  C   -0.842214   0.074424
     9  N    0.195484   0.009997
    10  C   -0.063420  -0.006060
    11  C   -0.350970   0.030892
    12  C    0.016793  -0.072293
    13  C   -0.139199   0.066775
    14  O   -0.343519   0.056011
    15  N   -0.176909  -0.023207
    16  C   -0.201607   0.065617
    17  N   -0.158943   0.067013
    18  C   -0.033435  -0.097096
    19  C   -0.517525   0.182993
    20  S    0.102973   0.150102
    21  H    0.098203   0.023734
    22  H   -0.326528   0.446759
    23  H    0.072302   0.066869
    24  H   -0.073988   0.214663
    25  H    0.014444   0.115188
    26  H    0.096026   0.047261
    27  H    0.122715   0.007575
    28  H    0.114444   0.039931
    29  H    0.148640   0.022628
    30  H    0.123774   0.001602
    31  H    0.195740   0.017020
    32  H    0.150840  -0.001397
    33  H    0.124168   0.216180
    34  H    0.121612   0.032107
    35  H    0.182924   0.010003
 Sum of Mulliken charges =  -1.00000   1.00000

 Dipole moment (field-independent basis, Debye):
    X=              0.8460    Y=             -1.5788    Z=             -0.3778  Tot=              1.8306
 Quadrupole moment (field-independent basis, Debye-Ang):
   XX=           -206.3038   YY=           -152.2029   ZZ=           -136.9767
   XY=              0.6091   XZ=              3.3151   YZ=             -0.6978

 Summary of Natural Population Analysis:

                                       Natural Population
                Natural  -----------------------------------------------
    Atom  No    Charge         Core      Valence    Rydberg      Total
 -----------------------------------------------------------------------
      C    1   -0.28161      0.99966     2.27654    0.00540     3.28161
      C    2   -0.19470      0.99961     2.18545    0.00964     3.19470
      C    3   -0.03422      0.99952     2.02456    0.01014     3.03422
      C    4   -0.07682      0.99947     2.06904    0.00830     3.07682
      C    5   -0.04615      0.99950     2.03586    0.01079     3.04615
      C    6    0.08894      0.99946     1.89978    0.01182     2.91106
      C    7   -0.10641      0.99952     2.09867    0.00823     3.10641
      C    8   -0.10053      0.99953     2.09106    0.00994     3.10053
      N    9   -0.21289      0.99962     2.70357    0.00970     3.71289
      C   10    0.00556      0.99957     1.98467    0.01020     2.99444
      C   11   -0.13429      0.99953     2.12697    0.00779     3.13429
      C   12   -0.12404      0.99958     2.11526    0.00921     3.12404
      C   13    0.36311      0.99970     1.61426    0.02293     2.63689
      O   14   -0.30763      0.99987     3.30169    0.00607     4.30763
      N   15   -0.33381      0.99962     2.82401    0.01018     3.83381
      C   16    0.15807      0.99961     1.81973    0.02259     2.84193
      N   17   -0.24520      0.99964     2.73423    0.01133     3.74520
      C   18   -0.03345      0.99954     2.01911    0.01480     3.03345
      C   19   -0.17274      0.99954     2.16282    0.01038     3.17274
      S   20    0.19387      4.99942     2.78645    0.02026     7.80613
      H   21    0.09743      0.00000     0.40149    0.00107     0.40257
      H   22    0.09392      0.00000     0.40464    0.00144     0.40608
      H   23    0.09742      0.00000     0.40156    0.00102     0.40258
      H   24    0.09636      0.00000     0.40258    0.00105     0.40364
      H   25    0.09485      0.00000     0.40412    0.00103     0.40515
      H   26    0.09350      0.00000     0.40525    0.00125     0.40650
      H   27    0.10201      0.00000     0.39651    0.00148     0.39799
      H   28    0.09413      0.00000     0.40492    0.00094     0.40587
      H   29    0.10099      0.00000     0.39797    0.00104     0.39901
      H   30    0.10185      0.00000     0.39742    0.00073     0.39815
      H   31    0.10309      0.00000     0.39595    0.00096     0.39691
      H   32    0.11975      0.00000     0.37910    0.00116     0.38025
      H   33    0.20144      0.00000     0.29521    0.00336     0.29856
      H   34    0.09448      0.00000     0.40416    0.00135     0.40552
      H   35    0.10370      0.00000     0.39507    0.00123     0.39630
 =======================================================================
   * Total *   -0.00000     23.99150    50.75969    0.24881    75.00000

 Normal termination of Gaussian 16 at Sat Dec 12 16:19:39 2020.
