 Gaussian 16, Revision A.03,

 -----------------------------------------------------------
 # opt freq B3LYP/6-31G(d) empiricaldispersion=gd3bj scf=xqc
 -----------------------------------------------------------

 -----------------------------
 CID_91575173_JID_347_neutraal
 -----------------------------
 Symbolic Z-matrix:
 Charge =  0 Multiplicity = 1

 SCF Done:  E(RB3LYP) =  -437.571354714     A.U. after   15 cycles
 SCF Done:  E(RB3LYP) =  -437.575881902     A.U. after   12 cycles
 SCF Done:  E(RB3LYP) =  -437.576980282     A.U. after   12 cycles
 SCF Done:  E(RB3LYP) =  -437.578239661     A.U. after   12 cycles
 SCF Done:  E(RB3LYP) =  -437.579859287     A.U. after   12 cycles
 SCF Done:  E(RB3LYP) =  -437.580981285     A.U. after   12 cycles
 SCF Done:  E(RB3LYP) =  -437.581782801     A.U. after   12 cycles
 SCF Done:  E(RB3LYP) =  -437.581982313     A.U. after   11 cycles
 SCF Done:  E(RB3LYP) =  -437.582035840     A.U. after   10 cycles
 SCF Done:  E(RB3LYP) =  -437.582051038     A.U. after   10 cycles
 SCF Done:  E(RB3LYP) =  -437.582060211     A.U. after    9 cycles
 SCF Done:  E(RB3LYP) =  -437.582063215     A.U. after    9 cycles
 SCF Done:  E(RB3LYP) =  -437.582065309     A.U. after    8 cycles
 SCF Done:  E(RB3LYP) =  -437.582065843     A.U. after    8 cycles
 Optimization completed.
    -- Stationary point found.

 1\1\GINC-NODE320\FOpt\RB3LYP\6-31G(d)\C7H11N3\VSC10255\08-Dec-2020\0\\
 # opt freq B3LYP/6-31G(d) empiricaldispersion=gd3bj scf=xqc\\CID_91575
 173_JID_347_neutraal\\0,1\C,1.3387531885,-0.6332923962,0.3137513049\C,
 -0.0333232331,-1.031895386,-0.268958722\C,-0.8747464569,-1.805345941,0
 .7203561193\C,-0.6004670835,-3.0484530273,1.1511945886\C,0.4917366484,
 -3.8883024119,0.6506462314\N,0.9971961788,-3.9235602632,-0.5458753883\
 C,0.5631427671,-3.1130224526,-1.5802890541\C,0.0909456065,-1.851056160
 5,-1.5360859602\N,0.9494324311,-4.8252595841,1.5672357406\N,2.09674016

 Normal termination of Gaussian 16 at Tue Dec  8 10:26:20 2020.

 --------------------------------------------------------------------
 #N Geom=AllCheck Guess=TCheck SCRF=Check GenChk RB3LYP/6-31G(d) Freq
 --------------------------------------------------------------------

 Structure from the checkpoint file:  "JID_347.chk"
 -----------------------------
 CID_91575173_JID_347_neutraal
 -----------------------------
 Charge =  0 Multiplicity = 1

 SCF Done:  E(RB3LYP) =  -437.582065843     A.U. after    1 cycles

  Exact polarizability: 123.801  -3.068  91.710   1.620   1.685  60.438
 Approx polarizability: 198.382  -8.348 148.273   4.337   4.517  84.686

                      1                      2                      3
                      A                      A                      A
 Frequencies --     77.3452               160.0163               165.1565
 Red. masses --      3.7282                 3.7157                 1.2714
 Frc consts  --      0.0131                 0.0561                 0.0204
 IR Inten    --      0.0784                 1.6983                11.2433

                      4                      5                      6
                      A                      A                      A
 Frequencies --    195.5672               229.3574               250.0597
 Red. masses --      2.4544                 3.1963                 1.0661
 Frc consts  --      0.0553                 0.0991                 0.0393
 IR Inten    --     13.9164                 8.5613                 0.1939

                      7                      8                      9
                      A                      A                      A
 Frequencies --    284.4672               318.9147               341.1836
 Red. masses --      2.8478                 2.8279                 3.5123
 Frc consts  --      0.1358                 0.1695                 0.2409
 IR Inten    --      1.8549                 2.9220                 5.4169

                     10                     11                     12
                      A                      A                      A
 Frequencies --    418.9636               476.8350               518.9746
 Red. masses --      5.0333                 3.5281                 2.2686
 Frc consts  --      0.5205                 0.4726                 0.3600
 IR Inten    --     11.3790                 0.6556               120.7595

                     13                     14                     15
                      A                      A                      A
 Frequencies --    560.0095               593.1634               683.7641
 Red. masses --      2.7780                 2.3250                 2.7317
 Frc consts  --      0.5133                 0.4820                 0.7525
 IR Inten    --     59.4192               145.7412                 3.0512

                     16                     17                     18
                      A                      A                      A
 Frequencies --    754.7112               774.4921               791.4736
 Red. masses --      1.4781                 2.4022                 2.5511
 Frc consts  --      0.4960                 0.8490                 0.9416
 IR Inten    --     31.7079                20.3885                 4.5209

                     19                     20                     21
                      A                      A                      A
 Frequencies --    815.8857               847.4652               907.2167
 Red. masses --      2.6782                 3.7357                 3.1105
 Frc consts  --      1.0504                 1.5808                 1.5083
 IR Inten    --     20.2159                 4.5819                19.0241

                     22                     23                     24
                      A                      A                      A
 Frequencies --    953.1968               968.0073               991.6380
 Red. masses --      2.1503                 1.3518                 1.3500
 Frc consts  --      1.1511                 0.7463                 0.7821
 IR Inten    --      1.6566                 1.9074                 1.1985

                     25                     26                     27
                      A                      A                      A
 Frequencies --   1009.9841              1041.0615              1106.3618
 Red. masses --      2.6000                 2.0000                 1.7925
 Frc consts  --      1.5626                 1.2771                 1.2927
 IR Inten    --     80.0988                 9.1199                 0.1260

                     28                     29                     30
                      A                      A                      A
 Frequencies --   1118.1257              1178.3770              1206.0610
 Red. masses --      2.0303                 1.7533                 1.8400
 Frc consts  --      1.4955                 1.4344                 1.5769
 IR Inten    --      2.4378                 5.2379                 8.0972

                     31                     32                     33
                      A                      A                      A
 Frequencies --   1247.6836              1301.3902              1336.7445
 Red. masses --      1.1669                 1.7614                 1.7744
 Frc consts  --      1.0703                 1.7577                 1.8680
 IR Inten    --     21.5470                90.7721                25.9736

                     34                     35                     36
                      A                      A                      A
 Frequencies --   1365.6671              1381.6462              1384.1629
 Red. masses --      1.3186                 1.4178                 1.2812
 Frc consts  --      1.4490                 1.5946                 1.4462
 IR Inten    --      3.3919                 0.9686                 8.8074

                     37                     38                     39
                      A                      A                      A
 Frequencies --   1424.8481              1433.4297              1456.2178
 Red. masses --      1.2372                 1.4887                 1.4478
 Frc consts  --      1.4799                 1.8023                 1.8089
 IR Inten    --      2.1534                14.4165                 3.8430

                     40                     41                     42
                      A                      A                      A
 Frequencies --   1503.0760              1521.0785              1529.3151
 Red. masses --      1.6098                 1.0443                 1.0588
 Frc consts  --      2.1428                 1.4236                 1.4590
 IR Inten    --    142.0306                 5.0837                 1.9298

                     43                     44                     45
                      A                      A                      A
 Frequencies --   1632.1794              1677.2278              1715.7282
 Red. masses --      7.7569                 5.7500                 6.3522
 Frc consts  --     12.1751                 9.5301                11.0172
 IR Inten    --    134.9944                13.4143               104.2044

                     46                     47                     48
                      A                      A                      A
 Frequencies --   1749.6036              3052.5856              3060.5983
 Red. masses --      1.0661                 1.0382                 1.0828
 Frc consts  --      1.9229                 5.7000                 5.9762
 IR Inten    --     20.9742                29.7704                32.4103

                     49                     50                     51
                      A                      A                      A
 Frequencies --   3118.8071              3144.0297              3145.0097
 Red. masses --      1.1024                 1.1010                 1.0858
 Frc consts  --      6.3179                 6.4123                 6.3276
 IR Inten    --     24.6283                19.8114                26.1574

                     52                     53                     54
                      A                      A                      A
 Frequencies --   3153.6628              3174.8833              3183.7394
 Red. masses --      1.0846                 1.0953                 1.0937
 Frc consts  --      6.3557                 6.5051                 6.5315
 IR Inten    --     10.9085                34.2751                33.8069

                     55                     56                     57
                      A                      A                      A
 Frequencies --   3413.0569              3491.0793              3585.0782
 Red. masses --      1.0503                 1.0900                 1.0773
 Frc consts  --      7.2085                 7.8272                 8.1581
 IR Inten    --      7.9524                 1.5554                33.2305

 - Thermochemistry -
 -------------------
 Temperature   298.150 Kelvin.  Pressure   1.00000 Atm.
 Atom     1 has atomic number  6 and mass  12.00000

 Molecular mass:   137.09530 amu.
 Principal axes and moments of inertia in atomic units:
                           1         2         3
     Eigenvalues --   756.141891821.009312037.87572
           X            0.99993   0.00648  -0.01005
           Y           -0.00649   0.99998  -0.00113
           Z            0.01004   0.00119   0.99995
 This molecule is an asymmetric top.
 Rotational symmetry number  1.
 Warning -- assumption of classical behavior for rotation
           may cause significant error
 Rotational temperatures (Kelvin)      0.11455     0.04756     0.04250
 Rotational constants (GHZ):           2.38678     0.99107     0.88560
 Zero-point vibrational energy     472048.6 (Joules/Mol)
                                  112.82233 (Kcal/Mol)
 Warning -- explicit consideration of  14 degrees of freedom as
           vibrations may cause significant error
 Vibrational temperatures:    111.28   230.23   237.62   281.38   329.99
          (Kelvin)            359.78   409.28   458.85   490.89   602.80
                              686.06   746.69   805.73   853.43   983.78
                             1085.86  1114.32  1138.75  1173.88  1219.31
                             1305.28  1371.44  1392.75  1426.75  1453.14
                             1497.86  1591.81  1608.73  1695.42  1735.25
                             1795.14  1872.41  1923.28  1964.89  1987.88
                             1991.50  2050.04  2062.39  2095.17  2162.59
                             2188.49  2200.34  2348.34  2413.16  2468.55
                             2517.29  4391.99  4403.52  4487.27  4523.56
                             4524.97  4537.42  4567.95  4580.69  4910.63
                             5022.88  5158.13

 Zero-point correction=                           0.179794 (Hartree/Particle)
 Thermal correction to Energy=                    0.189463
 Thermal correction to Enthalpy=                  0.190407
 Thermal correction to Gibbs Free Energy=         0.145481
 Sum of electronic and zero-point Energies=           -437.402272
 Sum of electronic and thermal Energies=              -437.392603
 Sum of electronic and thermal Enthalpies=            -437.391659
 Sum of electronic and thermal Free Energies=         -437.436585

                     E (Thermal)             CV                S
                      KCal/Mol        Cal/Mol-Kelvin    Cal/Mol-Kelvin
 Total                  118.890             37.114             94.555
 Electronic               0.000              0.000              0.000
 Translational            0.889              2.981             40.658
 Rotational               0.889              2.981             29.419
 Vibrational            117.112             31.152             24.478
 Vibration     1          0.599              1.964              3.957
 Vibration     2          0.622              1.891              2.550
 Vibration     3          0.624              1.885              2.490
 Vibration     4          0.636              1.846              2.174
 Vibration     5          0.652              1.796              1.884
 Vibration     6          0.663              1.763              1.730
 Vibration     7          0.683              1.702              1.507
 Vibration     8          0.705              1.637              1.316
 Vibration     9          0.721              1.593              1.207
 Vibration    10          0.782              1.429              0.895
 Vibration    11          0.833              1.301              0.719
 Vibration    12          0.874              1.208              0.612
 Vibration    13          0.916              1.118              0.524
 Vibration    14          0.951              1.046              0.462

                           ! Non-Optimized Parameters !

 1\1\GINC-NODE320\Freq\RB3LYP\6-31G(d)\C7H11N3\VSC10255\08-Dec-2020\0\\
 #N Geom=AllCheck Guess=TCheck SCRF=Check GenChk RB3LYP/6-31G(d) Freq\\
 CID_91575173_JID_347_neutraal\\0,1\C,1.3387531885,-0.6332923962,0.3137
 513049\C,-0.0333232331,-1.031895386,-0.268958722\C,-0.8747464569,-1.80
 5345941,0.7203561193\C,-0.6004670835,-3.0484530273,1.1511945886\C,0.49
 17366484,-3.8883024119,0.6506462314\N,0.9971961788,-3.9235602632,-0.54
 58753883\C,0.5631427671,-3.1130224526,-1.5802890541\C,0.0909456065,-1.
 8510561605,-1.5360859602\N,0.9494324311,-4.8252595841,1.5672357406\N,2

 Normal termination of Gaussian 16 at Tue Dec  8 10:29:45 2020.

 ----------------------------------------------------------------------
 # B3LYP/6-311++G(d,p) empiricaldispersion=gd3bj scf=xqc pop=npa geom=c
 heck
 ----------------------------------------------------------------------

 -------------------------------------
 CID_91575173_JID_347_Energie_neutraal
 -------------------------------------
 Structure from the checkpoint file:  "JID_347.chk"
 Charge =  0 Multiplicity = 1

 SCF Done:  E(RB3LYP) =  -437.712827320     A.U. after   15 cycles
 Normal termination of Gaussian 16 at Tue Dec  8 10:30:42 2020.

 ----------------------------------------------------------------------
 # B3LYP/6-311++G(d,p) empiricaldispersion=gd3bj scf=xqc pop=npa geom=c
 heck
 ----------------------------------------------------------------------

 -----------------------------------
 CID_91575173_JID_347_Energie_kation
 -----------------------------------
 Structure from the checkpoint file:  "JID_347.chk"
 Charge =  1 Multiplicity = 2

 SCF Done:  E(UB3LYP) =  -437.426606408     A.U. after   21 cycles
 Normal termination of Gaussian 16 at Tue Dec  8 10:33:58 2020.
 Gaussian 16:  ES64L-G16RevA.03 25-Dec-2016

 ----------------------------------
 CID_91575173_JID_347_Energie_anion
 ----------------------------------
 Structure from the checkpoint file:  "JID_347.chk"
 Charge = -1 Multiplicity = 2

                         Standard orientation:
 ---------------------------------------------------------------------
 Center     Atomic      Atomic             Coordinates (Angstroms)
 Number     Number       Type             X           Y           Z
 ---------------------------------------------------------------------
      1          6           0       -1.835908   -0.375617    1.608963
      2          6           0       -2.071213   -0.243486    0.089686
      3          6           0       -1.274113   -1.252554   -0.704905
      4          6           0        0.064441   -1.247186   -0.824949
      5          6           0        0.950222   -0.205099   -0.297455
      6          7           0        0.708535    1.064329   -0.161304
      7          6           0       -0.498766    1.650398   -0.499434
      8          6           0       -1.744929    1.140868   -0.429141
      9          7           0        2.236193   -0.646139   -0.015903
     10          7           0        3.149660    0.214010    0.637563
     11          1           0       -2.065530   -1.390455    1.953968
     12          1           0       -2.475466    0.329541    2.150314
     13          1           0       -0.796087   -0.152073    1.861772
     14          1           0       -3.133403   -0.436477   -0.097101
     15          1           0       -1.825518   -2.050107   -1.201013
     16          1           0        0.554588   -2.054560   -1.366380
     17          1           0       -0.388079    2.688709   -0.812567
     18          1           0       -2.571874    1.775765   -0.738003
     19          1           0        2.307783   -1.599017    0.318279
     20          1           0        3.607943    0.757662   -0.095013
     21          1           0        2.586521    0.901657    1.146665
 ---------------------------------------------------------------------

 SCF Done:  E(UB3LYP) =  -437.699289018     A.U. after   33 cycles
 SCF Done:  E(UB3LYP) =  -437.699289018     a.u. after    1 cycles

 The electronic state is 2-A.
 Alpha  occ. eigenvalues --  -14.22763 -14.21590 -14.15861 -10.11030 -10.06371
 Alpha  occ. eigenvalues --  -10.05288 -10.04068 -10.03667 -10.03308 -10.03200
 Alpha  occ. eigenvalues --   -0.87889  -0.78616  -0.68773  -0.68631  -0.62198
 Alpha  occ. eigenvalues --   -0.58729  -0.51682  -0.51195  -0.43015  -0.41957
 Alpha  occ. eigenvalues --   -0.38517  -0.37760  -0.36159  -0.34083  -0.31141
 Alpha  occ. eigenvalues --   -0.29832  -0.28494  -0.27439  -0.26748  -0.23876
 Alpha  occ. eigenvalues --   -0.21398  -0.20632  -0.18034  -0.16001  -0.13379
 Alpha  occ. eigenvalues --   -0.12475  -0.08734   0.05495
 Alpha virt. eigenvalues --    0.07949   0.08350   0.08793   0.09524   0.10308
 Alpha virt. eigenvalues --    0.10808   0.11572   0.11978   0.12939   0.13170
 Alpha virt. eigenvalues --    0.13995   0.14914   0.17044   0.17526   0.19015

  Beta  occ. eigenvalues --  -14.22716 -14.21580 -14.15766 -10.10913 -10.06394
  Beta  occ. eigenvalues --  -10.05297 -10.03774 -10.03622 -10.03220 -10.03155
  Beta  occ. eigenvalues --   -0.87780  -0.78439  -0.68643  -0.68351  -0.61985
  Beta  occ. eigenvalues --   -0.58621  -0.51580  -0.50797  -0.42786  -0.41861
  Beta  occ. eigenvalues --   -0.38424  -0.37643  -0.36040  -0.33969  -0.31038
  Beta  occ. eigenvalues --   -0.29624  -0.28408  -0.27321  -0.26336  -0.23593
  Beta  occ. eigenvalues --   -0.21264  -0.20507  -0.17857  -0.15870  -0.12462
  Beta  occ. eigenvalues --   -0.12258  -0.08318
  Beta virt. eigenvalues --    0.07921   0.08859   0.09011   0.09812   0.10184
  Beta virt. eigenvalues --    0.10678   0.11195   0.11856   0.12381   0.13363
  Beta virt. eigenvalues --    0.13653   0.14342   0.14949   0.17200   0.17487

 Mulliken charges and spin densities:
               1          2
     1  C    0.909446  -1.520284
     2  C   -0.019428   0.250122
     3  C    0.096185  -0.125444
     4  C    0.414260  -0.487260
     5  C   -0.449204   0.088661
     6  N   -0.211516   0.055646
     7  C   -0.379421  -0.002525
     8  C    0.357403  -0.478154
     9  N   -0.176242   0.139720
    10  N   -0.241514  -0.159972
    11  H   -0.328598   0.450287
    12  H   -0.147411   0.273879
    13  H   -0.166616   0.328687
    14  H   -0.521801   0.702021
    15  H   -0.564137   0.730548
    16  H    0.137631   0.012213
    17  H   -0.102081   0.244477
    18  H   -0.122679   0.271804
    19  H    0.224100   0.030019
    20  H    0.139916   0.106567
    21  H    0.151707   0.088989
 Sum of Mulliken charges =  -1.00000   1.00000

 Dipole moment (field-independent basis, Debye):
    X=              4.6814    Y=              1.1572    Z=             -1.0937  Tot=              4.9448
 Quadrupole moment (field-independent basis, Debye-Ang):
   XX=           -109.2780   YY=            -89.2911   ZZ=            -86.5787
   XY=             -8.3650   XZ=              0.6355   YZ=              1.0613

 Summary of Natural Population Analysis:

                                       Natural Population
                Natural  -----------------------------------------------
    Atom  No    Charge         Core      Valence    Rydberg      Total
 -----------------------------------------------------------------------
      C    1   -0.27583      0.99965     2.26947    0.00671     3.27583
      C    2   -0.15417      0.99958     2.14171    0.01288     3.15417
      C    3    0.01274      0.99954     1.97527    0.01245     2.98726
      C    4   -0.15684      0.99949     2.14604    0.01132     3.15684
      C    5    0.22889      0.99954     1.75647    0.01510     2.77111
      N    6   -0.29338      0.99963     2.77944    0.01431     3.79338
      C    7   -0.00417      0.99950     1.99016    0.01451     3.00417
      C    8   -0.09944      0.99953     2.08787    0.01204     3.09944
      N    9   -0.22470      0.99967     2.71212    0.01291     3.72470
      N   10   -0.32438      0.99978     2.81409    0.01051     3.82438
      H   11    0.09836      0.00000     0.40027    0.00136     0.40164
      H   12    0.09642      0.00000     0.40221    0.00137     0.40358
      H   13    0.09843      0.00000     0.40019    0.00138     0.40157
      H   14    0.10160      0.00000     0.39529    0.00311     0.39840
      H   15    0.09326      0.00000     0.40537    0.00137     0.40674
      H   16    0.09722      0.00000     0.40093    0.00185     0.40278
      H   17    0.08601      0.00000     0.41254    0.00146     0.41399
      H   18    0.09481      0.00000     0.40415    0.00104     0.40519
      H   19    0.17899      0.00000     0.31819    0.00282     0.32101
      H   20    0.16881      0.00000     0.32858    0.00261     0.33119
      H   21    0.17736      0.00000     0.31947    0.00316     0.32264
 =======================================================================
   * Total *   -0.00000      9.99590    26.85983    0.14427    37.00000

 Normal termination of Gaussian 16 at Tue Dec  8 10:42:24 2020.
