 Gaussian 16, Revision A.03,

 -----------------------------------------------------------
 # opt freq B3LYP/6-31G(d) empiricaldispersion=gd3bj scf=xqc
 -----------------------------------------------------------

 -------------------------------
 CID_150303256_JID_3994_neutraal
 -------------------------------
 Symbolic Z-matrix:
 Charge =  0 Multiplicity = 1

 SCF Done:  E(RB3LYP) =  -618.637491780     A.U. after   17 cycles
 SCF Done:  E(RB3LYP) =  -618.647215980     A.U. after   15 cycles
 SCF Done:  E(RB3LYP) =  -618.649538436     A.U. after   14 cycles
 SCF Done:  E(RB3LYP) =  -618.651508184     A.U. after   16 cycles
 SCF Done:  E(RB3LYP) =  -618.652842191     A.U. after   16 cycles
 SCF Done:  E(RB3LYP) =  -618.653476028     A.U. after   16 cycles
 SCF Done:  E(RB3LYP) =  -618.653883125     A.U. after   13 cycles
 SCF Done:  E(RB3LYP) =  -618.653964860     A.U. after   13 cycles
 SCF Done:  E(RB3LYP) =  -618.653992640     A.U. after   11 cycles
 SCF Done:  E(RB3LYP) =  -618.654003157     A.U. after   10 cycles
 SCF Done:  E(RB3LYP) =  -618.654009412     A.U. after   10 cycles
 SCF Done:  E(RB3LYP) =  -618.654011997     A.U. after   10 cycles
 SCF Done:  E(RB3LYP) =  -618.654012927     A.U. after    9 cycles
 SCF Done:  E(RB3LYP) =  -618.654013247     A.U. after    9 cycles
 Optimization completed.
    -- Stationary point found.
 Normal termination of Gaussian 16 at Sun Dec 13 12:21:08 2020.

 --------------------------------------------------------------------
 #N Geom=AllCheck Guess=TCheck SCRF=Check GenChk RB3LYP/6-31G(d) Freq
 --------------------------------------------------------------------

 Structure from the checkpoint file:  "JID_3994.chk"
 -------------------------------
 CID_150303256_JID_3994_neutraal
 -------------------------------
 Charge =  0 Multiplicity = 1

 SCF Done:  E(RB3LYP) =  -618.654013247     A.U. after    1 cycles

  Exact polarizability: 133.925 -17.492  95.932  13.497   7.947  80.419
 Approx polarizability: 234.224 -62.599 195.730  41.490  11.896 157.685

                      1                      2                      3
                      A                      A                      A
 Frequencies --     45.1103                55.4155               119.6497
 Red. masses --      8.7795                 8.6926                 7.2723
 Frc consts  --      0.0105                 0.0157                 0.0613
 IR Inten    --      2.1832                 0.3169                 0.3597

                      4                      5                      6
                      A                      A                      A
 Frequencies --    176.9309               225.0160               323.4225
 Red. masses --      7.0369                 8.9084                 4.2023
 Frc consts  --      0.1298                 0.2658                 0.2590
 IR Inten    --      0.3594                 0.1603                 0.4962

                      7                      8                      9
                      A                      A                      A
 Frequencies --    375.9204               416.6747               449.8845
 Red. masses --      4.5634                 5.6392                 4.7901
 Frc consts  --      0.3800                 0.5769                 0.5712
 IR Inten    --      2.8059                 5.2481                 5.4853

                     10                     11                     12
                      A                      A                      A
 Frequencies --    463.7664               515.5993               545.2921
 Red. masses --      6.4594                 8.9003                 3.5838
 Frc consts  --      0.8185                 1.3941                 0.6278
 IR Inten    --      3.9076                 4.7005                 6.4182

                     13                     14                     15
                      A                      A                      A
 Frequencies --    555.1357               578.2839               586.5869
 Red. masses --      8.2873                13.0017                10.1310
 Frc consts  --      1.5047                 2.5617                 2.0538
 IR Inten    --     15.8044                 6.6877                12.5021

                     16                     17                     18
                      A                      A                      A
 Frequencies --    682.3885               728.9992               745.5797
 Red. masses --      7.3689                 9.7886                 6.5168
 Frc consts  --      2.0217                 3.0650                 2.1344
 IR Inten    --     67.4593                38.7390                 9.3744

                     19                     20                     21
                      A                      A                      A
 Frequencies --    773.9088               804.2183               867.2936
 Red. masses --      1.2990                 8.6265                 8.1379
 Frc consts  --      0.4584                 3.2873                 3.6066
 IR Inten    --     32.5714                 7.5803               120.8799

                     22                     23                     24
                      A                      A                      A
 Frequencies --    895.6384               926.2554               936.8450
 Red. masses --      6.9772                 2.9089                 2.0921
 Frc consts  --      3.2976                 1.4704                 1.0819
 IR Inten    --     97.8966                50.2355                10.0664

                     25                     26                     27
                      A                      A                      A
 Frequencies --    983.4142               992.8066              1026.1627
 Red. masses --      1.3130                 1.4679                 2.6450
 Frc consts  --      0.7482                 0.8524                 1.6410
 IR Inten    --      1.8622                 0.3649                16.7756

                     28                     29                     30
                      A                      A                      A
 Frequencies --   1129.2024              1175.5918              1221.0524
 Red. masses --      5.6594                 1.2690                 2.8621
 Frc consts  --      4.2517                 1.0333                 2.5142
 IR Inten    --     31.0703                24.1453               103.9249

                     31                     32                     33
                      A                      A                      A
 Frequencies --   1253.7606              1277.3338              1292.6756
 Red. masses --      2.4404                 3.4247                 1.8245
 Frc consts  --      2.2602                 3.2922                 1.7963
 IR Inten    --     19.6638               192.3859                12.1314

                     34                     35                     36
                      A                      A                      A
 Frequencies --   1381.2204              1398.2318              1408.4407
 Red. masses --      1.4729                 1.4754                 2.1247
 Frc consts  --      1.6555                 1.6995                 2.4833
 IR Inten    --     58.6158                22.8334                12.9466

                     37                     38                     39
                      A                      A                      A
 Frequencies --   1441.6710              1478.1529              1552.4286
 Red. masses --      1.7985                 2.2447                 5.6875
 Frc consts  --      2.2024                 2.8897                 8.0759
 IR Inten    --      3.5436                46.6102               235.7444

                     40                     41                     42
                      A                      A                      A
 Frequencies --   1589.5777              1677.2710              1701.4965
 Red. masses --      6.2756                 6.1489                 7.0404
 Frc consts  --      9.3427                10.1919                12.0091
 IR Inten    --      3.4765                38.4706               420.6858

                     43                     44                     45
                      A                      A                      A
 Frequencies --   2268.2264              3150.0396              3181.3916
 Red. masses --     13.9348                 1.0898                 1.0907
 Frc consts  --     42.2400                 6.3710                 6.5039
 IR Inten    --    345.5385                37.0227                25.2967

                     46                     47                     48
                      A                      A                      A
 Frequencies --   3185.9868              3190.3138              3227.3388
 Red. masses --      1.0902                 1.0932                 1.0955
 Frc consts  --      6.5197                 6.5554                 6.7229
 IR Inten    --      3.9365                12.7467                10.4160

 - Thermochemistry -
 -------------------
 Temperature   298.150 Kelvin.  Pressure   1.00000 Atm.
 Atom     1 has atomic number  6 and mass  12.00000

 Molecular mass:   175.04941 amu.
 Principal axes and moments of inertia in atomic units:
                           1         2         3
     Eigenvalues --  1239.775812508.387182806.72318
           X            0.99969  -0.01440   0.02027
           Y            0.01302   0.99769   0.06668
           Z           -0.02118  -0.06639   0.99757
 This molecule is an asymmetric top.
 Rotational symmetry number  1.
 Warning -- assumption of classical behavior for rotation
           may cause significant error
 Rotational temperatures (Kelvin)      0.06986     0.03453     0.03086
 Rotational constants (GHZ):           1.45570     0.71948     0.64301
 Zero-point vibrational energy     328839.1 (Joules/Mol)
                                   78.59443 (Kcal/Mol)
 Warning -- explicit consideration of  15 degrees of freedom as
           vibrations may cause significant error
 Vibrational temperatures:     64.90    79.73   172.15   254.56   323.75
          (Kelvin)            465.33   540.87   599.50   647.28   667.26
                              741.83   784.55   798.72   832.02   843.97
                              981.80  1048.87  1072.72  1113.48  1157.09
                             1247.84  1288.62  1332.67  1347.91  1414.91
                             1428.43  1476.42  1624.67  1691.41  1756.82
                             1803.88  1837.80  1859.87  1987.27  2011.74
                             2026.43  2074.24  2126.73  2233.60  2287.05
                             2413.22  2448.07  3263.47  4532.20  4577.31
                             4583.92  4590.15  4643.42

 Zero-point correction=                           0.125248 (Hartree/Particle)
 Thermal correction to Energy=                    0.134977
 Thermal correction to Enthalpy=                  0.135921
 Thermal correction to Gibbs Free Energy=         0.088937
 Sum of electronic and zero-point Energies=           -618.528765
 Sum of electronic and thermal Energies=              -618.519037
 Sum of electronic and thermal Enthalpies=            -618.518092
 Sum of electronic and thermal Free Energies=         -618.565077

                     E (Thermal)             CV                S
                      KCal/Mol        Cal/Mol-Kelvin    Cal/Mol-Kelvin
 Total                   84.699             37.096             98.886
 Electronic               0.000              0.000              0.000
 Translational            0.889              2.981             41.387
 Rotational               0.889              2.981             30.546
 Vibrational             82.922             31.135             26.953
 Vibration     1          0.595              1.979              5.021
 Vibration     2          0.596              1.975              4.614
 Vibration     3          0.609              1.933              3.106
 Vibration     4          0.628              1.871              2.361
 Vibration     5          0.650              1.803              1.918
 Vibration     6          0.708              1.629              1.293
 Vibration     7          0.747              1.521              1.056
 Vibration     8          0.780              1.434              0.903
 Vibration     9          0.809              1.361              0.796
 Vibration    10          0.821              1.330              0.755
 Vibration    11          0.871              1.215              0.620
 Vibration    12          0.900              1.150              0.554
 Vibration    13          0.911              1.128              0.534
 Vibration    14          0.935              1.078              0.489
 Vibration    15          0.944              1.060              0.473

                           ! Non-Optimized Parameters !
 Normal termination of Gaussian 16 at Sun Dec 13 12:25:24 2020.

 ----------------------------------------------------------------------
 # B3LYP/6-311++G(d,p) empiricaldispersion=gd3bj scf=xqc pop=npa geom=c
 heck
 ----------------------------------------------------------------------

 ---------------------------------------
 CID_150303256_JID_3994_Energie_neutraal
 ---------------------------------------
 Structure from the checkpoint file:  "JID_3994.chk"
 Charge =  0 Multiplicity = 1

 SCF Done:  E(RB3LYP) =  -618.817223431     A.U. after   16 cycles
 Normal termination of Gaussian 16 at Sun Dec 13 12:27:02 2020.

 ----------------------------------------------------------------------
 # B3LYP/6-311++G(d,p) empiricaldispersion=gd3bj scf=xqc pop=npa geom=c
 heck
 ----------------------------------------------------------------------

 -------------------------------------
 CID_150303256_JID_3994_Energie_kation
 -------------------------------------
 Structure from the checkpoint file:  "JID_3994.chk"
 Charge =  1 Multiplicity = 2

 SCF Done:  E(UB3LYP) =  -618.510642495     A.U. after   27 cycles
 Normal termination of Gaussian 16 at Sun Dec 13 12:30:54 2020.
 Gaussian 16:  ES64L-G16RevA.03 25-Dec-2016

 ----------------------------------------------------------------------
 # B3LYP/6-311++G(d,p) empiricaldispersion=gd3bj scf=xqc pop=npa geom=c
 heck
 ----------------------------------------------------------------------

 ------------------------------------
 CID_150303256_JID_3994_Energie_anion
 ------------------------------------
 Structure from the checkpoint file:  "JID_3994.chk"
 Charge = -1 Multiplicity = 2

                         Standard orientation:
 ---------------------------------------------------------------------
 Center     Atomic      Atomic             Coordinates (Angstroms)
 Number     Number       Type             X           Y           Z
 ---------------------------------------------------------------------
      1          6           0        2.936319   -0.028895    0.619389
      2          6           0        1.968905    0.850520    0.989784
      3          6           0        0.715674    0.815968    0.300064
      4          6           0       -0.266465    1.755554    0.460603
      5          8           0       -1.408021    1.717028   -0.197185
      6          6           0       -1.734573    0.420039   -0.882892
      7          7           0       -0.635910   -0.298625   -1.382288
      8          6           0        0.499379   -0.182670   -0.752302
      9          7           0        1.543838   -1.011858   -1.142395
     10          6           0        2.659571   -0.926813   -0.475712
     11          7           0       -2.579214   -0.339190    0.063507
     12          7           0       -1.978044   -1.156549    0.775944
     13          7           0       -1.538652   -1.943449    1.471221
     14          1           0        3.906087   -0.058602    1.103445
     15          1           0        2.122095    1.575839    1.785496
     16          1           0       -0.163977    2.633140    1.096125
     17          1           0       -2.410587    0.743472   -1.670226
     18          1           0        3.453558   -1.604596   -0.792879
 ---------------------------------------------------------------------

 SCF Done:  E(UB3LYP) =  -618.865976620     A.U. after   24 cycles

 The electronic state is 2-A.
 Alpha  occ. eigenvalues --  -19.01727 -14.36000 -14.25943 -14.22970 -14.13659
 Alpha  occ. eigenvalues --  -14.12562 -10.15816 -10.08142 -10.07694 -10.04754
 Alpha  occ. eigenvalues --  -10.03277 -10.02888 -10.02108  -1.01863  -0.94399
 Alpha  occ. eigenvalues --   -0.85548  -0.79776  -0.73954  -0.66608  -0.63104
 Alpha  occ. eigenvalues --   -0.56355  -0.52718  -0.47140  -0.45877  -0.40724
 Alpha  occ. eigenvalues --   -0.40292  -0.38412  -0.37643  -0.36680  -0.33316
 Alpha  occ. eigenvalues --   -0.32267  -0.30767  -0.29481  -0.26915  -0.26706
 Alpha  occ. eigenvalues --   -0.25137  -0.24261  -0.21753  -0.19493  -0.16368
 Alpha  occ. eigenvalues --   -0.15476  -0.13650  -0.12027  -0.09293  -0.06901
 Alpha  occ. eigenvalues --    0.01560
 Alpha virt. eigenvalues --    0.08416   0.09186   0.10365   0.11153   0.11872
 Alpha virt. eigenvalues --    0.12060   0.13038   0.13567   0.15117   0.15816
 Alpha virt. eigenvalues --    0.16581   0.17523   0.17582   0.18335   0.19321

  Beta  occ. eigenvalues --  -19.01382 -14.35984 -14.25908 -14.22982 -14.13588
  Beta  occ. eigenvalues --  -14.12359 -10.15816 -10.08035 -10.07024 -10.04446
  Beta  occ. eigenvalues --  -10.03086 -10.02915 -10.02185  -1.01820  -0.93736
  Beta  occ. eigenvalues --   -0.85460  -0.79425  -0.73581  -0.66173  -0.62715
  Beta  occ. eigenvalues --   -0.56213  -0.51756  -0.46687  -0.45584  -0.40502
  Beta  occ. eigenvalues --   -0.40080  -0.38130  -0.37497  -0.36435  -0.33208
  Beta  occ. eigenvalues --   -0.31905  -0.30485  -0.29026  -0.26611  -0.25669
  Beta  occ. eigenvalues --   -0.24768  -0.22839  -0.21387  -0.19289  -0.15374
  Beta  occ. eigenvalues --   -0.14596  -0.13049  -0.11618  -0.09161  -0.05523
  Beta virt. eigenvalues --    0.08145   0.08746   0.09173   0.10355   0.11148
  Beta virt. eigenvalues --    0.12038   0.12221   0.13498   0.13829   0.15469
  Beta virt. eigenvalues --    0.16532   0.16841   0.17557   0.17902   0.18335

 Mulliken charges and spin densities:
               1          2
     1  C   -0.109809  -0.031790
     2  C   -0.633947   0.280824
     3  C    1.049663  -0.161284
     4  C   -0.248734   0.497017
     5  O   -0.080858   0.069923
     6  C   -0.543976  -0.009936
     7  N   -0.077618   0.106953
     8  C   -0.822917   0.039087
     9  N   -0.047606   0.022831
    10  C   -0.203695   0.225654
    11  N    0.267539   0.048749
    12  N    0.383770  -0.013343
    13  N   -0.617317  -0.014236
    14  H    0.108043   0.004222
    15  H    0.097941  -0.018579
    16  H    0.129296  -0.029840
    17  H    0.220351   0.003790
    18  H    0.129875  -0.020041
 Sum of Mulliken charges =  -1.00000   1.00000

 Dipole moment (field-independent basis, Debye):
    X=             -0.6009    Y=              2.4071    Z=              2.4551  Tot=              3.4904
 Quadrupole moment (field-independent basis, Debye-Ang):
   XX=            -94.6136   YY=            -88.8326   ZZ=            -88.7526
   XY=              1.8289   XZ=              3.6939   YZ=             -0.7346

 Summary of Natural Population Analysis:

                                       Natural Population
                Natural  -----------------------------------------------
    Atom  No    Charge         Core      Valence    Rydberg      Total
 -----------------------------------------------------------------------
      C    1   -0.18506      0.99956     2.17535    0.01015     3.18506
      C    2    0.00648      0.99954     1.98501    0.00897     2.99352
      C    3   -0.17287      0.99948     2.16485    0.00854     3.17287
      C    4    0.27809      0.99949     1.70858    0.01384     2.72191
      O    5   -0.23496      0.99987     3.22496    0.01013     4.23496
      C    6    0.21614      0.99960     1.76403    0.02022     2.78386
      N    7   -0.27934      0.99964     2.76526    0.01443     3.77934
      C    8    0.22778      0.99950     1.75422    0.01849     2.77222
      N    9   -0.24982      0.99968     2.73675    0.01339     3.74982
      C   10    0.11287      0.99963     1.87232    0.01517     2.88713
      N   11   -0.19905      0.99969     2.68351    0.01585     3.69905
      N   12    0.12362      0.99971     2.35942    0.01725     3.37638
      N   13   -0.04407      0.99982     2.53127    0.01298     3.54407
      H   14    0.09144      0.00000     0.40722    0.00133     0.40856
      H   15    0.08457      0.00000     0.41355    0.00189     0.41543
      H   16    0.06932      0.00000     0.42945    0.00123     0.43068
      H   17    0.08405      0.00000     0.41448    0.00147     0.41595
      H   18    0.07080      0.00000     0.42751    0.00169     0.42920
 =======================================================================
   * Total *   -0.00000     12.99521    31.81776    0.18703    45.00000

 Normal termination of Gaussian 16 at Sun Dec 13 12:34:21 2020.
