 Gaussian 16, Revision A.03,

 -----------------------------------------------------------
 # opt freq B3LYP/6-31G(d) empiricaldispersion=gd3bj scf=xqc
 -----------------------------------------------------------

 ------------------------------
 CID_66339471_JID_4787_neutraal
 ------------------------------
 Symbolic Z-matrix:
 Charge =  0 Multiplicity = 1

 SCF Done:  E(RB3LYP) =  -724.795224817     A.U. after   14 cycles
 SCF Done:  E(RB3LYP) =  -724.807696937     A.U. after   13 cycles
 SCF Done:  E(RB3LYP) =  -724.810240082     A.U. after   13 cycles
 SCF Done:  E(RB3LYP) =  -724.812106246     A.U. after   14 cycles
 SCF Done:  E(RB3LYP) =  -724.815149287     A.U. after   13 cycles
 SCF Done:  E(RB3LYP) =  -724.808273915     A.U. after   14 cycles
 SCF Done:  E(RB3LYP) =  -724.815042388     A.U. after   13 cycles
 SCF Done:  E(RB3LYP) =  -724.816308282     A.U. after   11 cycles
 SCF Done:  E(RB3LYP) =  -724.813239905     A.U. after   13 cycles
 SCF Done:  E(RB3LYP) =  -724.817943989     A.U. after   12 cycles
 SCF Done:  E(RB3LYP) =  -724.822143319     A.U. after    8 cycles
 SCF Done:  E(RB3LYP) =  -724.822143717     A.U. after    8 cycles
 SCF Done:  E(RB3LYP) =  -724.822143804     A.U. after    7 cycles
 SCF Done:  E(RB3LYP) =  -724.822143840     A.U. after    7 cycles
 SCF Done:  E(RB3LYP) =  -724.822143852     A.U. after    6 cycles
 Optimization completed.
    -- Stationary point found.
 Normal termination of Gaussian 16 at Thu Dec 10 10:55:36 2020.

 --------------------------------------------------------------------
 #N Geom=AllCheck Guess=TCheck SCRF=Check GenChk RB3LYP/6-31G(d) Freq
 --------------------------------------------------------------------

 Structure from the checkpoint file:  "JID_4787.chk"
 ------------------------------
 CID_66339471_JID_4787_neutraal
 ------------------------------
 Charge =  0 Multiplicity = 1

 SCF Done:  E(RB3LYP) =  -724.822143852     A.U. after    1 cycles

  Exact polarizability: 122.321   4.851 113.682   0.668  -1.067  94.355
 Approx polarizability: 144.698   7.756 151.685  -0.765  -3.827 153.456

                      1                      2                      3
                      A                      A                      A
 Frequencies --     26.2015                32.7584                42.9157
 Red. masses --      5.2545                 3.8151                 3.6702
 Frc consts  --      0.0021                 0.0024                 0.0040
 IR Inten    --      2.7419                 4.1519                 1.9294

                      4                      5                      6
                      A                      A                      A
 Frequencies --     62.3806                65.6167                95.6088
 Red. masses --      3.9045                 3.7215                 4.6523
 Frc consts  --      0.0090                 0.0094                 0.0251
 IR Inten    --      0.3481                 0.9363                 2.8518

                      7                      8                      9
                      A                      A                      A
 Frequencies --    119.9136               145.3365               164.2416
 Red. masses --      5.0821                 3.3013                 5.0740
 Frc consts  --      0.0431                 0.0411                 0.0806
 IR Inten    --      3.5696                 4.4274                 4.3842

                     10                     11                     12
                      A                      A                      A
 Frequencies --    232.8329               252.8281               275.5779
 Red. masses --      2.2615                 1.9874                 1.5449
 Frc consts  --      0.0722                 0.0748                 0.0691
 IR Inten    --      3.1822                15.5749                26.9409

                     13                     14                     15
                      A                      A                      A
 Frequencies --    313.7122               333.0662               368.5153
 Red. masses --      2.6959                 2.5629                 3.3701
 Frc consts  --      0.1563                 0.1675                 0.2697
 IR Inten    --      1.7317                12.8438                18.0580

                     16                     17                     18
                      A                      A                      A
 Frequencies --    407.5035               424.3296               498.3931
 Red. masses --      3.6643                 2.4301                 2.7755
 Frc consts  --      0.3585                 0.2578                 0.4062
 IR Inten    --      2.8861                 2.6146                 3.2799

                     19                     20                     21
                      A                      A                      A
 Frequencies --    549.3192               577.9132               605.3114
 Red. masses --      1.9383                 3.5759                 1.8853
 Frc consts  --      0.3446                 0.7036                 0.4070
 IR Inten    --    157.5070                 1.9302                 1.4655

                     22                     23                     24
                      A                      A                      A
 Frequencies --    610.0501               714.0976               715.9285
 Red. masses --      4.1328                 3.9552                 4.6664
 Frc consts  --      0.9062                 1.1883                 1.4092
 IR Inten    --     12.1328                 7.3390                 5.5297

                     25                     26                     27
                      A                      A                      A
 Frequencies --    812.6317               844.5056               866.7327
 Red. masses --      3.3277                 2.1967                 3.6794
 Frc consts  --      1.2948                 0.9231                 1.6285
 IR Inten    --     36.0864                 0.7483                31.4708

                     28                     29                     30
                      A                      A                      A
 Frequencies --    886.9895               902.0029               914.7801
 Red. masses --      1.7351                 2.5410                 2.2543
 Frc consts  --      0.8043                 1.2181                 1.1115
 IR Inten    --     12.9857                 5.5471                14.9886

                     31                     32                     33
                      A                      A                      A
 Frequencies --    935.6710               955.0527               992.4221
 Red. masses --      2.3497                 2.7757                 2.5669
 Frc consts  --      1.2120                 1.4917                 1.4896
 IR Inten    --      5.4774                17.4951                 7.5012

                     34                     35                     36
                      A                      A                      A
 Frequencies --   1012.5890              1017.4172              1030.1960
 Red. masses --      2.1276                 1.5173                 2.3404
 Frc consts  --      1.2853                 0.9254                 1.4635
 IR Inten    --      2.7960                 8.8903                 8.9758

                     37                     38                     39
                      A                      A                      A
 Frequencies --   1080.3828              1102.9627              1108.6494
 Red. masses --      2.0578                 2.1080                 1.6595
 Frc consts  --      1.4152                 1.5109                 1.2018
 IR Inten    --     34.5093                88.7670                 0.8969

                     40                     41                     42
                      A                      A                      A
 Frequencies --   1119.2684              1132.3890              1155.6879
 Red. masses --      6.3829                 2.1870                 3.1266
 Frc consts  --      4.7113                 1.6523                 2.4604
 IR Inten    --    166.0455               110.3494               108.6092

                     43                     44                     45
                      A                      A                      A
 Frequencies --   1177.3155              1201.2789              1209.8873
 Red. masses --      1.8915                 1.8330                 1.6579
 Frc consts  --      1.5447                 1.5585                 1.4299
 IR Inten    --     28.4860               114.7836                23.2595

                     46                     47                     48
                      A                      A                      A
 Frequencies --   1220.7009              1259.4418              1265.5750
 Red. masses --      1.5949                 1.3020                 1.3742
 Frc consts  --      1.4002                 1.2168                 1.2968
 IR Inten    --     37.3568                44.3087                23.2921

                     49                     50                     51
                      A                      A                      A
 Frequencies --   1278.9128              1316.1742              1328.5991
 Red. masses --      1.2278                 1.2419                 1.2915
 Frc consts  --      1.1832                 1.2676                 1.3432
 IR Inten    --     12.8429                44.4232                 6.2582

                     52                     53                     54
                      A                      A                      A
 Frequencies --   1341.5241              1360.9113              1367.3736
 Red. masses --      1.4205                 1.3004                 1.3081
 Frc consts  --      1.5062                 1.4190                 1.4410
 IR Inten    --      5.0826                 2.8187                16.6998

                     55                     56                     57
                      A                      A                      A
 Frequencies --   1387.0009              1396.8898              1411.3573
 Red. masses --      1.4935                 1.3788                 1.3732
 Frc consts  --      1.6929                 1.5851                 1.6116
 IR Inten    --     53.4862                13.8983                12.1563

                     58                     59                     60
                      A                      A                      A
 Frequencies --   1424.2463              1452.7536              1487.6363
 Red. masses --      1.2892                 1.4342                 1.1059
 Frc consts  --      1.5407                 1.7834                 1.4420
 IR Inten    --     15.4157                 3.0376                 9.6203

                     61                     62                     63
                      A                      A                      A
 Frequencies --   1518.3267              1521.6205              1528.5722
 Red. masses --      1.0878                 1.0898                 1.1047
 Frc consts  --      1.4776                 1.4867                 1.5208
 IR Inten    --      3.3367                10.1796                11.5467

                     64                     65                     66
                      A                      A                      A
 Frequencies --   1530.2230              1549.1362              1557.6052
 Red. masses --      1.1023                 1.0908                 1.0994
 Frc consts  --      1.5208                 1.5424                 1.5716
 IR Inten    --      2.9206                 6.6423                 1.7545

                     67                     68                     69
                      A                      A                      A
 Frequencies --   1694.0963              1837.9673              2997.4931
 Red. masses --      1.0905                10.4875                 1.0724
 Frc consts  --      1.8439                20.8735                 5.6768
 IR Inten    --     16.8153               173.0296                92.6556

                     70                     71                     72
                      A                      A                      A
 Frequencies --   3014.3670              3028.9795              3046.5298
 Red. masses --      1.0580                 1.0667                 1.0859
 Frc consts  --      5.6642                 5.7660                 5.9383
 IR Inten    --     23.5395                33.2397                22.5926

                     73                     74                     75
                      A                      A                      A
 Frequencies --   3060.5864              3063.8517              3067.7017
 Red. masses --      1.0664                 1.0979                 1.0671
 Frc consts  --      5.8855                 6.0722                 5.9165
 IR Inten    --      5.3057                45.6804                16.4747

                     76                     77                     78
                      A                      A                      A
 Frequencies --   3074.4222              3096.9500              3111.0869
 Red. masses --      1.0704                 1.0917                 1.0982
 Frc consts  --      5.9613                 6.1693                 6.2626
 IR Inten    --     52.2545                45.5133                37.0557

                     79                     80                     81
                      A                      A                      A
 Frequencies --   3120.2550              3131.7106              3133.6174
 Red. masses --      1.1013                 1.0976                 1.1020
 Frc consts  --      6.3172                 6.3427                 6.3754
 IR Inten    --     32.9294                10.9413                29.8007

                     82                     83                     84
                      A                      A                      A
 Frequencies --   3482.7545              3510.9050              3627.1091
 Red. masses --      1.0728                 1.0490                 1.1004
 Frc consts  --      7.6671                 7.6185                 8.5298
 IR Inten    --      3.2387                 2.8704                 9.6628

 - Thermochemistry -
 -------------------
 Temperature   298.150 Kelvin.  Pressure   1.00000 Atm.
 Atom     1 has atomic number  6 and mass  12.00000

 Molecular mass:   204.11101 amu.
 Principal axes and moments of inertia in atomic units:
                           1         2         3
     Eigenvalues --  1661.544715469.112636436.29697
           X            0.99997   0.00016   0.00770
           Y           -0.00013   0.99999  -0.00463
           Z           -0.00770   0.00462   0.99996
 This molecule is an asymmetric top.
 Rotational symmetry number  1.
 Warning -- assumption of classical behavior for rotation
           may cause significant error
 Rotational temperatures (Kelvin)      0.05213     0.01584     0.01346
 Rotational constants (GHZ):           1.08618     0.32999     0.28040
 Zero-point vibrational energy     674084.5 (Joules/Mol)
                                  161.11006 (Kcal/Mol)
 Warning -- explicit consideration of  22 degrees of freedom as
           vibrations may cause significant error
 Vibrational temperatures:     37.70    47.13    61.75    89.75    94.41
          (Kelvin)            137.56   172.53   209.11   236.31   334.99
                              363.76   396.50   451.36   479.21   530.21
                              586.31   610.52   717.08   790.35   831.49
                              870.91   877.73  1027.43  1030.06  1169.20
                             1215.06  1247.04  1276.18  1297.78  1316.16
                             1346.22  1374.11  1427.87  1456.89  1463.84
                             1482.22  1554.43  1586.92  1595.10  1610.38
                             1629.26  1662.78  1693.89  1728.37  1740.76
                             1756.32  1812.06  1820.88  1840.07  1893.68
                             1911.56  1930.15  1958.05  1967.35  1995.58
                             2009.81  2030.63  2049.17  2090.19  2140.38
                             2184.53  2189.27  2199.27  2201.65  2228.86
                             2241.05  2437.43  2644.43  4312.72  4337.00
                             4358.03  4383.28  4403.50  4408.20  4413.74
                             4423.41  4455.82  4476.16  4489.35  4505.83
                             4508.58  5010.91  5051.41  5218.60

 Zero-point correction=                           0.256745 (Hartree/Particle)
 Thermal correction to Energy=                    0.271736
 Thermal correction to Enthalpy=                  0.272680
 Thermal correction to Gibbs Free Energy=         0.211920
 Sum of electronic and zero-point Energies=           -724.565399
 Sum of electronic and thermal Energies=              -724.550408
 Sum of electronic and thermal Enthalpies=            -724.549464
 Sum of electronic and thermal Free Energies=         -724.610224

                     E (Thermal)             CV                S
                      KCal/Mol        Cal/Mol-Kelvin    Cal/Mol-Kelvin
 Total                  170.517             53.753            127.881
 Electronic               0.000              0.000              0.000
 Translational            0.889              2.981             41.845
 Rotational               0.889              2.981             32.436
 Vibrational            168.740             47.792             53.600
 Vibration     1          0.593              1.985              6.098
 Vibration     2          0.594              1.983              5.655
 Vibration     3          0.595              1.980              5.120
 Vibration     4          0.597              1.972              4.380
 Vibration     5          0.597              1.971              4.281
 Vibration     6          0.603              1.952              3.542
 Vibration     7          0.609              1.933              3.102
 Vibration     8          0.617              1.908              2.732
 Vibration     9          0.623              1.886              2.500
 Vibration    10          0.654              1.791              1.857
 Vibration    11          0.664              1.758              1.711
 Vibration    12          0.677              1.719              1.561
 Vibration    13          0.702              1.648              1.343
 Vibration    14          0.715              1.609              1.245
 Vibration    15          0.741              1.537              1.086
 Vibration    16          0.772              1.454              0.935
 Vibration    17          0.786              1.417              0.877
 Vibration    18          0.854              1.254              0.662
 Vibration    19          0.905              1.141              0.546
 Vibration    20          0.934              1.079              0.489
 Vibration    21          0.964              1.021              0.441
 Vibration    22          0.969              1.011              0.433

                           ! Non-Optimized Parameters !
 Normal termination of Gaussian 16 at Thu Dec 10 11:03:26 2020.

 ----------------------------------------------------------------------
 # B3LYP/6-311++G(d,p) empiricaldispersion=gd3bj scf=xqc pop=npa geom=c
 heck
 ----------------------------------------------------------------------

 --------------------------------------
 CID_66339471_JID_4787_Energie_neutraal
 --------------------------------------
 Structure from the checkpoint file:  "JID_4787.chk"
 Charge =  0 Multiplicity = 1

 SCF Done:  E(RB3LYP) =  -725.049022926     A.U. after   14 cycles
 Normal termination of Gaussian 16 at Thu Dec 10 11:06:33 2020.

 ----------------------------------------------------------------------
 # B3LYP/6-311++G(d,p) empiricaldispersion=gd3bj scf=xqc pop=npa geom=c
 heck
 ----------------------------------------------------------------------

 ------------------------------------
 CID_66339471_JID_4787_Energie_kation
 ------------------------------------
 Structure from the checkpoint file:  "JID_4787.chk"
 Charge =  1 Multiplicity = 2

 SCF Done:  E(UB3LYP) =  -724.735868157     A.U. after   27 cycles
 Normal termination of Gaussian 16 at Thu Dec 10 11:13:26 2020.
 Gaussian 16:  ES64L-G16RevA.03 25-Dec-2016

 ----------------------------------------------------------------------
 # B3LYP/6-311++G(d,p) empiricaldispersion=gd3bj scf=xqc pop=npa geom=c
 heck
 ----------------------------------------------------------------------

 -----------------------------------
 CID_66339471_JID_4787_Energie_anion
 -----------------------------------
 Structure from the checkpoint file:  "JID_4787.chk"
 Charge = -1 Multiplicity = 2

                         Standard orientation:
 ---------------------------------------------------------------------
 Center     Atomic      Atomic             Coordinates (Angstroms)
 Number     Number       Type             X           Y           Z
 ---------------------------------------------------------------------
      1          6           0        3.685709   -0.608037    1.056087
      2          6           0        3.393959    0.583657    0.132486
      3          6           0        2.268308    0.040427   -0.762909
      4          8           0        2.392818   -1.390541   -0.757682
      5          6           0        3.464480   -1.782915    0.102364
      6          6           0        0.874998    0.385392   -0.247314
      7          8           0        0.679666    1.779142   -0.440925
      8          6           0       -0.424714    2.329516    0.249779
      9          6           0       -1.785966    1.864634   -0.288423
     10          6           0       -2.173741    0.493091    0.234641
     11          8           0       -2.075171    0.148162    1.388903
     12          8           0       -2.665123   -0.271888   -0.771140
     13          7           0       -3.008586   -1.639593   -0.293037
     14          7           0       -4.270990   -1.582972    0.296458
     15          1           0        4.691659   -0.589691    1.485966
     16          1           0        2.963644   -0.646413    1.879533
     17          1           0        4.278223    0.823979   -0.468281
     18          1           0        3.085313    1.491554    0.657052
     19          1           0        2.357455    0.404456   -1.794117
     20          1           0        4.371454   -1.979532   -0.491635
     21          1           0        3.175177   -2.712197    0.603723
     22          1           0        0.132245   -0.206131   -0.800172
     23          1           0        0.784409    0.122135    0.817342
     24          1           0       -0.369958    2.099510    1.324018
     25          1           0       -0.336138    3.411897    0.118773
     26          1           0       -2.556290    2.562478    0.064420
     27          1           0       -1.789562    1.883983   -1.381369
     28          1           0       -3.082595   -2.070668   -1.213893
     29          1           0       -5.010161   -1.999859   -0.260947
     30          1           0       -4.213557   -1.991142    1.222114
 ---------------------------------------------------------------------

 SCF Done:  E(UB3LYP) =  -725.037823036     A.U. after   33 cycles
 SCF Done:  E(UB3LYP) =  -725.037823036     a.u. after    1 cycles

 The electronic state is 2-A.
 Alpha  occ. eigenvalues --  -19.07902 -19.03762 -19.02847 -19.00883 -14.28977
 Alpha  occ. eigenvalues --  -14.22811 -10.19867 -10.13397 -10.12708 -10.12402
 Alpha  occ. eigenvalues --  -10.11790 -10.09223 -10.08213 -10.07950  -1.01558
 Alpha  occ. eigenvalues --   -0.95368  -0.94273  -0.93229  -0.84913  -0.70467
 Alpha  occ. eigenvalues --   -0.69278  -0.67202  -0.64850  -0.59352  -0.53484
 Alpha  occ. eigenvalues --   -0.50868  -0.48368  -0.46490  -0.44981  -0.41884
 Alpha  occ. eigenvalues --   -0.41385  -0.40988  -0.39810  -0.38788  -0.38287
 Alpha  occ. eigenvalues --   -0.37590  -0.35600  -0.33877  -0.33739  -0.32032
 Alpha  occ. eigenvalues --   -0.31324  -0.30505  -0.29417  -0.28201  -0.26679
 Alpha  occ. eigenvalues --   -0.25661  -0.24721  -0.23403  -0.22855  -0.22353
 Alpha  occ. eigenvalues --   -0.19468  -0.17977  -0.17433  -0.16297  -0.14806
 Alpha  occ. eigenvalues --    0.04223
 Alpha virt. eigenvalues --    0.05366   0.06502   0.07767   0.08283   0.08655
 Alpha virt. eigenvalues --    0.09210   0.09857   0.10211   0.10485   0.10997
 Alpha virt. eigenvalues --    0.11168   0.11742   0.12122   0.13058   0.13696

  Beta  occ. eigenvalues --  -19.07903 -19.03760 -19.02846 -19.00869 -14.28937
  Beta  occ. eigenvalues --  -14.22728 -10.19844 -10.13388 -10.12705 -10.12388
  Beta  occ. eigenvalues --  -10.11785 -10.09217 -10.08194 -10.07935  -1.01532
  Beta  occ. eigenvalues --   -0.95364  -0.94267  -0.93196  -0.84831  -0.70441
  Beta  occ. eigenvalues --   -0.69242  -0.67145  -0.64746  -0.59321  -0.53448
  Beta  occ. eigenvalues --   -0.50819  -0.48348  -0.46414  -0.44844  -0.41853
  Beta  occ. eigenvalues --   -0.41365  -0.40953  -0.39735  -0.38756  -0.38244
  Beta  occ. eigenvalues --   -0.37547  -0.35576  -0.33840  -0.33716  -0.31994
  Beta  occ. eigenvalues --   -0.31299  -0.30476  -0.29397  -0.28170  -0.26656
  Beta  occ. eigenvalues --   -0.25636  -0.24698  -0.23370  -0.22840  -0.22315
  Beta  occ. eigenvalues --   -0.19428  -0.17952  -0.17418  -0.16282  -0.14745
  Beta virt. eigenvalues --    0.06224   0.06692   0.07730   0.07960   0.08583
  Beta virt. eigenvalues --    0.09014   0.09498   0.10251   0.10394   0.10712
  Beta virt. eigenvalues --    0.11138   0.11761   0.11949   0.12247   0.12986

 Mulliken charges and spin densities:
               1          2
     1  C    0.180556  -0.439416
     2  C    0.009518  -0.230023
     3  C   -1.117550   0.926027
     4  O   -0.114909   0.001602
     5  C    0.323841  -0.593024
     6  C    0.341242  -0.807514
     7  O   -0.089547   0.026220
     8  C   -0.184854  -0.065830
     9  C    0.520520  -0.657114
    10  C   -0.399529   0.105062
    11  O   -0.221436  -0.005660
    12  O    0.039106   0.043123
    13  N    0.139454  -0.249204
    14  N   -0.191647  -0.271813
    15  H   -0.381160   0.549883
    16  H    0.082176   0.045611
    17  H   -0.258336   0.427201
    18  H    0.019094   0.124973
    19  H    0.041981   0.152169
    20  H   -0.063709   0.200764
    21  H   -0.021530   0.167300
    22  H    0.281707  -0.086958
    23  H    0.200387  -0.038858
    24  H    0.138479   0.027849
    25  H    0.074824   0.101626
    26  H    0.005461   0.184652
    27  H    0.112066   0.111037
    28  H   -0.130416   0.411424
    29  H   -0.495226   0.760396
    30  H    0.159436   0.078494
 Sum of Mulliken charges =  -1.00000   1.00000

 Dipole moment (field-independent basis, Debye):
    X=              3.7346    Y=              4.4419    Z=              1.0299  Tot=              5.8939
 Quadrupole moment (field-independent basis, Debye-Ang):
   XX=           -193.2362   YY=           -120.5653   ZZ=           -110.4243
   XY=            -16.7911   XZ=             -6.9627   YZ=             -3.6823

 Summary of Natural Population Analysis:

                                       Natural Population
                Natural  -----------------------------------------------
    Atom  No    Charge         Core      Valence    Rydberg      Total
 -----------------------------------------------------------------------
      C    1   -0.20806      0.99964     2.20041    0.00801     3.20806
      C    2   -0.20521      0.99962     2.19653    0.00905     3.20521
      C    3    0.06098      0.99956     1.92431    0.01515     2.93902
      O    4   -0.30466      0.99989     3.29629    0.00848     4.30466
      C    5   -0.00893      0.99960     1.99667    0.01266     3.00893
      C    6   -0.02202      0.99954     2.01076    0.01172     3.02202
      O    7   -0.30271      0.99988     3.29414    0.00870     4.30271
      C    8   -0.00387      0.99958     1.99275    0.01154     3.00387
      C    9   -0.25377      0.99958     2.24565    0.00854     3.25377
      C   10    0.40626      0.99971     1.56604    0.02799     2.59374
      O   11   -0.30240      0.99986     3.29691    0.00563     4.30240
      O   12   -0.22670      0.99987     3.21590    0.01093     4.22670
      N   13   -0.09100      0.99977     2.57390    0.01734     3.59100
      N   14   -0.31893      0.99976     2.80545    0.01372     3.81893
      H   15    0.10531      0.00000     0.39295    0.00174     0.39469
      H   16    0.09685      0.00000     0.40195    0.00120     0.40315
      H   17    0.10019      0.00000     0.39839    0.00142     0.39981
      H   18    0.10840      0.00000     0.39035    0.00125     0.39160
      H   19    0.08817      0.00000     0.41031    0.00152     0.41183
      H   20    0.07770      0.00000     0.42088    0.00142     0.42230
      H   21    0.08875      0.00000     0.41015    0.00110     0.41125
      H   22    0.09064      0.00000     0.40737    0.00199     0.40936
      H   23    0.08427      0.00000     0.41420    0.00153     0.41573
      H   24    0.08677      0.00000     0.41177    0.00146     0.41323
      H   25    0.08912      0.00000     0.40967    0.00121     0.41088
      H   26    0.11486      0.00000     0.38399    0.00115     0.38514
      H   27    0.11190      0.00000     0.38669    0.00141     0.38810
      H   28    0.17412      0.00000     0.32112    0.00476     0.32588
      H   29    0.18277      0.00000     0.29638    0.02085     0.31723
      H   30    0.18119      0.00000     0.31700    0.00181     0.31881
 =======================================================================
   * Total *   -0.00000     13.99585    40.78887    0.21527    55.00000

 Normal termination of Gaussian 16 at Thu Dec 10 11:21:55 2020.
