 Gaussian 16, Revision A.03,

 -----------------------------------------------------------
 # opt freq B3LYP/6-31G(d) empiricaldispersion=gd3bj scf=xqc
 -----------------------------------------------------------

 ------------------------------
 CID_61633936_JID_4911_neutraal
 ------------------------------
 Symbolic Z-matrix:
 Charge =  0 Multiplicity = 1

 SCF Done:  E(RB3LYP) =  -596.127897421     A.U. after   14 cycles
 SCF Done:  E(RB3LYP) =  -596.130773071     A.U. after   12 cycles
 SCF Done:  E(RB3LYP) =  -596.131631847     A.U. after   12 cycles
 SCF Done:  E(RB3LYP) =  -596.132268170     A.U. after   12 cycles
 SCF Done:  E(RB3LYP) =  -596.132909334     A.U. after   12 cycles
 SCF Done:  E(RB3LYP) =  -596.133025495     A.U. after   11 cycles
 SCF Done:  E(RB3LYP) =  -596.133049698     A.U. after   11 cycles
 SCF Done:  E(RB3LYP) =  -596.133078555     A.U. after   10 cycles
 SCF Done:  E(RB3LYP) =  -596.133085841     A.U. after    8 cycles
 SCF Done:  E(RB3LYP) =  -596.133088315     A.U. after    8 cycles
 SCF Done:  E(RB3LYP) =  -596.133089023     A.U. after    8 cycles
 SCF Done:  E(RB3LYP) =  -596.133089161     A.U. after    7 cycles
 Optimization completed.
    -- Stationary point found.
 Normal termination of Gaussian 16 at Thu Dec 10 10:59:11 2020.

 --------------------------------------------------------------------
 #N Geom=AllCheck Guess=TCheck SCRF=Check GenChk RB3LYP/6-31G(d) Freq
 --------------------------------------------------------------------

 Structure from the checkpoint file:  "JID_4911.chk"
 ------------------------------
 CID_61633936_JID_4911_neutraal
 ------------------------------
 Charge =  0 Multiplicity = 1

 SCF Done:  E(RB3LYP) =  -596.133089161     A.U. after    1 cycles

  Exact polarizability: 149.595  -0.850 128.974  -3.145 -10.773 112.506
 Approx polarizability: 207.745  -1.594 188.314  -7.470 -23.510 166.837

                      1                      2                      3
                      A                      A                      A
 Frequencies --     32.9244                51.9494                76.0554
 Red. masses --      3.0309                 2.6356                 2.7783
 Frc consts  --      0.0019                 0.0042                 0.0095
 IR Inten    --      0.1375                 0.4096                 1.8084

                      4                      5                      6
                      A                      A                      A
 Frequencies --     92.6399               104.2127               151.6395
 Red. masses --      3.3600                 3.0502                 3.6118
 Frc consts  --      0.0170                 0.0195                 0.0489
 IR Inten    --      0.7853                 2.0216                 1.2493

                      7                      8                      9
                      A                      A                      A
 Frequencies --    197.5532               232.5903               243.4690
 Red. masses --      1.5232                 2.1033                 2.0984
 Frc consts  --      0.0350                 0.0670                 0.0733
 IR Inten    --      5.0599                11.2653                 1.7740

                     10                     11                     12
                      A                      A                      A
 Frequencies --    252.9330               269.4180               281.6561
 Red. masses --      1.2242                 1.9248                 1.8525
 Frc consts  --      0.0461                 0.0823                 0.0866
 IR Inten    --      4.3267                 2.4492                 3.9380

                     13                     14                     15
                      A                      A                      A
 Frequencies --    287.3899               292.7988               298.9702
 Red. masses --      1.3650                 2.1577                 1.3795
 Frc consts  --      0.0664                 0.1090                 0.0726
 IR Inten    --     12.9652                 3.2150                42.2828

                     16                     17                     18
                      A                      A                      A
 Frequencies --    318.1767               333.8005               374.4244
 Red. masses --      2.0214                 1.4965                 2.2513
 Frc consts  --      0.1206                 0.0982                 0.1860
 IR Inten    --      2.2294                 0.7425                 1.4890

                     19                     20                     21
                      A                      A                      A
 Frequencies --    400.3498               404.2363               475.8562
 Red. masses --      2.3500                 2.4890                 2.8476
 Frc consts  --      0.2219                 0.2396                 0.3799
 IR Inten    --      0.2381                 0.2862                 1.4164

                     22                     23                     24
                      A                      A                      A
 Frequencies --    508.1985               588.1263               659.2176
 Red. masses --      3.5239                 3.1432                 5.0488
 Frc consts  --      0.5362                 0.6406                 1.2927
 IR Inten    --      3.9382                13.3837                 0.9202

                     25                     26                     27
                      A                      A                      A
 Frequencies --    681.0449               688.5542               759.6671
 Red. masses --      3.4629                 3.8004                 2.7943
 Frc consts  --      0.9463                 1.0616                 0.9501
 IR Inten    --      1.3050                 4.6154                 4.4334

                     28                     29                     30
                      A                      A                      A
 Frequencies --    772.1420               810.7217               822.9612
 Red. masses --      1.1872                 3.4574                 1.2824
 Frc consts  --      0.4170                 1.3389                 0.5117
 IR Inten    --     43.5456                11.2647                 3.4641

                     31                     32                     33
                      A                      A                      A
 Frequencies --    848.0617               871.3905               907.7602
 Red. masses --      1.2636                 2.1437                 1.7786
 Frc consts  --      0.5354                 0.9590                 0.8635
 IR Inten    --      1.0746                 3.5171                61.1235

                     34                     35                     36
                      A                      A                      A
 Frequencies --    941.5380               946.1462               951.6565
 Red. masses --      3.8389                 1.7494                 1.8561
 Frc consts  --      2.0051                 0.9227                 0.9904
 IR Inten    --     16.3652                 6.8888                 2.5434

                     37                     38                     39
                      A                      A                      A
 Frequencies --    966.8707               982.7035              1010.8794
 Red. masses --      1.6252                 1.2099                 2.0264
 Frc consts  --      0.8952                 0.6884                 1.2200
 IR Inten    --     15.2464                 0.1365                 1.1070

                     40                     41                     42
                      A                      A                      A
 Frequencies --   1021.2714              1067.5867              1074.0462
 Red. masses --      1.7392                 1.4206                 1.7102
 Frc consts  --      1.0688                 0.9539                 1.1624
 IR Inten    --      6.7674                 3.0814                 4.8436

                     43                     44                     45
                      A                      A                      A
 Frequencies --   1086.0035              1101.7551              1122.4529
 Red. masses --      1.8425                 1.6659                 1.5025
 Frc consts  --      1.2803                 1.1914                 1.1153
 IR Inten    --      4.8786                12.4918                 0.1232

                     46                     47                     48
                      A                      A                      A
 Frequencies --   1144.0928              1149.2871              1199.3020
 Red. masses --      1.9952                 1.8229                 2.6708
 Frc consts  --      1.5387                 1.4187                 2.2634
 IR Inten    --      6.5957                19.0902                 6.8267

                     49                     50                     51
                      A                      A                      A
 Frequencies --   1205.8161              1234.8887              1259.3643
 Red. masses --      1.4879                 2.2001                 2.5457
 Frc consts  --      1.2746                 1.9767                 2.3788
 IR Inten    --     12.8250                 6.3335                 3.1184

                     52                     53                     54
                      A                      A                      A
 Frequencies --   1287.8749              1299.5268              1305.4675
 Red. masses --      2.7495                 2.6623                 1.2004
 Frc consts  --      2.6869                 2.6490                 1.2053
 IR Inten    --     15.6404                54.9542                 1.9506

                     55                     56                     57
                      A                      A                      A
 Frequencies --   1329.5000              1357.5677              1380.9890
 Red. masses --      3.0216                 1.3372                 1.7869
 Frc consts  --      3.1468                 1.4520                 2.0078
 IR Inten    --      3.7398                 7.4616                12.7558

                     58                     59                     60
                      A                      A                      A
 Frequencies --   1398.9650              1427.8475              1428.0307
 Red. masses --      1.2940                 1.2396                 1.2344
 Frc consts  --      1.4922                 1.4890                 1.4831
 IR Inten    --      1.9766                 5.7451                 6.7098

                     61                     62                     63
                      A                      A                      A
 Frequencies --   1439.9699              1444.8035              1453.7965
 Red. masses --      1.2922                 1.4183                 1.3923
 Frc consts  --      1.5787                 1.7444                 1.7338
 IR Inten    --      4.3278                15.4858                 2.1333

                     64                     65                     66
                      A                      A                      A
 Frequencies --   1460.1675              1466.6069              1511.1682
 Red. masses --      2.0168                 1.6598                 1.2448
 Frc consts  --      2.5335                 2.1035                 1.6748
 IR Inten    --     23.6488                36.8288                 1.6276

                     67                     68                     69
                      A                      A                      A
 Frequencies --   1512.4093              1517.5279              1520.3651
 Red. masses --      1.0576                 1.0842                 1.0394
 Frc consts  --      1.4253                 1.4711                 1.4156
 IR Inten    --      0.7650                 2.6936                 4.1978

                     70                     71                     72
                      A                      A                      A
 Frequencies --   1526.2062              1529.8847              1533.0445
 Red. masses --      1.1015                 1.0764                 1.1264
 Frc consts  --      1.5117                 1.4844                 1.5597
 IR Inten    --      3.8881                 5.8602                 1.9622

                     73                     74                     75
                      A                      A                      A
 Frequencies --   1536.4995              1537.6953              1548.8041
 Red. masses --      1.0600                 2.1793                 1.0810
 Frc consts  --      1.4745                 3.0361                 1.5277
 IR Inten    --      3.6924                 8.9689                 4.5343

                     76                     77                     78
                      A                      A                      A
 Frequencies --   1562.2692              1575.4476              1697.9075
 Red. masses --      1.0626                 4.8374                 1.0869
 Frc consts  --      1.5280                 7.0740                 1.8461
 IR Inten    --     19.5768                12.5393                44.3049

                     79                     80                     81
                      A                      A                      A
 Frequencies --   2973.4773              3017.9358              3039.2435
 Red. masses --      1.0748                 1.0632                 1.0389
 Frc consts  --      5.5987                 5.7056                 5.6540
 IR Inten    --     65.3768                26.2591                18.7032

                     82                     83                     84
                      A                      A                      A
 Frequencies --   3043.6881              3048.2405              3054.9507
 Red. masses --      1.0440                 1.0891                 1.0420
 Frc consts  --      5.6984                 5.9621                 5.7294
 IR Inten    --     23.9787                24.3774                29.1270

                     85                     86                     87
                      A                      A                      A
 Frequencies --   3066.8843              3083.6182              3103.7082
 Red. masses --      1.0369                 1.0830                 1.1001
 Frc consts  --      5.7465                 6.0673                 6.2438
 IR Inten    --     35.9232                10.8941                 1.0385

                     88                     89                     90
                      A                      A                      A
 Frequencies --   3109.1696              3110.0442              3118.7871
 Red. masses --      1.0984                 1.0904                 1.0962
 Frc consts  --      6.2563                 6.2138                 6.2822
 IR Inten    --     62.7248                29.2486                22.0272

                     91                     92                     93
                      A                      A                      A
 Frequencies --   3124.4382              3128.6215              3137.0136
 Red. masses --      1.0994                 1.1009                 1.1012
 Frc consts  --      6.3236                 6.3490                 6.3848
 IR Inten    --     26.2152                41.6307                29.5408

                     94                     95                     96
                      A                      A                      A
 Frequencies --   3150.5716              3158.4490              3256.4154
 Red. masses --      1.1029                 1.1026                 1.0946
 Frc consts  --      6.4503                 6.4803                 6.8391
 IR Inten    --     20.2813                 7.7318                13.1488

                     97                     98                     99
                      A                      A                      A
 Frequencies --   3320.7000              3479.6234              3561.2034
 Red. masses --      1.0999                 1.0502                 1.0925
 Frc consts  --      7.1463                 7.4918                 8.1629
 IR Inten    --      1.2381                 1.6285                 0.6645

 - Thermochemistry -
 -------------------
 Temperature   298.150 Kelvin.  Pressure   1.00000 Atm.
 Atom     1 has atomic number  6 and mass  12.00000

 Molecular mass:   195.17355 amu.
 Principal axes and moments of inertia in atomic units:
                           1         2         3
     Eigenvalues --  1879.318343563.953994056.52861
           X            0.99977  -0.01765   0.01256
           Y            0.01757   0.99982   0.00690
           Z           -0.01268  -0.00668   0.99990
 This molecule is an asymmetric top.
 Rotational symmetry number  1.
 Warning -- assumption of classical behavior for rotation
           may cause significant error
 Rotational temperatures (Kelvin)      0.04609     0.02430     0.02135
 Rotational constants (GHZ):           0.96032     0.50639     0.44490
 Zero-point vibrational energy     832802.3 (Joules/Mol)
                                  199.04453 (Kcal/Mol)
 Warning -- explicit consideration of  23 degrees of freedom as
           vibrations may cause significant error
 Vibrational temperatures:     47.37    74.74   109.43   133.29   149.94
          (Kelvin)            218.18   284.24   334.65   350.30   363.91
                              387.63   405.24   413.49   421.27   430.15
                              457.79   480.26   538.71   576.01   581.61
                              684.65   731.18   846.18   948.47   979.87
                              990.68  1092.99  1110.94  1166.45  1184.06
                             1220.17  1253.74  1306.06  1354.66  1361.29
                             1369.22  1391.11  1413.89  1454.43  1469.38
                             1536.02  1545.31  1562.52  1585.18  1614.96
                             1646.09  1653.57  1725.53  1734.90  1776.73
                             1811.94  1852.96  1869.73  1878.28  1912.85
                             1953.24  1986.94  2012.80  2054.35  2054.62
                             2071.80  2078.75  2091.69  2100.86  2110.12
                             2174.23  2176.02  2183.38  2187.47  2195.87
                             2201.16  2205.71  2210.68  2212.40  2228.38
                             2247.76  2266.72  2442.91  4278.17  4342.14
                             4372.79  4379.19  4385.74  4395.39  4412.56
                             4436.64  4465.54  4473.40  4474.66  4487.24
                             4495.37  4501.39  4513.46  4532.97  4544.30
                             4685.26  4777.75  5006.40  5123.78

 Zero-point correction=                           0.317198 (Hartree/Particle)
 Thermal correction to Energy=                    0.332783
 Thermal correction to Enthalpy=                  0.333727
 Thermal correction to Gibbs Free Energy=         0.274911
 Sum of electronic and zero-point Energies=           -595.815892
 Sum of electronic and thermal Energies=              -595.800307
 Sum of electronic and thermal Enthalpies=            -595.799362
 Sum of electronic and thermal Free Energies=         -595.858178

                     E (Thermal)             CV                S
                      KCal/Mol        Cal/Mol-Kelvin    Cal/Mol-Kelvin
 Total                  208.824             59.473            123.787
 Electronic               0.000              0.000              0.000
 Translational            0.889              2.981             41.711
 Rotational               0.889              2.981             31.675
 Vibrational            207.047             53.511             50.401
 Vibration     1          0.594              1.983              5.645
 Vibration     2          0.596              1.977              4.742
 Vibration     3          0.599              1.965              3.990
 Vibration     4          0.602              1.954              3.604
 Vibration     5          0.605              1.946              3.374
 Vibration     6          0.619              1.901              2.652
 Vibration     7          0.637              1.843              2.156
 Vibration     8          0.653              1.791              1.859
 Vibration     9          0.659              1.774              1.777
 Vibration    10          0.664              1.758              1.710
 Vibration    11          0.674              1.729              1.600
 Vibration    12          0.681              1.708              1.524
 Vibration    13          0.685              1.697              1.489
 Vibration    14          0.688              1.687              1.458
 Vibration    15          0.692              1.676              1.423
 Vibration    16          0.705              1.639              1.319
 Vibration    17          0.715              1.608              1.242
 Vibration    18          0.746              1.525              1.062
 Vibration    19          0.766              1.469              0.961
 Vibration    20          0.769              1.461              0.947
 Vibration    21          0.832              1.304              0.721
 Vibration    22          0.863              1.232              0.638
 Vibration    23          0.945              1.057              0.471

                           ! Non-Optimized Parameters !
 Normal termination of Gaussian 16 at Thu Dec 10 11:12:51 2020.

 ----------------------------------------------------------------------
 # B3LYP/6-311++G(d,p) empiricaldispersion=gd3bj scf=xqc pop=npa geom=c
 heck
 ----------------------------------------------------------------------

 --------------------------------------
 CID_61633936_JID_4911_Energie_neutraal
 --------------------------------------
 Structure from the checkpoint file:  "JID_4911.chk"
 Charge =  0 Multiplicity = 1

 SCF Done:  E(RB3LYP) =  -596.303187696     A.U. after   14 cycles
 Normal termination of Gaussian 16 at Thu Dec 10 11:18:57 2020.

 ----------------------------------------------------------------------
 # B3LYP/6-311++G(d,p) empiricaldispersion=gd3bj scf=xqc pop=npa geom=c
 heck
 ----------------------------------------------------------------------

 ------------------------------------
 CID_61633936_JID_4911_Energie_kation
 ------------------------------------
 Structure from the checkpoint file:  "JID_4911.chk"
 Charge =  1 Multiplicity = 2

 SCF Done:  E(UB3LYP) =  -596.010294684     A.U. after   21 cycles
 Normal termination of Gaussian 16 at Thu Dec 10 11:32:03 2020.
 Gaussian 16:  ES64L-G16RevA.03 25-Dec-2016

 ----------------------------------------------------------------------
 # B3LYP/6-311++G(d,p) empiricaldispersion=gd3bj scf=xqc pop=npa geom=c
 heck
 ----------------------------------------------------------------------

 -----------------------------------
 CID_61633936_JID_4911_Energie_anion
 -----------------------------------
 Structure from the checkpoint file:  "JID_4911.chk"
 Charge = -1 Multiplicity = 2

                         Standard orientation:
 ---------------------------------------------------------------------
 Center     Atomic      Atomic             Coordinates (Angstroms)
 Number     Number       Type             X           Y           Z
 ---------------------------------------------------------------------
      1          6           0        3.729720   -1.346855    0.655666
      2          6           0        2.214866   -1.152957    0.753350
      3          6           0        1.752064    0.065931    0.008382
      4          7           0        2.544695    0.892822   -0.649754
      5          6           0        1.723310    1.867557   -1.168803
      6          6           0        0.418380    1.632091   -0.823205
      7          7           0        0.434188    0.466121   -0.065811
      8          6           0       -0.706433   -0.189907    0.584443
      9          6           0       -1.281509    0.709165    1.696519
     10          7           0       -1.876786    1.961587    1.221351
     11          6           0       -1.706701   -0.838098   -0.426284
     12          6           0       -0.934692   -1.895722   -1.237627
     13          6           0       -2.816601   -1.544041    0.375003
     14          6           0       -2.361418    0.154038   -1.404050
     15          1           0        4.039502   -1.453641   -0.387219
     16          1           0        4.034187   -2.241586    1.208773
     17          1           0        4.258878   -0.481579    1.063331
     18          1           0        1.703655   -2.044287    0.364158
     19          1           0        1.921548   -1.077929    1.810873
     20          1           0        2.118669    2.679927   -1.763751
     21          1           0       -0.498331    2.148347   -1.050611
     22          1           0       -0.268941   -1.035465    1.124368
     23          1           0       -2.059815    0.143580    2.216068
     24          1           0       -0.466366    0.865159    2.423774
     25          1           0       -2.414952    2.384207    1.975001
     26          1           0       -1.135698    2.622713    0.998130
     27          1           0       -0.534314   -2.685639   -0.589763
     28          1           0       -1.598062   -2.370062   -1.969415
     29          1           0       -0.099387   -1.445265   -1.782979
     30          1           0       -3.493543   -0.826428    0.849439
     31          1           0       -3.417600   -2.169321   -0.294255
     32          1           0       -2.402800   -2.196266    1.154841
     33          1           0       -2.822063    0.988291   -0.870513
     34          1           0       -1.632806    0.551199   -2.116476
     35          1           0       -3.132340   -0.366871   -1.984643
 ---------------------------------------------------------------------

 SCF Done:  E(UB3LYP) =  -596.292275382     A.U. after   31 cycles

 The electronic state is 2-A.
 Alpha  occ. eigenvalues --  -14.26519 -14.19221 -14.18903 -10.12603 -10.11804
 Alpha  occ. eigenvalues --  -10.09386 -10.09380 -10.09151 -10.08370 -10.08274
 Alpha  occ. eigenvalues --  -10.06565 -10.06055 -10.05794 -10.05280  -0.91530
 Alpha  occ. eigenvalues --   -0.80036  -0.77166  -0.71977  -0.69599  -0.63969
 Alpha  occ. eigenvalues --   -0.61692  -0.58951  -0.58591  -0.54256  -0.52990
 Alpha  occ. eigenvalues --   -0.49465  -0.46746  -0.43834  -0.40886  -0.39875
 Alpha  occ. eigenvalues --   -0.37742  -0.36588  -0.35525  -0.34596  -0.34359
 Alpha  occ. eigenvalues --   -0.33664  -0.31807  -0.31577  -0.31205  -0.29453
 Alpha  occ. eigenvalues --   -0.28522  -0.27830  -0.27209  -0.26875  -0.26572
 Alpha  occ. eigenvalues --   -0.26134  -0.25471  -0.23828  -0.23074  -0.22571
 Alpha  occ. eigenvalues --   -0.17291  -0.17277  -0.14329  -0.12637   0.04308
 Alpha virt. eigenvalues --    0.06715   0.07117   0.07641   0.08788   0.09096
 Alpha virt. eigenvalues --    0.09297   0.09663   0.10035   0.11195   0.11476
 Alpha virt. eigenvalues --    0.11722   0.12069   0.12334   0.12731   0.13099

  Beta  occ. eigenvalues --  -14.26520 -14.19176 -14.18899 -10.12603 -10.11800
  Beta  occ. eigenvalues --  -10.09380 -10.09341 -10.09150 -10.08344 -10.08273
  Beta  occ. eigenvalues --  -10.06554 -10.06033 -10.05757 -10.05265  -0.91525
  Beta  occ. eigenvalues --   -0.80004  -0.77115  -0.71959  -0.69575  -0.63935
  Beta  occ. eigenvalues --   -0.61659  -0.58899  -0.58548  -0.54211  -0.52917
  Beta  occ. eigenvalues --   -0.49449  -0.46713  -0.43802  -0.40848  -0.39831
  Beta  occ. eigenvalues --   -0.37675  -0.36555  -0.35502  -0.34565  -0.34325
  Beta  occ. eigenvalues --   -0.33612  -0.31777  -0.31560  -0.31190  -0.29425
  Beta  occ. eigenvalues --   -0.28490  -0.27794  -0.27167  -0.26841  -0.26540
  Beta  occ. eigenvalues --   -0.26104  -0.25448  -0.23802  -0.23040  -0.22541
  Beta  occ. eigenvalues --   -0.17280  -0.17267  -0.14281  -0.12627
  Beta virt. eigenvalues --    0.06614   0.07389   0.07725   0.08139   0.09293
  Beta virt. eigenvalues --    0.09393   0.09773   0.09878   0.10426   0.11412
  Beta virt. eigenvalues --    0.11580   0.12046   0.12281   0.12516   0.13205

 Mulliken charges and spin densities:
               1          2
     1  C   -0.334441  -0.400993
     2  C    0.477319  -0.617197
     3  C   -0.686974   0.428877
     4  N    0.005403   0.014510
     5  C   -0.171686  -0.076562
     6  C   -0.092282   0.148231
     7  N    0.001312   0.283628
     8  C    1.034404  -0.966478
     9  C    1.743328  -2.409137
    10  N   -0.684117   0.210043
    11  C   -1.946450   2.409747
    12  C   -0.162791  -0.543136
    13  C    1.009333  -1.634258
    14  C   -0.004951  -0.653384
    15  H    0.113884   0.048357
    16  H   -0.103796   0.236903
    17  H    0.108578   0.059504
    18  H    0.007161   0.120204
    19  H   -0.206169   0.372850
    20  H    0.066990   0.078154
    21  H    0.040507   0.135167
    22  H    0.568804  -0.345109
    23  H   -0.653099   0.846390
    24  H   -0.297795   0.479556
    25  H   -0.357777   0.624064
    26  H    0.079658   0.144032
    27  H   -0.225987   0.387097
    28  H   -0.014675   0.176317
    29  H    0.107082   0.064499
    30  H   -0.196304   0.351707
    31  H    0.013291   0.128923
    32  H   -0.446209   0.602016
    33  H    0.261081  -0.028976
    34  H    0.057810   0.072015
    35  H   -0.110441   0.252440
 Sum of Mulliken charges =  -1.00000   1.00000

 Dipole moment (field-independent basis, Debye):
    X=              3.0564    Y=              0.4280    Z=             -5.2966  Tot=              6.1301
 Quadrupole moment (field-independent basis, Debye-Ang):
   XX=           -151.8936   YY=           -132.2716   ZZ=           -134.7478
   XY=              1.7902   XZ=             10.9362   YZ=             -3.4721

 Summary of Natural Population Analysis:

                                       Natural Population
                Natural  -----------------------------------------------
    Atom  No    Charge         Core      Valence    Rydberg      Total
 -----------------------------------------------------------------------
      C    1   -0.28006      0.99967     2.27440    0.00599     3.28006
      C    2   -0.21428      0.99960     2.20741    0.00727     3.21428
      C    3    0.20080      0.99960     1.78229    0.01731     2.79920
      N    4   -0.26716      0.99969     2.75831    0.00916     3.76716
      C    5   -0.03682      0.99957     2.02429    0.01296     3.03682
      C    6   -0.04527      0.99954     2.03453    0.01120     3.04527
      N    7   -0.21444      0.99961     2.70275    0.01208     3.71444
      C    8   -0.00486      0.99951     1.98808    0.01726     3.00486
      C    9   -0.08876      0.99959     2.07681    0.01235     3.08876
      N   10   -0.42727      0.99976     2.91638    0.01112     3.92727
      C   11   -0.04627      0.99956     2.03368    0.01303     3.04627
      C   12   -0.28542      0.99962     2.27852    0.00727     3.28542
      C   13   -0.28575      0.99962     2.27855    0.00758     3.28575
      C   14   -0.29265      0.99961     2.28700    0.00604     3.29265
      H   15    0.10136      0.00000     0.39763    0.00101     0.39864
      H   16    0.09554      0.00000     0.40373    0.00073     0.40446
      H   17    0.10245      0.00000     0.39649    0.00106     0.39755
      H   18    0.10555      0.00000     0.39297    0.00148     0.39445
      H   19    0.10616      0.00000     0.39218    0.00166     0.39384
      H   20    0.09363      0.00000     0.40554    0.00083     0.40637
      H   21    0.11013      0.00000     0.38855    0.00132     0.38987
      H   22    0.10875      0.00000     0.38755    0.00370     0.39125
      H   23    0.10159      0.00000     0.39556    0.00284     0.39841
      H   24    0.08500      0.00000     0.41274    0.00226     0.41500
      H   25    0.18314      0.00000     0.31275    0.00411     0.31686
      H   26    0.17488      0.00000     0.32282    0.00230     0.32512
      H   27    0.09966      0.00000     0.39916    0.00117     0.40034
      H   28    0.09946      0.00000     0.39976    0.00078     0.40054
      H   29    0.10258      0.00000     0.39646    0.00096     0.39742
      H   30    0.10465      0.00000     0.39402    0.00133     0.39535
      H   31    0.09984      0.00000     0.39918    0.00099     0.40016
      H   32    0.10215      0.00000     0.39636    0.00148     0.39785
      H   33    0.11624      0.00000     0.38223    0.00152     0.38376
      H   34    0.09861      0.00000     0.40030    0.00110     0.40139
      H   35    0.09684      0.00000     0.40237    0.00079     0.40316
 =======================================================================
   * Total *    0.00000     13.99458    39.82137    0.18406    54.00000

 Normal termination of Gaussian 16 at Thu Dec 10 11:50:45 2020.
