 Gaussian 16, Revision A.03,

 -----------------------------------------------------------
 # opt freq B3LYP/6-31G(d) empiricaldispersion=gd3bj scf=xqc
 -----------------------------------------------------------

 ------------------------------
 CID_88069805_JID_1003_neutraal
 ------------------------------
 Symbolic Z-matrix:
 Charge =  0 Multiplicity = 1

 SCF Done:  E(RB3LYP) =  -520.341912560     A.U. after   14 cycles
 SCF Done:  E(RB3LYP) =  -520.344244788     A.U. after   12 cycles
 SCF Done:  E(RB3LYP) =  -520.344451615     A.U. after   13 cycles
 SCF Done:  E(RB3LYP) =  -520.345848890     A.U. after   12 cycles
 SCF Done:  E(RB3LYP) =  -520.346263928     A.U. after   12 cycles
 SCF Done:  E(RB3LYP) =  -520.346436607     A.U. after   11 cycles
 SCF Done:  E(RB3LYP) =  -520.346488275     A.U. after   11 cycles
 SCF Done:  E(RB3LYP) =  -520.346536926     A.U. after   11 cycles
 SCF Done:  E(RB3LYP) =  -520.346567947     A.U. after   10 cycles
 SCF Done:  E(RB3LYP) =  -520.346576312     A.U. after   10 cycles
 SCF Done:  E(RB3LYP) =  -520.346581187     A.U. after    8 cycles
 SCF Done:  E(RB3LYP) =  -520.346581648     A.U. after    8 cycles
 SCF Done:  E(RB3LYP) =  -520.346582210     A.U. after    8 cycles
 SCF Done:  E(RB3LYP) =  -520.346582230     A.U. after    7 cycles
 Optimization completed.
    -- Stationary point found.
 Normal termination of Gaussian 16 at Tue Dec  8 19:13:21 2020.

 --------------------------------------------------------------------
 #N Geom=AllCheck Guess=TCheck SCRF=Check GenChk RB3LYP/6-31G(d) Freq
 --------------------------------------------------------------------

 Structure from the checkpoint file:  "JID_1003.chk"
 ------------------------------
 CID_88069805_JID_1003_neutraal
 ------------------------------
 Charge =  0 Multiplicity = 1

 SCF Done:  E(RB3LYP) =  -520.346582230     A.U. after    1 cycles

  Exact polarizability:  99.723  -0.456  97.299   3.752   0.882  88.355
 Approx polarizability: 133.807  -4.316 145.438   5.894   5.782 129.393

                      1                      2                      3
                      A                      A                      A
 Frequencies --     48.4877                77.0826               122.6612
 Red. masses --      6.2363                 2.7267                 3.9843
 Frc consts  --      0.0086                 0.0095                 0.0353
 IR Inten    --      1.2548                 0.2325                 1.7616

                      4                      5                      6
                      A                      A                      A
 Frequencies --    166.1779               215.6028               231.0048
 Red. masses --      4.0287                 1.1711                 1.1464
 Frc consts  --      0.0655                 0.0321                 0.0360
 IR Inten    --      0.3381                 0.8379                 2.0328

                      7                      8                      9
                      A                      A                      A
 Frequencies --    263.6768               270.7783               281.4903
 Red. masses --      1.9789                 1.4870                 1.3360
 Frc consts  --      0.0811                 0.0642                 0.0624
 IR Inten    --      4.1290                 0.5944                14.9138

                     10                     11                     12
                      A                      A                      A
 Frequencies --    297.9889               319.2161               334.1928
 Red. masses --      1.2337                 1.8533                 2.1286
 Frc consts  --      0.0645                 0.1113                 0.1401
 IR Inten    --     11.2011                14.0239                 1.4796

                     13                     14                     15
                      A                      A                      A
 Frequencies --    365.7296               376.6417               389.4035
 Red. masses --      2.3329                 2.4029                 2.3740
 Frc consts  --      0.1839                 0.2008                 0.2121
 IR Inten    --      6.0397                 2.2052                 0.5645

                     16                     17                     18
                      A                      A                      A
 Frequencies --    406.2334               443.5458               466.0445
 Red. masses --      2.6154                 2.5561                 2.3675
 Frc consts  --      0.2543                 0.2963                 0.3030
 IR Inten    --      6.4137                 4.7148                 5.4503

                     19                     20                     21
                      A                      A                      A
 Frequencies --    501.6909               504.0893               585.5583
 Red. masses --      2.5853                 2.3577                 3.0486
 Frc consts  --      0.3834                 0.3530                 0.6159
 IR Inten    --      3.0281                 2.4960                18.2754

                     22                     23                     24
                      A                      A                      A
 Frequencies --    644.7543               661.6530               749.2619
 Red. masses --      2.1237                 1.8006                 3.0517
 Frc consts  --      0.5201                 0.4644                 1.0094
 IR Inten    --     43.1392                54.3647                49.3847

                     25                     26                     27
                      A                      A                      A
 Frequencies --    837.7971               880.7130               909.0799
 Red. masses --      2.7562                 1.7778                 1.8897
 Frc consts  --      1.1398                 0.8125                 0.9201
 IR Inten    --      1.8168                86.1094                77.6942

                     28                     29                     30
                      A                      A                      A
 Frequencies --    914.8107               933.9950               948.7416
 Red. masses --      4.2762                 2.1425                 1.7934
 Frc consts  --      2.1085                 1.1012                 0.9511
 IR Inten    --      7.7489                11.9577                 2.5858

                     31                     32                     33
                      A                      A                      A
 Frequencies --    951.2132               979.8694               990.8687
 Red. masses --      1.7113                 1.1992                 1.5574
 Frc consts  --      0.9123                 0.6784                 0.9009
 IR Inten    --      4.6016                 0.1080                 4.7178

                     34                     35                     36
                      A                      A                      A
 Frequencies --   1049.0095              1058.5588              1073.8315
 Red. masses --      1.4349                 1.4027                 1.5359
 Frc consts  --      0.9303                 0.9261                 1.0435
 IR Inten    --     13.2974                 4.7779                16.8376

                     37                     38                     39
                      A                      A                      A
 Frequencies --   1152.9490              1174.9201              1199.2537
 Red. masses --      1.7514                 2.0811                 2.4644
 Frc consts  --      1.3717                 1.6926                 2.0883
 IR Inten    --     58.1783               150.9757                50.1504

                     40                     41                     42
                      A                      A                      A
 Frequencies --   1247.8705              1262.7149              1266.7752
 Red. masses --      2.0095                 1.8837                 1.8979
 Frc consts  --      1.8437                 1.7696                 1.7944
 IR Inten    --     29.0676                23.1682                13.3076

                     43                     44                     45
                      A                      A                      A
 Frequencies --   1276.0084              1346.6605              1369.5963
 Red. masses --      2.6378                 1.4774                 1.8783
 Frc consts  --      2.5305                 1.5786                 2.0758
 IR Inten    --      3.8095                 3.3389                 8.7733

                     46                     47                     48
                      A                      A                      A
 Frequencies --   1392.5722              1432.5592              1436.3300
 Red. masses --      1.9992                 1.2243                 1.2397
 Frc consts  --      2.2843                 1.4803                 1.5069
 IR Inten    --     41.8107                 2.3281                 3.3847

                     49                     50                     51
                      A                      A                      A
 Frequencies --   1446.9210              1467.6633              1501.3771
 Red. masses --      1.2518                 1.2090                 1.1068
 Frc consts  --      1.5440                 1.5344                 1.4699
 IR Inten    --     14.6080                13.2681                 6.7211

                     52                     53                     54
                      A                      A                      A
 Frequencies --   1511.2585              1515.0628              1524.7954
 Red. masses --      1.0523                 1.0499                 1.0518
 Frc consts  --      1.4161                 1.4199                 1.4408
 IR Inten    --      1.6620                 1.3793                 1.5478

                     55                     56                     57
                      A                      A                      A
 Frequencies --   1528.5780              1534.8503              1544.6658
 Red. masses --      1.0540                 1.0479                 1.0539
 Frc consts  --      1.4510                 1.4544                 1.4815
 IR Inten    --      4.0732                 4.8889                 2.3151

                     58                     59                     60
                      A                      A                      A
 Frequencies --   1549.1215              1558.3869              1694.9530
 Red. masses --      1.0525                 1.0576                 1.0906
 Frc consts  --      1.4881                 1.5133                 1.8459
 IR Inten    --      2.0411                 6.6262                38.8091

                     61                     62                     63
                      A                      A                      A
 Frequencies --   1830.2570              3046.0816              3055.7205
 Red. masses --      8.9951                 1.0389                 1.0416
 Frc consts  --     17.7534                 5.6794                 5.7306
 IR Inten    --    250.3292                29.6223                23.6520

                     64                     65                     66
                      A                      A                      A
 Frequencies --   3058.9543              3065.5182              3069.2900
 Red. masses --      1.0478                 1.0448                 1.0619
 Frc consts  --      5.7768                 5.7850                 5.8941
 IR Inten    --     17.1475                35.0909                 9.8657

                     67                     68                     69
                      A                      A                      A
 Frequencies --   3103.5045              3115.8283              3121.8902
 Red. masses --      1.0987                 1.0992                 1.0983
 Frc consts  --      6.2350                 6.2872                 6.3068
 IR Inten    --     26.4581                 7.6960                67.2269

                     70                     71                     72
                      A                      A                      A
 Frequencies --   3134.2508              3138.3064              3146.6713
 Red. masses --      1.0886                 1.1007                 1.0977
 Frc consts  --      6.3005                 6.3871                 6.4038
 IR Inten    --     18.7824                14.8295                 7.5764

                     73                     74                     75
                      A                      A                      A
 Frequencies --   3157.6488              3162.4675              3177.4975
 Red. masses --      1.0990                 1.0981                 1.1015
 Frc consts  --      6.4562                 6.4704                 6.5527
 IR Inten    --     24.5747                23.9072                10.4385

                     76                     77                     78
                      A                      A                      A
 Frequencies --   3461.8477              3546.9232              3679.3191
 Red. masses --      1.0492                 1.0921                 1.0639
 Frc consts  --      7.4083                 8.0950                 8.4858
 IR Inten    --      2.3999                 0.8922                49.8589

 - Thermochemistry -
 -------------------
 Temperature   298.150 Kelvin.  Pressure   1.00000 Atm.
 Atom     1 has atomic number  6 and mass  12.00000

 Molecular mass:   159.12593 amu.
 Principal axes and moments of inertia in atomic units:
                           1         2         3
     Eigenvalues --  1203.437192086.920492362.18923
           X            0.99955   0.02979   0.00197
           Y           -0.02976   0.99942  -0.01654
           Z           -0.00246   0.01647   0.99986
 This molecule is an asymmetric top.
 Rotational symmetry number  1.
 Warning -- assumption of classical behavior for rotation
           may cause significant error
 Rotational temperatures (Kelvin)      0.07197     0.04150     0.03667
 Rotational constants (GHZ):           1.49966     0.86479     0.76401
 Zero-point vibrational energy     659496.9 (Joules/Mol)
                                  157.62355 (Kcal/Mol)
 Warning -- explicit consideration of  21 degrees of freedom as
           vibrations may cause significant error
 Vibrational temperatures:     69.76   110.90   176.48   239.09   310.20
          (Kelvin)            332.36   379.37   389.59   405.00   428.74
                              459.28   480.83   526.20   541.90   560.26
                              584.48   638.16   670.53   721.82   725.27
                              842.49   927.66   951.97  1078.02  1205.40
                             1267.15  1307.96  1316.21  1343.81  1365.03
                             1368.58  1409.81  1425.64  1509.29  1523.03
                             1545.00  1658.84  1690.45  1725.46  1795.41
                             1816.77  1822.61  1835.89  1937.54  1970.54
                             2003.60  2061.13  2066.56  2081.80  2111.64
                             2160.15  2174.36  2179.84  2193.84  2199.28
                             2208.31  2222.43  2228.84  2242.17  2438.66
                             2633.33  4382.63  4396.50  4401.15  4410.60
                             4416.02  4465.25  4482.98  4491.70  4509.49
                             4515.32  4527.36  4543.15  4550.09  4571.71
                             4980.83  5103.23  5293.72

 Zero-point correction=                           0.251189 (Hartree/Particle)
 Thermal correction to Energy=                    0.264089
 Thermal correction to Enthalpy=                  0.265034
 Thermal correction to Gibbs Free Energy=         0.213473
 Sum of electronic and zero-point Energies=           -520.095393
 Sum of electronic and thermal Energies=              -520.082493
 Sum of electronic and thermal Enthalpies=            -520.081549
 Sum of electronic and thermal Free Energies=         -520.133109

                     E (Thermal)             CV                S
                      KCal/Mol        Cal/Mol-Kelvin    Cal/Mol-Kelvin
 Total                  165.719             50.132            108.518
 Electronic               0.000              0.000              0.000
 Translational            0.889              2.981             41.103
 Rotational               0.889              2.981             30.163
 Vibrational            163.941             44.170             37.253
 Vibration     1          0.595              1.978              4.878
 Vibration     2          0.599              1.964              3.964
 Vibration     3          0.610              1.930              3.058
 Vibration     4          0.624              1.884              2.478
 Vibration     5          0.645              1.817              1.996
 Vibration     6          0.653              1.794              1.871
 Vibration     7          0.670              1.739              1.637
 Vibration     8          0.674              1.727              1.591
 Vibration     9          0.681              1.708              1.525
 Vibration    10          0.691              1.677              1.428
 Vibration    11          0.705              1.637              1.314
 Vibration    12          0.716              1.607              1.240
 Vibration    13          0.739              1.543              1.098
 Vibration    14          0.747              1.520              1.053
 Vibration    15          0.757              1.493              1.002
 Vibration    16          0.771              1.457              0.940
 Vibration    17          0.803              1.375              0.816
 Vibration    18          0.823              1.325              0.749
 Vibration    19          0.857              1.246              0.654
 Vibration    20          0.859              1.241              0.648
 Vibration    21          0.943              1.063              0.475

 Optimization completed.
    -- Stationary point found.
 Normal termination of Gaussian 16 at Tue Dec  8 19:20:01 2020.

 ----------------------------------------------------------------------
 # B3LYP/6-311++G(d,p) empiricaldispersion=gd3bj scf=xqc pop=npa geom=c
 heck
 ----------------------------------------------------------------------

 --------------------------------------
 CID_88069805_JID_1003_Energie_neutraal
 --------------------------------------
 Structure from the checkpoint file:  "JID_1003.chk"
 Charge =  0 Multiplicity = 1

 SCF Done:  E(RB3LYP) =  -520.514355869     A.U. after   14 cycles
 Normal termination of Gaussian 16 at Tue Dec  8 19:22:34 2020.

 ----------------------------------------------------------------------
 # B3LYP/6-311++G(d,p) empiricaldispersion=gd3bj scf=xqc pop=npa geom=c
 heck
 ----------------------------------------------------------------------

 ------------------------------------
 CID_88069805_JID_1003_Energie_kation
 ------------------------------------
 Structure from the checkpoint file:  "JID_1003.chk"
 Charge =  1 Multiplicity = 2

 SCF Done:  E(UB3LYP) =  -520.183891499     A.U. after   20 cycles
 Normal termination of Gaussian 16 at Tue Dec  8 19:27:25 2020.
 Gaussian 16:  ES64L-G16RevA.03 25-Dec-2016

 ----------------------------------------------------------------------
 # B3LYP/6-311++G(d,p) empiricaldispersion=gd3bj scf=xqc pop=npa geom=c
 heck
 ----------------------------------------------------------------------

 -----------------------------------
 CID_88069805_JID_1003_Energie_anion
 -----------------------------------
 Structure from the checkpoint file:  "JID_1003.chk"
 Charge = -1 Multiplicity = 2

                         Standard orientation:
 ---------------------------------------------------------------------
 Center     Atomic      Atomic             Coordinates (Angstroms)
 Number     Number       Type             X           Y           Z
 ---------------------------------------------------------------------
      1          6           0       -0.284716    1.677752    1.063887
      2          6           0       -0.472431    0.797557   -0.180283
      3          6           0        0.909326    0.644543   -0.919894
      4          6           0        2.009110   -0.151194   -0.262467
      5          8           0        2.355966   -1.272809   -0.570530
      6          8           0        2.615409    0.531076    0.744118
      7          6           0       -1.149410   -0.588954    0.164008
      8          6           0       -2.636942   -0.379486    0.515901
      9          6           0       -1.070799   -1.555797   -1.036735
     10          6           0       -0.481993   -1.275095    1.373726
     11          7           0       -1.378923    1.539796   -1.075918
     12          1           0        0.454073    1.264127    1.750917
     13          1           0       -1.233065    1.811832    1.589007
     14          1           0        0.071646    2.670779    0.763717
     15          1           0        0.740493    0.188836   -1.896973
     16          1           0        1.288810    1.660349   -1.079440
     17          1           0        3.293935   -0.072380    1.101983
     18          1           0       -3.198627    0.032032   -0.324387
     19          1           0       -3.080745   -1.341455    0.797953
     20          1           0       -2.763414    0.303851    1.361339
     21          1           0       -0.042746   -1.860831   -1.249988
     22          1           0       -1.646333   -2.461417   -0.815253
     23          1           0       -1.501453   -1.122400   -1.947998
     24          1           0        0.578127   -1.482262    1.216022
     25          1           0       -0.589712   -0.682404    2.286981
     26          1           0       -0.970662   -2.239837    1.551212
     27          1           0       -0.954966    2.434659   -1.317563
     28          1           0       -1.496771    1.035852   -1.953659
 ---------------------------------------------------------------------

 SCF Done:  E(UB3LYP) =  -520.501307457     A.U. after   30 cycles

 The electronic state is 2-A.
 Alpha  occ. eigenvalues --  -19.05957 -19.00693 -14.18276 -10.19743 -10.11308
 Alpha  occ. eigenvalues --  -10.08244 -10.07163 -10.05135 -10.05096 -10.04848
 Alpha  occ. eigenvalues --  -10.04746  -1.00100  -0.91124  -0.79469  -0.70351
 Alpha  occ. eigenvalues --   -0.65758  -0.61074  -0.57848  -0.57675  -0.51860
 Alpha  occ. eigenvalues --   -0.48981  -0.42189  -0.39721  -0.38430  -0.37502
 Alpha  occ. eigenvalues --   -0.37085  -0.34599  -0.33376  -0.32105  -0.31953
 Alpha  occ. eigenvalues --   -0.30739  -0.29365  -0.28591  -0.27232  -0.26986
 Alpha  occ. eigenvalues --   -0.26276  -0.25497  -0.25300  -0.22511  -0.21733
 Alpha  occ. eigenvalues --   -0.20978  -0.20823  -0.17971  -0.13664   0.04684
 Alpha virt. eigenvalues --    0.07122   0.07511   0.08647   0.09227   0.10125
 Alpha virt. eigenvalues --    0.10373   0.10603   0.11065   0.11933   0.12772
 Alpha virt. eigenvalues --    0.13241   0.13902   0.13987   0.15122   0.15359

  Beta  occ. eigenvalues --  -19.05899 -19.00670 -14.18228 -10.19718 -10.11307
  Beta  occ. eigenvalues --  -10.08242 -10.07127 -10.05116 -10.05073 -10.04834
  Beta  occ. eigenvalues --  -10.04717  -1.00015  -0.91052  -0.79413  -0.70313
  Beta  occ. eigenvalues --   -0.65680  -0.61012  -0.57806  -0.57632  -0.51772
  Beta  occ. eigenvalues --   -0.48885  -0.42124  -0.39669  -0.38377  -0.37421
  Beta  occ. eigenvalues --   -0.37035  -0.34555  -0.33341  -0.32070  -0.31885
  Beta  occ. eigenvalues --   -0.30690  -0.29327  -0.28555  -0.27205  -0.26957
  Beta  occ. eigenvalues --   -0.26245  -0.25461  -0.25271  -0.22461  -0.21692
  Beta  occ. eigenvalues --   -0.20944  -0.20771  -0.17933  -0.13613
  Beta virt. eigenvalues --    0.07112   0.08193   0.08579   0.09094   0.09580
  Beta virt. eigenvalues --    0.10391   0.10897   0.10952   0.11479   0.12161
  Beta virt. eigenvalues --    0.13242   0.13593   0.14200   0.14317   0.15305

 Mulliken charges and spin densities:
               1          2
     1  C    0.562487  -1.114053
     2  C    0.897443  -0.915967
     3  C    0.414867  -0.799564
     4  C   -0.456908   0.182177
     5  O   -0.255649   0.035091
     6  O   -0.145849   0.032973
     7  C   -0.094049   0.521002
     8  C   -0.105897  -0.347319
     9  C    0.466015  -1.068540
    10  C   -0.241217  -0.356018
    11  N   -0.446910   0.227854
    12  H    0.053999   0.127410
    13  H   -0.008055   0.161682
    14  H   -0.190275   0.323672
    15  H   -0.161897   0.359592
    16  H   -0.386132   0.585660
    17  H   -0.493542   0.796786
    18  H    0.040540   0.109354
    19  H    0.004014   0.130012
    20  H    0.033458   0.087803
    21  H    0.240193  -0.061101
    22  H    0.061110   0.074602
    23  H   -0.268922   0.400661
    24  H   -0.210091   0.411203
    25  H   -0.043428   0.190189
    26  H    0.083430   0.060311
    27  H   -0.127622   0.383221
    28  H   -0.221112   0.461306
 Sum of Mulliken charges =  -1.00000   1.00000

 Dipole moment (field-independent basis, Debye):
    X=             -2.9523    Y=             -2.6120    Z=              1.4962  Tot=              4.2163
 Quadrupole moment (field-independent basis, Debye-Ang):
   XX=           -121.3400   YY=           -108.1956   ZZ=           -107.9372
   XY=              3.2335   XZ=             -7.8497   YZ=              3.4820

 Summary of Natural Population Analysis:

                                       Natural Population
                Natural  -----------------------------------------------
    Atom  No    Charge         Core      Valence    Rydberg      Total
 -----------------------------------------------------------------------
      C    1   -0.29122      0.99960     2.28395    0.00767     3.29122
      C    2    0.06833      0.99954     1.91487    0.01727     2.93167
      C    3   -0.25090      0.99952     2.23861    0.01277     3.25090
      C    4    0.41122      0.99970     1.56381    0.02527     2.58878
      O    5   -0.31158      0.99987     3.30592    0.00578     4.31158
      O    6   -0.34546      0.99988     3.33827    0.00731     4.34546
      C    7   -0.04429      0.99954     2.03170    0.01305     3.04429
      C    8   -0.28280      0.99962     2.27653    0.00664     3.28280
      C    9   -0.29171      0.99962     2.28462    0.00746     3.29171
      C   10   -0.28744      0.99962     2.28059    0.00723     3.28744
      N   11   -0.42548      0.99975     2.91376    0.01196     3.92548
      H   12    0.10909      0.00000     0.38932    0.00159     0.39091
      H   13    0.10180      0.00000     0.39718    0.00102     0.39820
      H   14    0.10132      0.00000     0.39754    0.00114     0.39868
      H   15    0.11420      0.00000     0.38411    0.00169     0.38580
      H   16    0.11622      0.00000     0.38117    0.00261     0.38378
      H   17    0.24388      0.00000     0.24174    0.01438     0.25612
      H   18    0.10821      0.00000     0.39066    0.00114     0.39179
      H   19    0.09319      0.00000     0.40595    0.00086     0.40681
      H   20    0.09904      0.00000     0.40015    0.00082     0.40096
      H   21    0.11023      0.00000     0.38863    0.00114     0.38977
      H   22    0.09779      0.00000     0.40144    0.00077     0.40221
      H   23    0.09779      0.00000     0.40111    0.00110     0.40221
      H   24    0.10520      0.00000     0.39354    0.00126     0.39480
      H   25    0.10072      0.00000     0.39840    0.00088     0.39928
      H   26    0.09752      0.00000     0.40168    0.00080     0.40248
      H   27    0.17816      0.00000     0.31866    0.00318     0.32184
      H   28    0.17694      0.00000     0.31976    0.00330     0.32306
 =======================================================================
   * Total *   -0.00000     10.99626    32.84365    0.16009    44.00000

 Normal termination of Gaussian 16 at Tue Dec  8 19:34:31 2020.
