 Gaussian 16, Revision A.03,

 -----------------------------------------------------------
 # opt freq B3LYP/6-31G(d) empiricaldispersion=gd3bj scf=xqc
 -----------------------------------------------------------

 -----------------------------
 CID_54245274_JID_161_neutraal
 -----------------------------
 Symbolic Z-matrix:
 Charge =  0 Multiplicity = 1

 SCF Done:  E(RB3LYP) =  -518.073723187     A.U. after   13 cycles
 SCF Done:  E(RB3LYP) =  -518.078498363     A.U. after   11 cycles
 SCF Done:  E(RB3LYP) =  -518.079560757     A.U. after   10 cycles
 SCF Done:  E(RB3LYP) =  -518.080139903     A.U. after   11 cycles
 SCF Done:  E(RB3LYP) =  -518.080547912     A.U. after   11 cycles
 SCF Done:  E(RB3LYP) =  -518.080836138     A.U. after   11 cycles
 SCF Done:  E(RB3LYP) =  -518.081194446     A.U. after   10 cycles
 SCF Done:  E(RB3LYP) =  -518.082010070     A.U. after   12 cycles
 SCF Done:  E(RB3LYP) =  -518.082402837     A.U. after   12 cycles
 SCF Done:  E(RB3LYP) =  -518.082900542     A.U. after   10 cycles
 SCF Done:  E(RB3LYP) =  -518.083007622     A.U. after   10 cycles
 SCF Done:  E(RB3LYP) =  -518.083014530     A.U. after    8 cycles
 SCF Done:  E(RB3LYP) =  -518.083020902     A.U. after    9 cycles
 SCF Done:  E(RB3LYP) =  -518.083022259     A.U. after    7 cycles
 SCF Done:  E(RB3LYP) =  -518.083022884     A.U. after    8 cycles
 SCF Done:  E(RB3LYP) =  -518.083022906     A.U. after    6 cycles
 Optimization completed.
    -- Stationary point found.
 Normal termination of Gaussian 16 at Tue Dec  8 10:20:58 2020.

 --------------------------------------------------------------------
 #N Geom=AllCheck Guess=TCheck SCRF=Check GenChk RB3LYP/6-31G(d) Freq
 --------------------------------------------------------------------

 Structure from the checkpoint file:  "JID_161.chk"
 -----------------------------
 CID_54245274_JID_161_neutraal
 -----------------------------
 Charge =  0 Multiplicity = 1

 SCF Done:  E(RB3LYP) =  -518.083022906     A.U. after    1 cycles

  Exact polarizability:  97.763   0.567  80.956  -1.473   0.591  70.953
 Approx polarizability: 111.715   3.174 109.810  -1.661  -2.281 107.508

                      1                      2                      3
                      A                      A                      A
 Frequencies --     24.5494                45.6617                50.6112
 Red. masses --      4.4162                 3.4459                 3.7775
 Frc consts  --      0.0016                 0.0042                 0.0057
 IR Inten    --      0.2901                 0.4460                 2.1589

                      4                      5                      6
                      A                      A                      A
 Frequencies --    104.8563               133.7661               166.7796
 Red. masses --      3.7844                 3.8744                 3.7820
 Frc consts  --      0.0245                 0.0408                 0.0620
 IR Inten    --      6.2618                 6.9263                 2.3938

                      7                      8                      9
                      A                      A                      A
 Frequencies --    196.9458               245.3431               255.2046
 Red. masses --      2.8737                 1.0842                 1.1146
 Frc consts  --      0.0657                 0.0385                 0.0428
 IR Inten    --      2.3564                 1.1829               114.3191

                     10                     11                     12
                      A                      A                      A
 Frequencies --    298.3542               344.5261               364.9159
 Red. masses --      2.5871                 2.5342                 2.0405
 Frc consts  --      0.1357                 0.1772                 0.1601
 IR Inten    --      1.5513                 1.0389                 6.8962

                     13                     14                     15
                      A                      A                      A
 Frequencies --    380.2047               398.2228               479.9495
 Red. masses --      1.3164                 2.1234                 2.5298
 Frc consts  --      0.1121                 0.1984                 0.3433
 IR Inten    --     62.7117                39.6677                30.2755

                     16                     17                     18
                      A                      A                      A
 Frequencies --    531.6623               561.4744               573.1565
 Red. masses --      2.3228                 2.7070                 1.9954
 Frc consts  --      0.3868                 0.5028                 0.3862
 IR Inten    --      2.7081                35.5939                13.9807

                     19                     20                     21
                      A                      A                      A
 Frequencies --    767.0216               808.2964               860.3508
 Red. masses --      1.5680                 2.2036                 2.2511
 Frc consts  --      0.5435                 0.8483                 0.9817
 IR Inten    --    100.2023                 5.4669                13.5831

                     22                     23                     24
                      A                      A                      A
 Frequencies --    901.7797               924.0227               940.5137
 Red. masses --      2.2396                 2.2458                 2.0549
 Frc consts  --      1.0731                 1.1298                 1.0710
 IR Inten    --      4.3059                 9.3883                35.1045

                     25                     26                     27
                      A                      A                      A
 Frequencies --    983.4803              1040.6980              1063.4645
 Red. masses --      1.7814                 2.3408                 1.8244
 Frc consts  --      1.0152                 1.4937                 1.2157
 IR Inten    --     29.3310                22.3264                65.1450

                     28                     29                     30
                      A                      A                      A
 Frequencies --   1086.2804              1101.7057              1116.7493
 Red. masses --      2.6513                 2.0653                 2.8529
 Frc consts  --      1.8433                 1.4769                 2.0962
 IR Inten    --     34.2311                45.4765                 9.3936

                     31                     32                     33
                      A                      A                      A
 Frequencies --   1129.2656              1165.5823              1175.3100
 Red. masses --      1.8517                 3.2657                 3.7550
 Frc consts  --      1.3912                 2.6140                 3.0561
 IR Inten    --     83.3134               104.1899                88.3275

                     34                     35                     36
                      A                      A                      A
 Frequencies --   1198.6536              1262.4243              1272.0444
 Red. masses --      1.9821                 1.2801                 1.1295
 Frc consts  --      1.6779                 1.2020                 1.0768
 IR Inten    --     40.1345                21.6893                 9.8556

                     37                     38                     39
                      A                      A                      A
 Frequencies --   1280.8466              1297.3736              1321.9587
 Red. masses --      1.1220                 1.2415                 1.4049
 Frc consts  --      1.0845                 1.2312                 1.4466
 IR Inten    --     19.9419                 9.1377                 6.3083

                     40                     41                     42
                      A                      A                      A
 Frequencies --   1353.1713              1386.5904              1402.5217
 Red. masses --      1.1399                 1.2690                 1.2747
 Frc consts  --      1.2298                 1.4375                 1.4773
 IR Inten    --     46.9168                27.8542                14.3567

                     43                     44                     45
                      A                      A                      A
 Frequencies --   1419.6671              1432.4934              1442.3403
 Red. masses --      1.2932                 1.3250                 1.3188
 Frc consts  --      1.5356                 1.6020                 1.6165
 IR Inten    --     12.7438                14.2610                 9.8244

                     46                     47                     48
                      A                      A                      A
 Frequencies --   1451.4490              1476.5302              1505.0699
 Red. masses --      1.2177                 1.5111                 1.1124
 Frc consts  --      1.5115                 1.9409                 1.4846
 IR Inten    --     75.4223                 2.3984                12.7222

                     49                     50                     51
                      A                      A                      A
 Frequencies --   1505.7479              1512.5459              1524.4969
 Red. masses --      1.1001                 1.1200                 1.0621
 Frc consts  --      1.4695                 1.5096                 1.4544
 IR Inten    --      1.1120                17.3016                 0.8540

                     52                     53                     54
                      A                      A                      A
 Frequencies --   1531.8792              1537.3957              1549.7840
 Red. masses --      1.1667                 1.0934                 1.1003
 Frc consts  --      1.6130                 1.5227                 1.5570
 IR Inten    --     25.8735                 4.2830                16.6761

                     55                     56                     57
                      A                      A                      A
 Frequencies --   2984.5607              2987.7814              3005.3297
 Red. masses --      1.0623                 1.0814                 1.0678
 Frc consts  --      5.5751                 5.6879                 5.6824
 IR Inten    --     66.3010                38.2348                19.5299

                     58                     59                     60
                      A                      A                      A
 Frequencies --   3012.1012              3036.2794              3047.7700
 Red. masses --      1.0694                 1.0989                 1.0372
 Frc consts  --      5.7167                 5.9689                 5.6767
 IR Inten    --     52.0611                81.4593                16.4770

                     61                     62                     63
                      A                      A                      A
 Frequencies --   3058.3625              3083.4183              3090.1989
 Red. masses --      1.0662                 1.0939                 1.0972
 Frc consts  --      5.8757                 6.1278                 6.1732
 IR Inten    --     26.0088                60.2356                41.7910

                     64                     65                     66
                      A                      A                      A
 Frequencies --   3113.1067              3118.0413              3145.4959
 Red. masses --      1.1019                 1.1002                 1.1012
 Frc consts  --      6.2919                 6.3021                 6.4193
 IR Inten    --     35.0518                15.5741                21.9133

                     67                     68                     69
                      A                      A                      A
 Frequencies --   3516.7581              3697.3692              3756.5731
 Red. masses --      1.0734                 1.0645                 1.0665
 Frc consts  --      7.8217                 8.5743                 8.8673
 IR Inten    --      3.0915                11.5438                16.1254

 - Thermochemistry -
 -------------------
 Temperature   298.150 Kelvin.  Pressure   1.00000 Atm.
 Atom     1 has atomic number  6 and mass  12.00000

 Molecular mass:   149.10519 amu.
 Principal axes and moments of inertia in atomic units:
                           1         2         3
     Eigenvalues --   623.141783625.414063854.05691
           X            0.99997  -0.00750  -0.00105
           Y            0.00754   0.99893   0.04568
           Z            0.00070  -0.04569   0.99896
 This molecule is an asymmetric top.
 Rotational symmetry number  1.
 Warning -- assumption of classical behavior for rotation
           may cause significant error
 Rotational temperatures (Kelvin)      0.13900     0.02389     0.02247
 Rotational constants (GHZ):           2.89620     0.49780     0.46827
 Zero-point vibrational energy     583411.8 (Joules/Mol)
                                  139.43877 (Kcal/Mol)
 Warning -- explicit consideration of  18 degrees of freedom as
           vibrations may cause significant error
 Vibrational temperatures:     35.32    65.70    72.82   150.86   192.46
          (Kelvin)            239.96   283.36   352.99   367.18   429.27
                              495.70   525.03   547.03   572.95   690.54
                              764.94   807.84   824.64  1103.57  1162.96
                             1237.85  1297.46  1329.46  1353.19  1415.01
                             1497.33  1530.09  1562.92  1585.11  1606.75
                             1624.76  1677.01  1691.01  1724.60  1816.35
                             1830.19  1842.85  1866.63  1902.00  1946.91
                             1994.99  2017.92  2042.58  2061.04  2075.21
                             2088.31  2124.40  2165.46  2166.44  2176.22
                             2193.41  2204.03  2211.97  2229.79  4294.12
                             4298.75  4324.00  4333.74  4368.53  4385.06
                             4400.30  4436.35  4446.11  4479.07  4486.17
                             4525.67  5059.83  5319.69  5404.87

 Zero-point correction=                           0.222210 (Hartree/Particle)
 Thermal correction to Energy=                    0.234506
 Thermal correction to Enthalpy=                  0.235450
 Thermal correction to Gibbs Free Energy=         0.182321
 Sum of electronic and zero-point Energies=           -517.860813
 Sum of electronic and thermal Energies=              -517.848517
 Sum of electronic and thermal Enthalpies=            -517.847573
 Sum of electronic and thermal Free Energies=         -517.900701

                     E (Thermal)             CV                S
                      KCal/Mol        Cal/Mol-Kelvin    Cal/Mol-Kelvin
 Total                  147.155             43.651            111.818
 Electronic               0.000              0.000              0.000
 Translational            0.889              2.981             40.909
 Rotational               0.889              2.981             30.544
 Vibrational            145.377             37.689             40.366
 Vibration     1          0.593              1.985              6.227
 Vibration     2          0.595              1.979              4.997
 Vibration     3          0.595              1.977              4.793
 Vibration     4          0.605              1.945              3.362
 Vibration     5          0.613              1.920              2.891
 Vibration     6          0.624              1.883              2.471
 Vibration     7          0.636              1.844              2.161
 Vibration     8          0.660              1.770              1.764
 Vibration     9          0.666              1.754              1.694
 Vibration    10          0.691              1.677              1.426
 Vibration    11          0.723              1.586              1.191
 Vibration    12          0.738              1.544              1.101
 Vibration    13          0.750              1.512              1.038
 Vibration    14          0.764              1.474              0.969
 Vibration    15          0.836              1.295              0.710
 Vibration    16          0.887              1.180              0.584
 Vibration    17          0.917              1.115              0.521
 Vibration    18          0.929              1.089              0.498

                           ! Non-Optimized Parameters !
 Normal termination of Gaussian 16 at Tue Dec  8 10:24:55 2020.

 ----------------------------------------------------------------------
 # B3LYP/6-311++G(d,p) empiricaldispersion=gd3bj scf=xqc pop=npa geom=c
 heck
 ----------------------------------------------------------------------

 -------------------------------------
 CID_54245274_JID_161_Energie_neutraal
 -------------------------------------
 Structure from the checkpoint file:  "JID_161.chk"
 Charge =  0 Multiplicity = 1

 SCF Done:  E(RB3LYP) =  -518.263360087     A.U. after   12 cycles
 Normal termination of Gaussian 16 at Tue Dec  8 10:26:32 2020.

 ----------------------------------------------------------------------
 # B3LYP/6-311++G(d,p) empiricaldispersion=gd3bj scf=xqc pop=npa geom=c
 heck
 ----------------------------------------------------------------------

 -----------------------------------
 CID_54245274_JID_161_Energie_kation
 -----------------------------------
 Structure from the checkpoint file:  "JID_161.chk"
 Charge =  1 Multiplicity = 2

 SCF Done:  E(UB3LYP) =  -517.948061750     A.U. after   23 cycles
 Normal termination of Gaussian 16 at Tue Dec  8 10:30:37 2020.
 Gaussian 16:  ES64L-G16RevA.03 25-Dec-2016

 ----------------------------------------------------------------------
 # B3LYP/6-311++G(d,p) empiricaldispersion=gd3bj scf=xqc pop=npa geom=c
 heck
 ----------------------------------------------------------------------

 ----------------------------------
 CID_54245274_JID_161_Energie_anion
 ----------------------------------
 Structure from the checkpoint file:  "JID_161.chk"
 Charge = -1 Multiplicity = 2

                         Standard orientation:
 ---------------------------------------------------------------------
 Center     Atomic      Atomic             Coordinates (Angstroms)
 Number     Number       Type             X           Y           Z
 ---------------------------------------------------------------------
      1          6           0        3.126271   -1.485981   -0.292146
      2          6           0        2.420055   -0.137030   -0.399770
      3          7           0        1.660516    0.117951    0.812139
      4          6           0        0.654766    1.175073    0.694750
      5          6           0       -0.618468    0.746421   -0.026954
      6          8           0       -1.152205   -0.358751    0.701979
      7          6           0       -2.162489   -1.093632    0.040464
      8          6           0       -3.533268   -0.434889    0.070760
      9          8           0       -3.546270    0.650839   -0.850693
     10          8           0        3.342320    0.927404   -0.597053
     11          1           0        3.727596   -1.521423    0.623888
     12          1           0        3.785670   -1.627635   -1.152431
     13          1           0        2.405532   -2.312415   -0.264478
     14          1           0        1.806344   -0.120628   -1.315392
     15          1           0        1.198185   -0.731567    1.129236
     16          1           0        0.388966    1.512608    1.703825
     17          1           0        1.110746    2.021970    0.172391
     18          1           0       -1.340892    1.569561   -0.077118
     19          1           0       -0.402603    0.435980   -1.061318
     20          1           0       -1.882047   -1.289482   -1.006971
     21          1           0       -2.227492   -2.053985    0.565002
     22          1           0       -4.291609   -1.190186   -0.196555
     23          1           0       -3.735767   -0.096832    1.098272
     24          1           0       -4.380432    1.130451   -0.738175
     25          1           0        3.742223    1.072228    0.278370
 ---------------------------------------------------------------------

 SCF Done:  E(UB3LYP) =  -518.249902022     A.U. after   25 cycles

 The electronic state is 2-A.
 Alpha  occ. eigenvalues --  -19.02932 -19.02262 -19.01033 -14.20534 -10.15336
 Alpha  occ. eigenvalues --  -10.11001 -10.10943 -10.10338 -10.09482 -10.06958
 Alpha  occ. eigenvalues --   -0.94133  -0.93607  -0.90844  -0.80466  -0.67053
 Alpha  occ. eigenvalues --   -0.64151  -0.60274  -0.53321  -0.51867  -0.48799
 Alpha  occ. eigenvalues --   -0.42605  -0.41714  -0.39285  -0.39010  -0.38058
 Alpha  occ. eigenvalues --   -0.35434  -0.34355  -0.33207  -0.31896  -0.30127
 Alpha  occ. eigenvalues --   -0.29116  -0.28344  -0.27540  -0.26682  -0.25024
 Alpha  occ. eigenvalues --   -0.23927  -0.21899  -0.19381  -0.17417  -0.15451
 Alpha  occ. eigenvalues --   -0.14426   0.04616
 Alpha virt. eigenvalues --    0.06282   0.07605   0.08456   0.08875   0.09373
 Alpha virt. eigenvalues --    0.10127   0.11109   0.11385   0.11685   0.12269
 Alpha virt. eigenvalues --    0.12645   0.14455   0.14578   0.15215   0.16312

  Beta  occ. eigenvalues --  -19.02921 -19.02256 -19.00980 -14.20524 -10.15331
  Beta  occ. eigenvalues --  -10.10982 -10.10936 -10.10293 -10.09476 -10.06929
  Beta  occ. eigenvalues --   -0.94111  -0.93586  -0.90736  -0.80449  -0.67020
  Beta  occ. eigenvalues --   -0.64093  -0.60213  -0.53274  -0.51814  -0.48734
  Beta  occ. eigenvalues --   -0.42583  -0.41568  -0.39253  -0.38971  -0.38027
  Beta  occ. eigenvalues --   -0.35400  -0.34313  -0.33169  -0.31857  -0.30083
  Beta  occ. eigenvalues --   -0.29088  -0.28312  -0.27507  -0.26654  -0.25006
  Beta  occ. eigenvalues --   -0.23857  -0.21866  -0.19357  -0.17365  -0.15416
  Beta  occ. eigenvalues --   -0.14406
  Beta virt. eigenvalues --    0.06671   0.07946   0.08018   0.08801   0.09565
  Beta virt. eigenvalues --    0.09815   0.10620   0.11420   0.11661   0.12029
  Beta virt. eigenvalues --    0.12804   0.13057   0.14663   0.14773   0.15218

 Mulliken charges and spin densities:
               1          2
     1  C    0.658003  -1.113644
     2  C   -0.573340   0.317828
     3  N   -0.145122   0.060674
     4  C   -0.074312  -0.454337
     5  C   -0.009681  -0.131349
     6  O   -0.176248   0.050381
     7  C   -0.930959   0.719466
     8  C    2.296621  -2.564906
     9  O   -0.358001   0.075263
    10  O   -0.255856   0.008537
    11  H   -0.136868   0.285046
    12  H   -0.061669   0.214986
    13  H   -0.352325   0.503413
    14  H    0.168554  -0.027815
    15  H    0.192159   0.040931
    16  H    0.041776   0.142146
    17  H    0.073785   0.082606
    18  H    0.266207  -0.071514
    19  H    0.000919   0.117579
    20  H    0.203323  -0.059075
    21  H   -0.502856   0.656483
    22  H   -0.688584   0.833291
    23  H   -0.380051   0.533114
    24  H   -0.422779   0.702937
    25  H    0.167303   0.077961
 Sum of Mulliken charges =  -1.00000   1.00000

 Dipole moment (field-independent basis, Debye):
    X=              7.7307    Y=              1.6343    Z=              0.3221  Tot=              7.9081
 Quadrupole moment (field-independent basis, Debye-Ang):
   XX=           -161.7120   YY=            -97.6121   ZZ=            -89.3661
   XY=              4.3077   XZ=             -0.5498   YZ=              4.2043

 Summary of Natural Population Analysis:

                                       Natural Population
                Natural  -----------------------------------------------
    Atom  No    Charge         Core      Valence    Rydberg      Total
 -----------------------------------------------------------------------
      C    1   -0.29993      0.99965     2.29419    0.00609     3.29993
      C    2    0.14531      0.99963     1.83833    0.01673     2.85469
      N    3   -0.35315      0.99973     2.84145    0.01197     3.85315
      C    4   -0.10022      0.99962     2.08925    0.01136     3.10022
      C    5   -0.01753      0.99957     2.00788    0.01007     3.01753
      O    6   -0.30903      0.99988     3.29896    0.01019     4.30903
      C    7   -0.01673      0.99958     2.00221    0.01495     3.01673
      C    8   -0.02209      0.99961     2.00962    0.01286     3.02209
      O    9   -0.37705      0.99989     3.36933    0.00783     4.37705
      O   10   -0.37535      0.99990     3.36931    0.00614     4.37535
      H   11    0.09929      0.00000     0.39925    0.00146     0.40071
      H   12    0.10347      0.00000     0.39554    0.00099     0.39653
      H   13    0.10260      0.00000     0.39598    0.00142     0.39740
      H   14    0.07084      0.00000     0.42654    0.00262     0.42916
      H   15    0.18486      0.00000     0.31149    0.00364     0.31514
      H   16    0.09522      0.00000     0.40349    0.00129     0.40478
      H   17    0.09942      0.00000     0.39936    0.00121     0.40058
      H   18    0.09437      0.00000     0.40409    0.00153     0.40563
      H   19    0.07716      0.00000     0.42124    0.00160     0.42284
      H   20    0.08007      0.00000     0.41831    0.00162     0.41993
      H   21    0.09257      0.00000     0.40541    0.00202     0.40743
      H   22    0.08028      0.00000     0.41576    0.00396     0.41972
      H   23    0.08052      0.00000     0.41667    0.00281     0.41948
      H   24    0.23823      0.00000     0.24583    0.01594     0.26177
      H   25    0.22683      0.00000     0.27007    0.00310     0.27317
 =======================================================================
   * Total *    0.00000      9.99705    30.84957    0.15338    41.00000

 Normal termination of Gaussian 16 at Tue Dec  8 10:41:40 2020.
