 Gaussian 16, Revision A.03,

 -----------------------------------------------------------
 # opt freq B3LYP/6-31G(d) empiricaldispersion=gd3bj scf=xqc
 -----------------------------------------------------------

 -------------------------------
 CID_144950321_JID_9713_neutraal
 -------------------------------
 Symbolic Z-matrix:
 Charge =  0 Multiplicity = 1

 SCF Done:  E(RB3LYP) =  -769.438313152     A.U. after   14 cycles
 SCF Done:  E(RB3LYP) =  -769.445853332     A.U. after   12 cycles
 SCF Done:  E(RB3LYP) =  -769.447405008     A.U. after   12 cycles
 SCF Done:  E(RB3LYP) =  -769.448152402     A.U. after   12 cycles
 SCF Done:  E(RB3LYP) =  -769.448460185     A.U. after   12 cycles
 SCF Done:  E(RB3LYP) =  -769.448661171     A.U. after   12 cycles
 SCF Done:  E(RB3LYP) =  -769.448716562     A.U. after   11 cycles
 SCF Done:  E(RB3LYP) =  -769.448738638     A.U. after   10 cycles
 SCF Done:  E(RB3LYP) =  -769.448743721     A.U. after   10 cycles
 SCF Done:  E(RB3LYP) =  -769.448745203     A.U. after    9 cycles
 SCF Done:  E(RB3LYP) =  -769.448745446     A.U. after    8 cycles
 SCF Done:  E(RB3LYP) =  -769.448745436     A.U. after    7 cycles
 SCF Done:  E(RB3LYP) =  -769.448745459     A.U. after    6 cycles
 SCF Done:  E(RB3LYP) =  -769.448745482     A.U. after    7 cycles
 Optimization completed.
    -- Stationary point found.
 Normal termination of Gaussian 16 at Mon Dec 14 17:25:28 2020.

 --------------------------------------------------------------------
 #N Geom=AllCheck Guess=TCheck SCRF=Check GenChk RB3LYP/6-31G(d) Freq
 --------------------------------------------------------------------

 Structure from the checkpoint file:  "JID_9713.chk"
 -------------------------------
 CID_144950321_JID_9713_neutraal
 -------------------------------
 Charge =  0 Multiplicity = 1

 SCF Done:  E(RB3LYP) =  -769.448745482     A.U. after    1 cycles

  Exact polarizability: 236.550  -7.508 224.601  16.311  -1.913 110.284
 Approx polarizability: 368.427  -5.353 378.010  42.919  -7.006 172.390

                      1                      2                      3
                      A                      A                      A
 Frequencies --     29.2122                48.6994                60.3282
 Red. masses --      3.0832                 3.8711                 3.1901
 Frc consts  --      0.0016                 0.0054                 0.0068
 IR Inten    --      0.1351                 0.7390                 0.4842

                      4                      5                      6
                      A                      A                      A
 Frequencies --     83.7332               100.8248               140.4177
 Red. masses --      3.1388                 3.6443                 4.1970
 Frc consts  --      0.0130                 0.0218                 0.0488
 IR Inten    --      3.6148                 0.5093                 1.3743

                      7                      8                      9
                      A                      A                      A
 Frequencies --    190.8649               212.0425               219.0678
 Red. masses --      1.2841                 1.7805                 3.1680
 Frc consts  --      0.0276                 0.0472                 0.0896
 IR Inten    --      0.1480                 0.2824                 0.2927

                     10                     11                     12
                      A                      A                      A
 Frequencies --    225.9177               256.8937               274.3888
 Red. masses --      1.1192                 1.2748                 3.3888
 Frc consts  --      0.0337                 0.0496                 0.1503
 IR Inten    --      0.3932                 0.7615                 9.9402

                     13                     14                     15
                      A                      A                      A
 Frequencies --    291.4086               316.7877               340.4873
 Red. masses --      2.1322                 3.0559                 3.2673
 Frc consts  --      0.1067                 0.1807                 0.2232
 IR Inten    --      0.8136                 8.0203                 3.1069

                     16                     17                     18
                      A                      A                      A
 Frequencies --    365.8624               387.6284               400.8780
 Red. masses --      2.6262                 2.4155                 2.5788
 Frc consts  --      0.2071                 0.2138                 0.2442
 IR Inten    --      8.6572                 4.1001                 3.1095

                     19                     20                     21
                      A                      A                      A
 Frequencies --    434.9219               443.7547               464.0871
 Red. masses --      2.3443                 2.8846                 2.7212
 Frc consts  --      0.2613                 0.3347                 0.3453
 IR Inten    --      6.2432                15.7030                18.6401

                     22                     23                     24
                      A                      A                      A
 Frequencies --    473.9984               482.1282               510.6207
 Red. masses --      3.9532                 3.0025                 3.5036
 Frc consts  --      0.5233                 0.4112                 0.5382
 IR Inten    --      0.0420                12.2372                 6.1908

                     25                     26                     27
                      A                      A                      A
 Frequencies --    529.9871               545.3577               565.8015
 Red. masses --      3.7757                 3.0567                 3.3680
 Frc consts  --      0.6249                 0.5356                 0.6353
 IR Inten    --      2.8206                12.3171                 7.6398

                     28                     29                     30
                      A                      A                      A
 Frequencies --    581.7051               616.6967               622.3162
 Red. masses --      3.8120                 3.5278                 2.0978
 Frc consts  --      0.7600                 0.7905                 0.4787
 IR Inten    --     12.7219                 8.1214               119.6007

                     31                     32                     33
                      A                      A                      A
 Frequencies --    682.1591               697.5165               706.0706
 Red. masses --      3.1926                 1.8807                 3.4669
 Frc consts  --      0.8753                 0.5391                 1.0183
 IR Inten    --     14.2700                 2.4751                33.2597

                     34                     35                     36
                      A                      A                      A
 Frequencies --    734.0277               767.6797               776.1097
 Red. masses --      2.3374                 1.5228                 1.9700
 Frc consts  --      0.7420                 0.5288                 0.6991
 IR Inten    --     11.8505                27.7572                 3.1559

                     37                     38                     39
                      A                      A                      A
 Frequencies --    807.8584               828.5737               844.8657
 Red. masses --      4.0472                 2.5331                 2.4127
 Frc consts  --      1.5563                 1.0246                 1.0147
 IR Inten    --      1.4942                34.4225                17.4454

                     40                     41                     42
                      A                      A                      A
 Frequencies --    851.1150               863.2550               865.9658
 Red. masses --      2.5888                 3.1237                 1.8681
 Frc consts  --      1.1049                 1.3715                 0.8254
 IR Inten    --      6.5179                10.9543                 1.8829

                     43                     44                     45
                      A                      A                      A
 Frequencies --    908.6922               920.9322               945.4312
 Red. masses --      1.3628                 2.0787                 1.8556
 Frc consts  --      0.6630                 1.0387                 0.9772
 IR Inten    --     51.1087                 1.2604                 7.0873

                     46                     47                     48
                      A                      A                      A
 Frequencies --    951.3998               958.4589               959.2988
 Red. masses --      1.2645                 1.6875                 1.2965
 Frc consts  --      0.6743                 0.9133                 0.7029
 IR Inten    --      0.4105                 2.5215                 0.5150

                     49                     50                     51
                      A                      A                      A
 Frequencies --    977.0768               996.8383              1003.8807
 Red. masses --      2.5655                 1.6827                 1.9900
 Frc consts  --      1.4430                 0.9852                 1.1816
 IR Inten    --      0.8644                 0.5202                 1.5837

                     52                     53                     54
                      A                      A                      A
 Frequencies --   1042.6260              1055.8087              1085.1682
 Red. masses --      1.3891                 1.5569                 1.5176
 Frc consts  --      0.8897                 1.0226                 1.0530
 IR Inten    --      2.9437                 5.3181                 2.1993

                     55                     56                     57
                      A                      A                      A
 Frequencies --   1095.9070              1102.3658              1168.4710
 Red. masses --      2.6869                 2.0563                 1.5412
 Frc consts  --      1.9013                 1.4723                 1.2398
 IR Inten    --     13.0773                 8.6277                 3.1487

                     58                     59                     60
                      A                      A                      A
 Frequencies --   1196.2959              1208.6049              1213.9487
 Red. masses --      1.3625                 2.0265                 1.3771
 Frc consts  --      1.1489                 1.7441                 1.1957
 IR Inten    --      2.0747                38.7951                 8.6962

                     61                     62                     63
                      A                      A                      A
 Frequencies --   1225.7066              1240.8025              1245.8043
 Red. masses --      2.6110                 1.8791                 3.0898
 Frc consts  --      2.3111                 1.7046                 2.8254
 IR Inten    --     12.0787                13.6979                36.2425

                     64                     65                     66
                      A                      A                      A
 Frequencies --   1269.6393              1290.7373              1313.5685
 Red. masses --      2.1015                 2.8993                 2.2268
 Frc consts  --      1.9959                 2.8459                 2.2638
 IR Inten    --      3.8871                 8.0172                 4.3434

                     67                     68                     69
                      A                      A                      A
 Frequencies --   1319.0082              1346.5514              1374.5707
 Red. masses --      1.8381                 1.4936                 3.1729
 Frc consts  --      1.8842                 1.5956                 3.5322
 IR Inten    --      9.6709                 1.9006                20.4271

                     70                     71                     72
                      A                      A                      A
 Frequencies --   1416.2934              1424.0583              1434.8887
 Red. masses --      4.6726                 1.2811                 3.1101
 Frc consts  --      5.5223                 1.5307                 3.7728
 IR Inten    --     40.4168                 7.6122                11.4902

                     73                     74                     75
                      A                      A                      A
 Frequencies --   1439.5494              1445.7232              1468.1284
 Red. masses --      1.2609                 1.6311                 1.4725
 Frc consts  --      1.5395                 2.0086                 1.8700
 IR Inten    --      7.3793                63.4010                16.4511

                     76                     77                     78
                      A                      A                      A
 Frequencies --   1471.9379              1474.2430              1494.6443
 Red. masses --      1.4499                 1.3026                 2.4970
 Frc consts  --      1.8508                 1.6680                 3.2866
 IR Inten    --      2.7684                 4.7241                64.1219

                     79                     80                     81
                      A                      A                      A
 Frequencies --   1505.9006              1512.8011              1514.3430
 Red. masses --      1.0771                 1.0876                 1.1950
 Frc consts  --      1.4392                 1.4666                 1.6145
 IR Inten    --      3.7103                 3.2864                 2.9884

                     82                     83                     84
                      A                      A                      A
 Frequencies --   1515.2590              1517.8997              1527.8045
 Red. masses --      1.1082                 1.5849                 1.0625
 Frc consts  --      1.4991                 2.1515                 1.4612
 IR Inten    --      7.0668                 2.2993                 7.2035

                     85                     86                     87
                      A                      A                      A
 Frequencies --   1531.0781              1540.1034              1568.0785
 Red. masses --      1.1538                 1.1040                 3.6208
 Frc consts  --      1.5936                 1.5428                 5.2456
 IR Inten    --      1.5389                 5.4915                 2.0756

                     88                     89                     90
                      A                      A                      A
 Frequencies --   1641.8241              1655.4400              1679.8526
 Red. masses --      8.1085                 5.5999                 6.4652
 Frc consts  --     12.8779                 9.0419                10.7492
 IR Inten    --    135.1012                22.7238                31.5070

                     91                     92                     93
                      A                      A                      A
 Frequencies --   1740.3075              3030.4957              3035.1658
 Red. masses --      5.0403                 1.0528                 1.0558
 Frc consts  --      8.9941                 5.6967                 5.7307
 IR Inten    --     14.3537                17.5143                46.5648

                     94                     95                     96
                      A                      A                      A
 Frequencies --   3056.1390              3061.9200              3086.1786
 Red. masses --      1.0358                 1.0374                 1.0948
 Frc consts  --      5.6999                 5.7303                 6.1436
 IR Inten    --     15.8792                20.1375                22.5269

                     97                     98                     99
                      A                      A                      A
 Frequencies --   3101.7303              3124.6593              3128.6834
 Red. masses --      1.0950                 1.1024                 1.1009
 Frc consts  --      6.2069                 6.3416                 6.3492
 IR Inten    --     19.0994                18.3838                26.3710

                    100                    101                    102
                      A                      A                      A
 Frequencies --   3132.6357              3143.9204              3151.0454
 Red. masses --      1.1001                 1.1025                 1.1030
 Frc consts  --      6.3605                 6.4207                 6.4528
 IR Inten    --     21.6810                15.0270                18.0332

                    103                    104                    105
                      A                      A                      A
 Frequencies --   3158.1406              3173.3028              3173.4237
 Red. masses --      1.0604                 1.0865                 1.0868
 Frc consts  --      6.2311                 6.4459                 6.4487
 IR Inten    --     13.3439                 6.6047                17.5647

                    106                    107                    108
                      A                      A                      A
 Frequencies --   3186.3238              3194.3538              3203.4357
 Red. masses --      1.0889                 1.0945                 1.0963
 Frc consts  --      6.5138                 6.5800                 6.6282
 IR Inten    --     10.1950                31.8192                41.0107

                    109                    110                    111
                      A                      A                      A
 Frequencies --   3237.1466              3496.2692              3544.8723
 Red. masses --      1.1154                 1.0740                 1.0751
 Frc consts  --      6.8864                 7.7352                 7.9597
 IR Inten    --     21.6694                 2.7576                 1.6021

 - Thermochemistry -
 -------------------
 Temperature   298.150 Kelvin.  Pressure   1.00000 Atm.
 Atom     1 has atomic number  6 and mass  12.00000

 Molecular mass:   252.16265 amu.
 Principal axes and moments of inertia in atomic units:
                           1         2         3
     Eigenvalues --  3342.973934992.334067434.45382
           X            0.99992   0.01279  -0.00227
           Y           -0.01279   0.99991  -0.00262
           Z            0.00224   0.00265   0.99999
 This molecule is an asymmetric top.
 Rotational symmetry number  1.
 Warning -- assumption of classical behavior for rotation
           may cause significant error
 Rotational temperatures (Kelvin)      0.02591     0.01735     0.01165
 Rotational constants (GHZ):           0.53986     0.36150     0.24275
 Zero-point vibrational energy     879252.9 (Joules/Mol)
                                  210.14649 (Kcal/Mol)
 Warning -- explicit consideration of  29 degrees of freedom as
           vibrations may cause significant error
 Vibrational temperatures:     42.03    70.07    86.80   120.47   145.06
          (Kelvin)            202.03   274.61   305.08   315.19   325.05
                              369.61   394.78   419.27   455.79   489.89
                              526.39   557.71   576.77   625.76   638.46
                              667.72   681.98   693.67   734.67   762.53
                              784.65   814.06   836.94   887.29   895.37
                              981.47  1003.57  1015.88  1056.10  1104.52
                             1116.65  1162.33  1192.13  1215.57  1224.56
                             1242.03  1245.93  1307.41  1325.02  1360.26
                             1368.85  1379.01  1380.22  1405.80  1434.23
                             1444.36  1500.11  1519.07  1561.32  1576.77
                             1586.06  1681.17  1721.20  1738.91  1746.60
                             1763.52  1785.24  1792.43  1826.73  1857.08
                             1889.93  1897.76  1937.39  1977.70  2037.73
                             2048.90  2064.48  2071.19  2080.07  2112.31
                             2117.79  2121.11  2150.46  2166.66  2176.58
                             2178.80  2180.12  2183.92  2198.17  2202.88
                             2215.87  2256.12  2362.22  2381.81  2416.93
                             2503.91  4360.21  4366.93  4397.10  4405.42
                             4440.32  4462.70  4495.69  4501.48  4507.16
                             4523.40  4533.65  4543.86  4565.67  4565.85
                             4584.41  4595.96  4609.03  4657.53  5030.35
                             5100.28

 Zero-point correction=                           0.334890 (Hartree/Particle)
 Thermal correction to Energy=                    0.352055
 Thermal correction to Enthalpy=                  0.353000
 Thermal correction to Gibbs Free Energy=         0.290508
 Sum of electronic and zero-point Energies=           -769.113856
 Sum of electronic and thermal Energies=              -769.096690
 Sum of electronic and thermal Enthalpies=            -769.095746
 Sum of electronic and thermal Free Energies=         -769.158237

                     E (Thermal)             CV                S
                      KCal/Mol        Cal/Mol-Kelvin    Cal/Mol-Kelvin
 Total                  220.918             69.633            131.524
 Electronic               0.000              0.000              0.000
 Translational            0.889              2.981             42.475
 Rotational               0.889              2.981             33.184
 Vibrational            219.141             63.672             55.865
 Vibration     1          0.593              1.984              5.882
 Vibration     2          0.595              1.978              4.870
 Vibration     3          0.597              1.973              4.446
 Vibration     4          0.601              1.960              3.801
 Vibration     5          0.604              1.948              3.438
 Vibration     6          0.615              1.913              2.798
 Vibration     7          0.634              1.852              2.219
 Vibration     8          0.643              1.823              2.026
 Vibration     9          0.647              1.812              1.967
 Vibration    10          0.650              1.802              1.911
 Vibration    11          0.666              1.751              1.683
 Vibration    12          0.677              1.721              1.568
 Vibration    13          0.687              1.690              1.466
 Vibration    14          0.704              1.642              1.327
 Vibration    15          0.720              1.595              1.210
 Vibration    16          0.739              1.542              1.097
 Vibration    17          0.756              1.497              1.009
 Vibration    18          0.767              1.468              0.959
 Vibration    19          0.796              1.394              0.843
 Vibration    20          0.803              1.375              0.815
 Vibration    21          0.822              1.330              0.754
 Vibration    22          0.831              1.308              0.726
 Vibration    23          0.838              1.290              0.704
 Vibration    24          0.866              1.226              0.632
 Vibration    25          0.885              1.184              0.587
 Vibration    26          0.901              1.150              0.554
 Vibration    27          0.922              1.105              0.512
 Vibration    28          0.938              1.071              0.482
 Vibration    29          0.976              0.997              0.422

                           ! Non-Optimized Parameters !
 Normal termination of Gaussian 16 at Mon Dec 14 17:49:05 2020.

 ----------------------------------------------------------------------
 # B3LYP/6-311++G(d,p) empiricaldispersion=gd3bj scf=xqc pop=npa geom=c
 heck
 ----------------------------------------------------------------------

 ---------------------------------------
 CID_144950321_JID_9713_Energie_neutraal
 ---------------------------------------
 Structure from the checkpoint file:  "JID_9713.chk"
 Charge =  0 Multiplicity = 1

 SCF Done:  E(RB3LYP) =  -769.650174932     A.U. after   15 cycles
 Normal termination of Gaussian 16 at Mon Dec 14 17:59:27 2020.

 ----------------------------------------------------------------------
 # B3LYP/6-311++G(d,p) empiricaldispersion=gd3bj scf=xqc pop=npa geom=c
 heck
 ----------------------------------------------------------------------

 -------------------------------------
 CID_144950321_JID_9713_Energie_kation
 -------------------------------------
 Structure from the checkpoint file:  "JID_9713.chk"
 Charge =  1 Multiplicity = 2

 SCF Done:  E(UB3LYP) =  -769.403459194     A.U. after   22 cycles
 Normal termination of Gaussian 16 at Mon Dec 14 18:21:00 2020.
 Gaussian 16:  ES64L-G16RevA.03 25-Dec-2016

 ----------------------------------------------------------------------
 # B3LYP/6-311++G(d,p) empiricaldispersion=gd3bj scf=xqc pop=npa geom=c
 heck
 ----------------------------------------------------------------------

 ------------------------------------
 CID_144950321_JID_9713_Energie_anion
 ------------------------------------
 Structure from the checkpoint file:  "JID_9713.chk"
 Charge = -1 Multiplicity = 2

                         Standard orientation:
 ---------------------------------------------------------------------
 Center     Atomic      Atomic             Coordinates (Angstroms)
 Number     Number       Type             X           Y           Z
 ---------------------------------------------------------------------
      1          6           0       -3.504193   -1.460437    1.255701
      2          6           0       -3.334581   -0.376179    0.224126
      3          6           0       -3.807866    0.859706    0.401153
      4          6           0       -2.579327   -0.766033   -1.035498
      5          6           0       -1.132765   -1.115051   -0.743586
      6          6           0       -0.181648   -0.121360   -0.557987
      7          6           0        1.154631   -0.450773   -0.200879
      8          6           0        1.533973   -1.814549   -0.015933
      9          6           0        2.876896   -2.118485    0.329580
     10          6           0        3.797535   -1.103719    0.470026
     11          6           0        3.433782    0.247052    0.283303
     12          6           0        2.132558    0.582969   -0.052743
     13          7           0        1.732991    1.895490   -0.300919
     14          6           0        0.311985    2.212012   -0.034344
     15          7           0       -0.537221    1.246575   -0.722400
     16          6           0       -0.004815    2.151745    1.469706
     17          6           0        0.020344    3.601485   -0.594555
     18          6           0        0.545755   -2.811225   -0.217115
     19          6           0       -0.737113   -2.464706   -0.578254
     20          1           0       -4.064721   -1.104563    2.125168
     21          1           0       -2.530468   -1.829453    1.600302
     22          1           0       -4.036021   -2.325433    0.835223
     23          1           0       -3.659637    1.636725   -0.342992
     24          1           0       -4.349888    1.138713    1.301645
     25          1           0       -3.065211   -1.640703   -1.489956
     26          1           0       -2.647239    0.048459   -1.762233
     27          1           0        3.164026   -3.156181    0.473440
     28          1           0        4.825444   -1.336893    0.734494
     29          1           0        4.177636    1.031456    0.401137
     30          1           0        2.375447    2.588566    0.069173
     31          1           0       -0.644580    1.486018   -1.705591
     32          1           0        0.609999    2.874382    2.018060
     33          1           0       -1.061537    2.375365    1.639255
     34          1           0        0.201081    1.154383    1.867327
     35          1           0        0.266775    3.642731   -1.661060
     36          1           0       -1.037034    3.845278   -0.458232
     37          1           0        0.617714    4.360008   -0.077424
     38          1           0        0.818647   -3.855430   -0.090088
     39          1           0       -1.481738   -3.242595   -0.730611
 ---------------------------------------------------------------------

 SCF Done:  E(UB3LYP) =  -769.640024552     A.U. after   33 cycles
 SCF Done:  E(UB3LYP) =  -769.640024552     a.u. after    1 cycles

 The electronic state is 2-A.
 Alpha  occ. eigenvalues --  -14.20573 -14.19921 -10.13590 -10.09402 -10.08690
 Alpha  occ. eigenvalues --  -10.08343 -10.07300 -10.07063 -10.06855 -10.06322
 Alpha  occ. eigenvalues --  -10.06257 -10.06207 -10.05909 -10.05871 -10.05605
 Alpha  occ. eigenvalues --  -10.05183 -10.05089 -10.04907 -10.04896  -0.85933
 Alpha  occ. eigenvalues --   -0.78487  -0.75529  -0.71985  -0.69341  -0.67735
 Alpha  occ. eigenvalues --   -0.64153  -0.61859  -0.60281  -0.59053  -0.58955
 Alpha  occ. eigenvalues --   -0.56916  -0.52043  -0.50194  -0.48664  -0.45061
 Alpha  occ. eigenvalues --   -0.43052  -0.42119  -0.40687  -0.39314  -0.38258
 Alpha  occ. eigenvalues --   -0.36398  -0.35665  -0.35053  -0.34670  -0.33785
 Alpha  occ. eigenvalues --   -0.32884  -0.31859  -0.31204  -0.30423  -0.28964
 Alpha  occ. eigenvalues --   -0.28424  -0.28044  -0.27663  -0.27561  -0.27251
 Alpha  occ. eigenvalues --   -0.26644  -0.25590  -0.25347  -0.24711  -0.23499
 Alpha  occ. eigenvalues --   -0.22512  -0.21568  -0.19983  -0.16687  -0.14783
 Alpha  occ. eigenvalues --   -0.13297  -0.11862  -0.07876   0.04504
 Alpha virt. eigenvalues --    0.06487   0.06642   0.07500   0.07739   0.08321
 Alpha virt. eigenvalues --    0.08650   0.09147   0.09710   0.09900   0.10294
 Alpha virt. eigenvalues --    0.10624   0.10969   0.11432   0.11982   0.12350

  Beta  occ. eigenvalues --  -14.20518 -14.19909 -10.13583 -10.09288 -10.08546
  Beta  occ. eigenvalues --  -10.08336 -10.07291 -10.07058 -10.06876 -10.06327
  Beta  occ. eigenvalues --  -10.06278 -10.06194 -10.05871 -10.05816 -10.05595
  Beta  occ. eigenvalues --  -10.05073 -10.05072 -10.04882 -10.04820  -0.85850
  Beta  occ. eigenvalues --   -0.78368  -0.75434  -0.71949  -0.69238  -0.67611
  Beta  occ. eigenvalues --   -0.64095  -0.61755  -0.60182  -0.59005  -0.58898
  Beta  occ. eigenvalues --   -0.56804  -0.51922  -0.50042  -0.48558  -0.44966
  Beta  occ. eigenvalues --   -0.43013  -0.42036  -0.40582  -0.39243  -0.38164
  Beta  occ. eigenvalues --   -0.36347  -0.35630  -0.35017  -0.34602  -0.33711
  Beta  occ. eigenvalues --   -0.32832  -0.31828  -0.31091  -0.30353  -0.28901
  Beta  occ. eigenvalues --   -0.28378  -0.27930  -0.27575  -0.27532  -0.27151
  Beta  occ. eigenvalues --   -0.26583  -0.25547  -0.25286  -0.24671  -0.23380
  Beta  occ. eigenvalues --   -0.22427  -0.21277  -0.19667  -0.16466  -0.14647
  Beta  occ. eigenvalues --   -0.13080  -0.11604  -0.07381
  Beta virt. eigenvalues --    0.06450   0.07308   0.07622   0.07749   0.07916
  Beta virt. eigenvalues --    0.08639   0.08907   0.09318   0.09913   0.10052
  Beta virt. eigenvalues --    0.10451   0.10813   0.11135   0.11574   0.12123

 Mulliken charges and spin densities:
               1          2
     1  C   -0.560625  -0.162526
     2  C   -0.351563   1.114058
     3  C    0.270116  -1.093659
     4  C    0.511535  -0.691012
     5  C    0.410501   0.126260
     6  C    0.356299  -0.218405
     7  C    0.274764  -0.098194
     8  C    0.711681  -0.129133
     9  C   -0.293377  -0.072968
    10  C   -0.162287  -0.221630
    11  C   -0.133735  -0.063889
    12  C    0.274650  -0.245638
    13  N    0.139584   0.053685
    14  C   -2.695234   1.550937
    15  N    0.127039   0.013196
    16  C    0.673832  -0.909235
    17  C    0.846146  -1.343459
    18  C   -0.626407   0.169876
    19  C   -0.503306  -0.065175
    20  H    0.034312   0.095573
    21  H    0.169472   0.005987
    22  H    0.075109   0.069623
    23  H    0.064615   0.077631
    24  H   -0.006000   0.107124
    25  H    0.063672   0.099543
    26  H   -0.130687   0.284508
    27  H    0.080511   0.007814
    28  H    0.118155   0.019589
    29  H   -0.273107   0.380941
    30  H    0.050666   0.213274
    31  H    0.102765   0.175083
    32  H   -0.321471   0.480924
    33  H    0.097464   0.068986
    34  H    0.098059   0.018265
    35  H   -0.229644   0.390123
    36  H   -0.000734   0.149933
    37  H   -0.379621   0.533213
    38  H    0.038452   0.074160
    39  H    0.078398   0.034617
 Sum of Mulliken charges =  -1.00000   1.00000

 Dipole moment (field-independent basis, Debye):
    X=             -1.8964    Y=             -4.8796    Z=             -0.1156  Tot=              5.2364
 Quadrupole moment (field-independent basis, Debye-Ang):
   XX=           -164.8649   YY=           -168.4179   ZZ=           -144.3773
   XY=             -4.4181   XZ=             -2.7219   YZ=             -3.2846

 Summary of Natural Population Analysis:

                                       Natural Population
                Natural  -----------------------------------------------
    Atom  No    Charge         Core      Valence    Rydberg      Total
 -----------------------------------------------------------------------
      C    1   -0.30085      0.99961     2.29632    0.00491     3.30085
      C    2    0.00873      0.99953     1.98294    0.00881     2.99127
      C    3   -0.19799      0.99947     2.19059    0.00793     3.19799
      C    4   -0.20694      0.99956     2.19635    0.01103     3.20694
      C    5   -0.03500      0.99945     2.02479    0.01075     3.03500
      C    6    0.11843      0.99940     1.87096    0.01121     2.88157
      C    7   -0.05424      0.99943     2.04748    0.00732     3.05424
      C    8   -0.02201      0.99950     2.01446    0.00805     3.02201
      C    9   -0.10691      0.99953     2.09827    0.00910     3.10691
      C   10   -0.09256      0.99957     2.08360    0.00939     3.09256
      C   11   -0.13698      0.99953     2.12765    0.00981     3.13698
      C   12    0.12173      0.99947     1.86758    0.01122     2.87827
      N   13   -0.32109      0.99966     2.81033    0.01110     3.82109
      C   14    0.15859      0.99960     1.82656    0.01524     2.84141
      N   15   -0.33877      0.99967     2.82750    0.01160     3.83877
      C   16   -0.29373      0.99960     2.28743    0.00670     3.29373
      C   17   -0.28668      0.99961     2.27962    0.00746     3.28668
      C   18   -0.08325      0.99954     2.07535    0.00836     3.08325
      C   19   -0.08788      0.99953     2.08026    0.00809     3.08788
      H   20    0.09911      0.00000     0.39988    0.00101     0.40089
      H   21    0.10999      0.00000     0.38876    0.00125     0.39001
      H   22    0.09728      0.00000     0.40149    0.00123     0.40272
      H   23    0.09594      0.00000     0.40275    0.00131     0.40406
      H   24    0.08888      0.00000     0.40997    0.00114     0.41112
      H   25    0.09992      0.00000     0.39883    0.00125     0.40008
      H   26    0.10564      0.00000     0.39292    0.00144     0.39436
      H   27    0.09258      0.00000     0.40606    0.00137     0.40742
      H   28    0.09445      0.00000     0.40482    0.00074     0.40555
      H   29    0.09697      0.00000     0.40167    0.00136     0.40303
      H   30    0.18613      0.00000     0.31043    0.00344     0.31387
      H   31    0.18515      0.00000     0.31232    0.00254     0.31485
      H   32    0.09912      0.00000     0.39973    0.00115     0.40088
      H   33    0.10467      0.00000     0.39422    0.00111     0.39533
      H   34    0.10604      0.00000     0.39291    0.00104     0.39396
      H   35    0.10268      0.00000     0.39599    0.00132     0.39732
      H   36    0.10410      0.00000     0.39461    0.00129     0.39590
      H   37    0.10410      0.00000     0.39424    0.00165     0.39590
      H   38    0.09213      0.00000     0.40643    0.00143     0.40787
      H   39    0.09250      0.00000     0.40607    0.00143     0.40750
 =======================================================================
   * Total *    0.00000     18.99126    48.80215    0.20659    68.00000

 Normal termination of Gaussian 16 at Mon Dec 14 18:53:17 2020.
