 Gaussian 16, Revision A.03,

 -----------------------------------------------------------
 # opt freq B3LYP/6-31G(d) empiricaldispersion=gd3bj scf=xqc
 -----------------------------------------------------------

 -------------------------------
 CID_117455512_JID_9622_neutraal
 -------------------------------
 Symbolic Z-matrix:
 Charge =  0 Multiplicity = 1

 SCF Done:  E(RB3LYP) =  -1259.43627170     A.U. after   15 cycles
 SCF Done:  E(RB3LYP) =  -1259.44217702     A.U. after   12 cycles
 SCF Done:  E(RB3LYP) =  -1259.44276423     A.U. after   11 cycles
 SCF Done:  E(RB3LYP) =  -1259.44271620     A.U. after   12 cycles
 SCF Done:  E(RB3LYP) =  -1259.44286888     A.U. after   11 cycles
 SCF Done:  E(RB3LYP) =  -1259.44291594     A.U. after   10 cycles
 SCF Done:  E(RB3LYP) =  -1259.44295000     A.U. after   10 cycles
 SCF Done:  E(RB3LYP) =  -1259.44296255     A.U. after   10 cycles
 SCF Done:  E(RB3LYP) =  -1259.44297487     A.U. after   10 cycles
 SCF Done:  E(RB3LYP) =  -1259.44298846     A.U. after   10 cycles
 SCF Done:  E(RB3LYP) =  -1259.44299207     A.U. after    9 cycles
 SCF Done:  E(RB3LYP) =  -1259.44299258     A.U. after    8 cycles
 SCF Done:  E(RB3LYP) =  -1259.44299290     A.U. after    8 cycles
 SCF Done:  E(RB3LYP) =  -1259.44299293     A.U. after    7 cycles
 Optimization completed.
    -- Stationary point found.
 Normal termination of Gaussian 16 at Sun Dec 13 16:16:43 2020.

 --------------------------------------------------------------------
 #N Geom=AllCheck Guess=TCheck SCRF=Check GenChk RB3LYP/6-31G(d) Freq
 --------------------------------------------------------------------

 Structure from the checkpoint file:  "JID_9622.chk"
 -------------------------------
 CID_117455512_JID_9622_neutraal
 -------------------------------
 Charge =  0 Multiplicity = 1

 SCF Done:  E(RB3LYP) =  -1259.44299293     A.U. after    1 cycles

  Exact polarizability: 223.070  -3.548 176.232  -4.340  -2.868 114.161
 Approx polarizability: 313.968  -0.147 280.224   0.840  -7.761 176.097

                      1                      2                      3
                      A                      A                      A
 Frequencies --     25.6284                33.6975                62.4814
 Red. masses --      2.8948                 4.1783                 4.2258
 Frc consts  --      0.0011                 0.0028                 0.0097
 IR Inten    --      0.3076                 1.8765                 3.5021

                      4                      5                      6
                      A                      A                      A
 Frequencies --     63.7024                85.8871               128.4626
 Red. masses --      4.8571                 3.7602                 3.8583
 Frc consts  --      0.0116                 0.0163                 0.0375
 IR Inten    --      0.8747                 2.3413                 6.5216

                      7                      8                      9
                      A                      A                      A
 Frequencies --    143.8101               168.6288               181.5266
 Red. masses --      5.0708                 3.2763                 3.7197
 Frc consts  --      0.0618                 0.0549                 0.0722
 IR Inten    --      0.7128                 0.2764                 3.5252

                     10                     11                     12
                      A                      A                      A
 Frequencies --    204.6455               232.2456               261.4407
 Red. masses --      1.1347                 4.4660                 4.6451
 Frc consts  --      0.0280                 0.1419                 0.1871
 IR Inten    --      0.5061                 0.7194                 3.3632

                     13                     14                     15
                      A                      A                      A
 Frequencies --    271.0449               295.4303               299.1461
 Red. masses --      5.3318                 2.2221                 4.8048
 Frc consts  --      0.2308                 0.1143                 0.2533
 IR Inten    --      2.7482                 3.4346                 0.4133

                     16                     17                     18
                      A                      A                      A
 Frequencies --    317.2841               347.6410               354.4930
 Red. masses --      3.5860                 2.8113                 4.1475
 Frc consts  --      0.2127                 0.2002                 0.3071
 IR Inten    --      1.5247                 4.1580                 3.1827

                     19                     20                     21
                      A                      A                      A
 Frequencies --    427.1879               462.1834               466.9472
 Red. masses --      6.6876                 4.3716                 3.8168
 Frc consts  --      0.7190                 0.5502                 0.4903
 IR Inten    --     12.2923                 3.5841                 1.2175

                     22                     23                     24
                      A                      A                      A
 Frequencies --    505.1394               510.3852               516.8891
 Red. masses --      5.3260                 6.0682                 6.7811
 Frc consts  --      0.8007                 0.9313                 1.0674
 IR Inten    --     37.3798                21.5905                25.9815

                     25                     26                     27
                      A                      A                      A
 Frequencies --    555.1148               562.1425               633.0152
 Red. masses --      3.0001                 4.1446                 3.4331
 Frc consts  --      0.5447                 0.7717                 0.8105
 IR Inten    --     16.9269                15.6532                 5.9409

                     28                     29                     30
                      A                      A                      A
 Frequencies --    651.8034               677.1575               701.3985
 Red. masses --      2.5748                 8.1177                 3.6499
 Frc consts  --      0.6445                 2.1931                 1.0579
 IR Inten    --      0.9417                 6.1866                 4.4559

                     31                     32                     33
                      A                      A                      A
 Frequencies --    713.8671               752.0774               761.5515
 Red. masses --      4.1750                 5.9726                 3.8162
 Frc consts  --      1.2536                 1.9904                 1.3040
 IR Inten    --      1.5561                79.3803                 8.5804

                     34                     35                     36
                      A                      A                      A
 Frequencies --    797.7587               848.2137               864.8491
 Red. masses --      3.2720                 1.9443                 1.6434
 Frc consts  --      1.2269                 0.8242                 0.7242
 IR Inten    --      6.0587                52.5293               139.1349

                     37                     38                     39
                      A                      A                      A
 Frequencies --    883.9824               897.0061               913.7904
 Red. masses --      1.4023                 3.2545                 2.5551
 Frc consts  --      0.6456                 1.5429                 1.2570
 IR Inten    --      5.5933                24.4040                31.0808

                     40                     41                     42
                      A                      A                      A
 Frequencies --    917.9568               939.7800               947.3907
 Red. masses --      1.3672                 2.5960                 2.5908
 Frc consts  --      0.6788                 1.3509                 1.3701
 IR Inten    --     18.3837                14.5485                 3.7951

                     43                     44                     45
                      A                      A                      A
 Frequencies --    957.8935               988.1172               991.9576
 Red. masses --      2.6200                 1.3969                 1.3943
 Frc consts  --      1.4164                 0.8036                 0.8083
 IR Inten    --     21.6791                18.6947                27.1944

                     46                     47                     48
                      A                      A                      A
 Frequencies --   1015.3569              1037.0811              1059.4540
 Red. masses --      2.8341                 1.6548                 3.4110
 Frc consts  --      1.7215                 1.0486                 2.2558
 IR Inten    --     25.7207                11.5193                23.7317

                     49                     50                     51
                      A                      A                      A
 Frequencies --   1063.7374              1088.3868              1100.1420
 Red. masses --      1.4645                 4.1736                 3.3553
 Frc consts  --      0.9764                 2.9129                 2.3927
 IR Inten    --      3.1019                24.9019                90.7651

                     52                     53                     54
                      A                      A                      A
 Frequencies --   1114.5761              1124.5928              1137.7616
 Red. masses --      4.3698                 7.4145                 1.9732
 Frc consts  --      3.1984                 5.5249                 1.5049
 IR Inten    --     22.1443               218.2367                 3.5241

                     55                     56                     57
                      A                      A                      A
 Frequencies --   1186.2750              1196.1064              1220.1890
 Red. masses --      1.8114                 1.7006                 3.0717
 Frc consts  --      1.5019                 1.4335                 2.6945
 IR Inten    --      3.9480                 2.8070                19.8852

                     58                     59                     60
                      A                      A                      A
 Frequencies --   1242.1744              1264.8897              1286.1532
 Red. masses --      1.2922                 1.2219                 1.3620
 Frc consts  --      1.1748                 1.1518                 1.3274
 IR Inten    --     19.3035                11.5866                42.2475

                     61                     62                     63
                      A                      A                      A
 Frequencies --   1296.2126              1301.7188              1307.0793
 Red. masses --      2.3825                 1.5065                 1.8276
 Frc consts  --      2.3585                 1.5040                 1.8396
 IR Inten    --     73.6834                35.3459                43.4879

                     64                     65                     66
                      A                      A                      A
 Frequencies --   1309.5195              1329.0174              1349.0159
 Red. masses --      1.4828                 2.4442                 1.4519
 Frc consts  --      1.4982                 2.5436                 1.5568
 IR Inten    --     24.4385               127.2506               119.9240

                     67                     68                     69
                      A                      A                      A
 Frequencies --   1351.4293              1356.2029              1373.3212
 Red. masses --      1.6046                 1.7022                 1.2174
 Frc consts  --      1.7266                 1.8447                 1.3528
 IR Inten    --    132.0546                58.5171                15.1798

                     70                     71                     72
                      A                      A                      A
 Frequencies --   1381.0342              1403.9438              1422.1012
 Red. masses --      1.3787                 1.6913                 1.7261
 Frc consts  --      1.5493                 1.9641                 2.0567
 IR Inten    --      7.1005                 0.3395                 4.7333

                     73                     74                     75
                      A                      A                      A
 Frequencies --   1428.7348              1460.6304              1482.5051
 Red. masses --      1.4366                 2.8341                 1.0676
 Frc consts  --      1.7278                 3.5624                 1.3824
 IR Inten    --     15.6170                13.2450                 4.5226

                     76                     77                     78
                      A                      A                      A
 Frequencies --   1484.5526              1485.9654              1520.5460
 Red. masses --      1.1496                 1.0585                 1.1610
 Frc consts  --      1.4928                 1.3771                 1.5816
 IR Inten    --      7.3567                 1.2895                25.5476

                     79                     80                     81
                      A                      A                      A
 Frequencies --   1522.1736              1526.5542              1529.1276
 Red. masses --      1.1430                 1.1305                 1.0934
 Frc consts  --      1.5603                 1.5522                 1.5063
 IR Inten    --     18.4042                 8.0742                 6.4054

                     82                     83                     84
                      A                      A                      A
 Frequencies --   1539.2553              1547.2791              1618.8632
 Red. masses --      1.2447                 2.0635                 8.0675
 Frc consts  --      1.7376                 2.9107                12.4568
 IR Inten    --     33.8711               162.2611               104.7553

                     85                     86                     87
                      A                      A                      A
 Frequencies --   1668.7622              3044.2189              3044.4134
 Red. masses --      6.9060                 1.0694                 1.0697
 Frc consts  --     11.3309                 5.8391                 5.8416
 IR Inten    --      7.6371                38.8125                42.9447

                     88                     89                     90
                      A                      A                      A
 Frequencies --   3052.1474              3055.5850              3065.2237
 Red. masses --      1.0690                 1.0647                 1.0663
 Frc consts  --      5.8670                 5.8571                 5.9029
 IR Inten    --     34.4525                48.7151                23.8100

                     91                     92                     93
                      A                      A                      A
 Frequencies --   3084.4722              3109.9263              3120.7068
 Red. masses --      1.0292                 1.0948                 1.1021
 Frc consts  --      5.7689                 6.2387                 6.3236
 IR Inten    --      0.5456                18.3174                42.5689

                     94                     95                     96
                      A                      A                      A
 Frequencies --   3138.5641              3139.8021              3141.0949
 Red. masses --      1.0991                 1.1004                 1.0956
 Frc consts  --      6.3787                 6.3916                 6.3688
 IR Inten    --     34.5385                26.0937                 6.4818

                     97                     98                     99
                      A                      A                      A
 Frequencies --   3156.5239              3184.8442              3192.6436
 Red. masses --      1.0880                 1.1062                 1.1076
 Frc consts  --      6.3869                 6.6107                 6.6515
 IR Inten    --     19.1088                 0.9384                 1.9122

                    100                    101                    102
                      A                      A                      A
 Frequencies --   3210.1653              3239.2112              3467.6540
 Red. masses --      1.0897                 1.0905                 1.0743
 Frc consts  --      6.6160                 6.7416                 7.6109
 IR Inten    --      3.8384                 7.8341                 1.0710

 - Thermochemistry -
 -------------------
 Temperature   298.150 Kelvin.  Pressure   1.00000 Atm.
 Atom     1 has atomic number  6 and mass  12.00000

 Molecular mass:   283.08783 amu.
 Principal axes and moments of inertia in atomic units:
                           1         2         3
     Eigenvalues --  4181.550096564.510699795.86744
           X            0.99972   0.02201  -0.00907
           Y           -0.02194   0.99973   0.00749
           Z            0.00923  -0.00729   0.99993
 This molecule is an asymmetric top.
 Rotational symmetry number  1.
 Warning -- assumption of classical behavior for rotation
           may cause significant error
 Rotational temperatures (Kelvin)      0.02071     0.01319     0.00884
 Rotational constants (GHZ):           0.43160     0.27492     0.18423
 Zero-point vibrational energy     776988.7 (Joules/Mol)
                                  185.70476 (Kcal/Mol)
 Warning -- explicit consideration of  26 degrees of freedom as
           vibrations may cause significant error
 Vibrational temperatures:     36.87    48.48    89.90    91.65   123.57
          (Kelvin)            184.83   206.91   242.62   261.18   294.44
                              334.15   376.15   389.97   425.06   430.40
                              456.50   500.18   510.04   614.63   664.98
                              671.83   726.78   734.33   743.69   798.69
                              808.80   910.77   937.80   974.28  1009.16
                             1027.10  1082.07  1095.70  1147.80  1220.39
                             1244.33  1271.85  1290.59  1314.74  1320.74
                             1352.13  1363.08  1378.20  1421.68  1427.21
                             1460.87  1492.13  1524.32  1530.48  1565.95
                             1582.86  1603.63  1618.04  1636.99  1706.79
                             1720.93  1755.58  1787.21  1819.89  1850.49
                             1864.96  1872.88  1880.60  1884.11  1912.16
                             1940.93  1944.41  1951.27  1975.90  1987.00
                             2019.96  2046.09  2055.63  2101.52  2132.99
                             2135.94  2137.97  2187.73  2190.07  2196.37
                             2200.07  2214.65  2226.19  2329.18  2400.98
                             4379.95  4380.23  4391.36  4396.31  4410.17
                             4437.87  4474.49  4490.00  4515.69  4517.47
                             4519.33  4541.53  4582.28  4593.50  4618.71
                             4660.50  4989.18

 Zero-point correction=                           0.295939 (Hartree/Particle)
 Thermal correction to Energy=                    0.313144
 Thermal correction to Enthalpy=                  0.314088
 Thermal correction to Gibbs Free Energy=         0.249682
 Sum of electronic and zero-point Energies=          -1259.147054
 Sum of electronic and thermal Energies=             -1259.129849
 Sum of electronic and thermal Enthalpies=           -1259.128905
 Sum of electronic and thermal Free Energies=        -1259.193311

                     E (Thermal)             CV                S
                      KCal/Mol        Cal/Mol-Kelvin    Cal/Mol-Kelvin
 Total                  196.501             66.557            135.555
 Electronic               0.000              0.000              0.000
 Translational            0.889              2.981             42.820
 Rotational               0.889              2.981             33.952
 Vibrational            194.723             60.595             58.783
 Vibration     1          0.593              1.985              6.142
 Vibration     2          0.594              1.983              5.599
 Vibration     3          0.597              1.972              4.377
 Vibration     4          0.597              1.972              4.339
 Vibration     5          0.601              1.959              3.752
 Vibration     6          0.611              1.925              2.969
 Vibration     7          0.616              1.909              2.753
 Vibration     8          0.625              1.881              2.451
 Vibration     9          0.630              1.865              2.313
 Vibration    10          0.640              1.833              2.091
 Vibration    11          0.653              1.792              1.862
 Vibration    12          0.669              1.743              1.652
 Vibration    13          0.675              1.727              1.590
 Vibration    14          0.690              1.682              1.443
 Vibration    15          0.692              1.675              1.422
 Vibration    16          0.704              1.641              1.324
 Vibration    17          0.725              1.580              1.177
 Vibration    18          0.730              1.566              1.146
 Vibration    19          0.789              1.411              0.868
 Vibration    20          0.820              1.334              0.760
 Vibration    21          0.824              1.323              0.746
 Vibration    22          0.860              1.239              0.645
 Vibration    23          0.866              1.227              0.633
 Vibration    24          0.872              1.213              0.617
 Vibration    25          0.911              1.129              0.534
 Vibration    26          0.918              1.113              0.520

 Optimization completed.
    -- Stationary point found.
 Normal termination of Gaussian 16 at Sun Dec 13 16:36:49 2020.

 ----------------------------------------------------------------------
 # B3LYP/6-311++G(d,p) empiricaldispersion=gd3bj scf=xqc pop=npa geom=c
 heck
 ----------------------------------------------------------------------

 ---------------------------------------
 CID_117455512_JID_9622_Energie_neutraal
 ---------------------------------------
 Structure from the checkpoint file:  "JID_9622.chk"
 Charge =  0 Multiplicity = 1

 SCF Done:  E(RB3LYP) =  -1259.70820415     A.U. after   16 cycles
 Normal termination of Gaussian 16 at Sun Dec 13 16:46:31 2020.

 ----------------------------------------------------------------------
 # B3LYP/6-311++G(d,p) empiricaldispersion=gd3bj scf=xqc pop=npa geom=c
 heck
 ----------------------------------------------------------------------

 -------------------------------------
 CID_117455512_JID_9622_Energie_kation
 -------------------------------------
 Structure from the checkpoint file:  "JID_9622.chk"
 Charge =  1 Multiplicity = 2

 SCF Done:  E(UB3LYP) =  -1259.41997176     A.U. after   25 cycles
 Normal termination of Gaussian 16 at Sun Dec 13 17:07:47 2020.
 Gaussian 16:  ES64L-G16RevA.03 25-Dec-2016

 ----------------------------------------------------------------------
 # B3LYP/6-311++G(d,p) empiricaldispersion=gd3bj scf=xqc pop=npa geom=c
 heck
 ----------------------------------------------------------------------

 ------------------------------------
 CID_117455512_JID_9622_Energie_anion
 ------------------------------------
 Structure from the checkpoint file:  "JID_9622.chk"
 Charge = -1 Multiplicity = 2

                         Standard orientation:
 ---------------------------------------------------------------------
 Center     Atomic      Atomic             Coordinates (Angstroms)
 Number     Number       Type             X           Y           Z
 ---------------------------------------------------------------------
      1          6           0       -1.910373    2.383207    1.599038
      2         16           0       -1.282319    2.280643   -0.093809
      3          8           0       -2.399327    1.876140   -0.966465
      4          8           0       -0.561931    3.535777   -0.360511
      5          6           0       -0.067075    0.956535   -0.011117
      6          6           0        1.264583    1.369561   -0.094942
      7          6           0        2.288057    0.433491   -0.052296
      8          6           0        1.964983   -0.927703    0.088456
      9          6           0        0.631428   -1.321529    0.157032
     10          6           0       -0.421899   -0.401764    0.112704
     11          6           0       -1.843701   -0.915682    0.121214
     12          6           0       -2.172096   -2.013959    1.177006
     13          6           0       -2.828810   -3.156565    0.351464
     14          7           0       -3.269729   -2.577943   -0.925309
     15          6           0       -2.237404   -1.589269   -1.233384
     16          8           0        2.927103   -1.896355    0.150865
     17          6           0        4.248531   -1.396175    0.374880
     18          6           0        4.501477   -0.174988   -0.491884
     19          8           0        3.586390    0.865030   -0.146719
     20          1           0       -2.670583    3.167977    1.601154
     21          1           0       -1.082687    2.649948    2.258322
     22          1           0       -2.347723    1.426532    1.888818
     23          1           0        1.502719    2.420259   -0.211216
     24          1           0        0.430133   -2.384067    0.247989
     25          1           0       -2.533541   -0.085289    0.255799
     26          1           0       -2.869460   -1.618431    1.923600
     27          1           0       -1.287074   -2.356131    1.720694
     28          1           0       -2.083157   -3.931729    0.132200
     29          1           0       -3.663633   -3.641979    0.864932
     30          1           0       -4.151224   -2.087215   -0.774002
     31          1           0       -2.580901   -0.855573   -1.965860
     32          1           0       -1.366591   -2.109997   -1.651810
     33          1           0        4.930110   -2.213038    0.126988
     34          1           0        4.366687   -1.134786    1.434608
     35          1           0        5.503083    0.228736   -0.328041
     36          1           0        4.384971   -0.435607   -1.552457
 ---------------------------------------------------------------------

 SCF Done:  E(UB3LYP) =  -1259.70282479     A.U. after   33 cycles
 SCF Done:  E(UB3LYP) =  -1259.70282479     a.u. after    1 cycles

 The electronic state is 2-A.
 Alpha  occ. eigenvalues --  -88.94663 -19.06112 -19.06067 -19.01246 -19.01209
 Alpha  occ. eigenvalues --  -14.20936 -10.13748 -10.13685 -10.13535 -10.13069
 Alpha  occ. eigenvalues --  -10.11662 -10.10395 -10.09609 -10.09492 -10.09438
 Alpha  occ. eigenvalues --  -10.08429 -10.07738 -10.07721 -10.07568  -8.01036
 Alpha  occ. eigenvalues --   -5.97321  -5.97212  -5.97135  -1.00552  -0.99627
 Alpha  occ. eigenvalues --   -0.96055  -0.90229  -0.83210  -0.77194  -0.70564
 Alpha  occ. eigenvalues --   -0.69047  -0.67186  -0.65281  -0.63738  -0.61806
 Alpha  occ. eigenvalues --   -0.57953  -0.54335  -0.52732  -0.51430  -0.48768
 Alpha  occ. eigenvalues --   -0.46643  -0.44531  -0.43322  -0.42696  -0.41475
 Alpha  occ. eigenvalues --   -0.39699  -0.38775  -0.37794  -0.36870  -0.35355
 Alpha  occ. eigenvalues --   -0.35123  -0.34927  -0.34423  -0.34329  -0.34025
 Alpha  occ. eigenvalues --   -0.32923  -0.31960  -0.30576  -0.30421  -0.29719
 Alpha  occ. eigenvalues --   -0.28485  -0.26796  -0.26523  -0.25323  -0.24401
 Alpha  occ. eigenvalues --   -0.24334  -0.22864  -0.22552  -0.22096  -0.21352
 Alpha  occ. eigenvalues --   -0.20214  -0.19266  -0.15501  -0.14500  -0.12324
 Alpha  occ. eigenvalues --    0.03938
 Alpha virt. eigenvalues --    0.05163   0.06126   0.07079   0.08065   0.08242
 Alpha virt. eigenvalues --    0.08573   0.08695   0.08931   0.09501   0.10095
 Alpha virt. eigenvalues --    0.10980   0.11545   0.11688   0.11774   0.12669

  Beta  occ. eigenvalues --  -88.94658 -19.06091 -19.06078 -19.01234 -19.01186
  Beta  occ. eigenvalues --  -14.20925 -10.13713 -10.13642 -10.13579 -10.12849
  Beta  occ. eigenvalues --  -10.11651 -10.10384 -10.09606 -10.09421 -10.09340
  Beta  occ. eigenvalues --  -10.08429 -10.07716 -10.07612 -10.07579  -8.01029
  Beta  occ. eigenvalues --   -5.97318  -5.97192  -5.97132  -1.00478  -0.99576
  Beta  occ. eigenvalues --   -0.96015  -0.90175  -0.83183  -0.77015  -0.70440
  Beta  occ. eigenvalues --   -0.68926  -0.67079  -0.65172  -0.63684  -0.61701
  Beta  occ. eigenvalues --   -0.57798  -0.54172  -0.52676  -0.51384  -0.48681
  Beta  occ. eigenvalues --   -0.46540  -0.44476  -0.43253  -0.42617  -0.41426
  Beta  occ. eigenvalues --   -0.39628  -0.38646  -0.37756  -0.36788  -0.35280
  Beta  occ. eigenvalues --   -0.35038  -0.34853  -0.34359  -0.34256  -0.33982
  Beta  occ. eigenvalues --   -0.32837  -0.31871  -0.30538  -0.30336  -0.29528
  Beta  occ. eigenvalues --   -0.28436  -0.26736  -0.26455  -0.25277  -0.24360
  Beta  occ. eigenvalues --   -0.24175  -0.22764  -0.22432  -0.21942  -0.21274
  Beta  occ. eigenvalues --   -0.20154  -0.19193  -0.15308  -0.14103  -0.11876
  Beta virt. eigenvalues --    0.05841   0.06813   0.07128   0.07627   0.08233
  Beta virt. eigenvalues --    0.08413   0.08864   0.09099   0.09446   0.09674
  Beta virt. eigenvalues --    0.10380   0.10974   0.11552   0.11736   0.11774

 Mulliken charges and spin densities:
               1          2
     1  C   -0.527349  -0.055683
     2  S    0.271369  -0.076042
     3  O   -0.112797  -0.004230
     4  O   -0.132477  -0.005556
     5  C    0.015778   0.259395
     6  C   -0.463387   0.158977
     7  C   -0.218143   0.028406
     8  C    0.268758   0.212866
     9  C    0.063026  -0.787106
    10  C    0.294448   0.451681
    11  C   -0.014057  -0.424945
    12  C   -0.223420  -0.066457
    13  C   -0.061410  -0.471595
    14  N   -0.055686   0.035989
    15  C   -0.726639  -0.131737
    16  O   -0.170184   0.050753
    17  C    0.232809  -0.473871
    18  C    0.440446  -0.705214
    19  O   -0.188260   0.057168
    20  H    0.195218   0.002937
    21  H    0.170698   0.024552
    22  H    0.123048   0.101320
    23  H    0.266759  -0.007689
    24  H    0.215354   0.009167
    25  H    0.211421  -0.014338
    26  H   -0.245865   0.395754
    27  H    0.098625   0.061942
    28  H    0.161796  -0.019531
    29  H   -0.186034   0.370939
    30  H    0.125257   0.097425
    31  H    0.173925   0.033037
    32  H    0.170695  -0.002419
    33  H   -0.771589   0.966492
    34  H    0.158689   0.005122
    35  H   -0.707038   0.902387
    36  H    0.146214   0.020102
 Sum of Mulliken charges =  -1.00000   1.00000

 Dipole moment (field-independent basis, Debye):
    X=             -4.8323    Y=              0.9602    Z=              2.9665  Tot=              5.7509
 Quadrupole moment (field-independent basis, Debye-Ang):
   XX=           -223.1750   YY=           -170.9030   ZZ=           -141.3669
   XY=              2.3456   XZ=             -2.3721   YZ=              6.2223

 Summary of Natural Population Analysis:

                                       Natural Population
                Natural  -----------------------------------------------
    Atom  No    Charge         Core      Valence    Rydberg      Total
 -----------------------------------------------------------------------
      C    1   -0.38977      0.99961     2.38297    0.00718     3.38977
      S    2    1.03617      4.99920     1.86887    0.09576     6.96383
      O    3   -0.47251      0.99991     3.46627    0.00633     4.47251
      O    4   -0.47308      0.99991     3.46769    0.00548     4.47308
      C    5   -0.12999      0.99934     2.11556    0.01509     3.12999
      C    6   -0.08814      0.99948     2.07789    0.01077     3.08814
      C    7    0.11462      0.99933     1.87247    0.01358     2.88538
      C    8    0.17264      0.99935     1.81505    0.01297     2.82736
      C    9   -0.12153      0.99946     2.11305    0.00902     3.12153
      C   10   -0.00116      0.99943     1.99106    0.01067     3.00116
      C   11   -0.13725      0.99956     2.12544    0.01224     3.13725
      C   12   -0.19840      0.99963     2.19029    0.00848     3.19840
      C   13   -0.09325      0.99965     2.08224    0.01136     3.09325
      N   14   -0.33367      0.99976     2.82211    0.01180     3.83367
      C   15   -0.08326      0.99962     2.07191    0.01173     3.08326
      O   16   -0.27062      0.99987     3.26198    0.00877     4.27062
      C   17   -0.02330      0.99957     2.01106    0.01267     3.02330
      C   18   -0.02519      0.99958     2.01265    0.01297     3.02519
      O   19   -0.27540      0.99987     3.26669    0.00884     4.27540
      H   20    0.11276      0.00000     0.38592    0.00132     0.38724
      H   21    0.11329      0.00000     0.38575    0.00096     0.38671
      H   22    0.11238      0.00000     0.38644    0.00118     0.38762
      H   23    0.12091      0.00000     0.37814    0.00095     0.37909
      H   24    0.10482      0.00000     0.39389    0.00129     0.39518
      H   25    0.10822      0.00000     0.38900    0.00278     0.39178
      H   26    0.09816      0.00000     0.40033    0.00151     0.40184
      H   27    0.10152      0.00000     0.39757    0.00092     0.39848
      H   28    0.08691      0.00000     0.41198    0.00111     0.41309
      H   29    0.09534      0.00000     0.40361    0.00105     0.40466
      H   30    0.16962      0.00000     0.32837    0.00201     0.33038
      H   31    0.10504      0.00000     0.39407    0.00089     0.39496
      H   32    0.09040      0.00000     0.40865    0.00095     0.40960
      H   33    0.10032      0.00000     0.39686    0.00282     0.39968
      H   34    0.08652      0.00000     0.41218    0.00130     0.41348
      H   35    0.10003      0.00000     0.39785    0.00211     0.39997
      H   36    0.08685      0.00000     0.41166    0.00149     0.41315
 =======================================================================
   * Total *    0.00001     22.99212    51.69752    0.31035    74.99999

 Normal termination of Gaussian 16 at Sun Dec 13 17:35:28 2020.
