 Gaussian 16, Revision A.03,

 -----------------------------------------------------------
 # opt freq B3LYP/6-31G(d) empiricaldispersion=gd3bj scf=xqc
 -----------------------------------------------------------

 ------------------------------
 CID_63053381_JID_5616_neutraal
 ------------------------------
 Symbolic Z-matrix:
 Charge =  0 Multiplicity = 1

 SCF Done:  E(RB3LYP) =  -693.636050825     A.U. after   14 cycles
 SCF Done:  E(RB3LYP) =  -693.638793497     A.U. after   13 cycles
 SCF Done:  E(RB3LYP) =  -693.635459143     A.U. after   14 cycles
 SCF Done:  E(RB3LYP) =  -693.638809340     A.U. after   13 cycles
 SCF Done:  E(RB3LYP) =  -693.640413268     A.U. after    9 cycles
 SCF Done:  E(RB3LYP) =  -693.640395377     A.U. after   12 cycles
 SCF Done:  E(RB3LYP) =  -693.641142943     A.U. after   12 cycles
 SCF Done:  E(RB3LYP) =  -693.641408904     A.U. after   12 cycles
 SCF Done:  E(RB3LYP) =  -693.642065268     A.U. after   12 cycles
 SCF Done:  E(RB3LYP) =  -693.642509833     A.U. after   11 cycles
 SCF Done:  E(RB3LYP) =  -693.642867908     A.U. after   10 cycles
 SCF Done:  E(RB3LYP) =  -693.642875026     A.U. after   10 cycles
 SCF Done:  E(RB3LYP) =  -693.642875799     A.U. after    8 cycles
 SCF Done:  E(RB3LYP) =  -693.642875949     A.U. after    6 cycles
 SCF Done:  E(RB3LYP) =  -693.642876017     A.U. after    7 cycles
 Optimization completed.
    -- Stationary point found.
 Normal termination of Gaussian 16 at Thu Dec 10 17:12:34 2020.

 --------------------------------------------------------------------
 #N Geom=AllCheck Guess=TCheck SCRF=Check GenChk RB3LYP/6-31G(d) Freq
 --------------------------------------------------------------------

 Structure from the checkpoint file:  "JID_5616.chk"
 ------------------------------
 CID_63053381_JID_5616_neutraal
 ------------------------------
 Charge =  0 Multiplicity = 1

 SCF Done:  E(RB3LYP) =  -693.642876017     A.U. after    1 cycles

  Exact polarizability: 144.611   5.231 134.994   1.224  -1.391 121.590
 Approx polarizability: 181.762   5.420 186.710   0.728   0.673 195.559

                      1                      2                      3
                      A                      A                      A
 Frequencies --     32.7335                46.9568                70.6136
 Red. masses --      4.6097                 4.4769                 4.4861
 Frc consts  --      0.0029                 0.0058                 0.0132
 IR Inten    --      0.2921                 1.1242                 0.0670

                      4                      5                      6
                      A                      A                      A
 Frequencies --     73.7234                93.7534               109.5264
 Red. masses --      4.1351                 3.3799                 3.4440
 Frc consts  --      0.0132                 0.0175                 0.0243
 IR Inten    --      0.9660                 0.3453                 0.2058

                      7                      8                      9
                      A                      A                      A
 Frequencies --    143.1229               198.4165               220.4278
 Red. masses --      3.3703                 1.4474                 2.3777
 Frc consts  --      0.0407                 0.0336                 0.0681
 IR Inten    --      0.5587                 0.3480                 0.4531

                     10                     11                     12
                      A                      A                      A
 Frequencies --    225.2156               238.5666               255.6245
 Red. masses --      1.1169                 2.3680                 1.1080
 Frc consts  --      0.0334                 0.0794                 0.0427
 IR Inten    --      0.0357                 3.1394                 0.1142

                     13                     14                     15
                      A                      A                      A
 Frequencies --    257.7550               272.0421               278.9823
 Red. masses --      1.4952                 2.3884                 2.4491
 Frc consts  --      0.0585                 0.1041                 0.1123
 IR Inten    --      0.1825                 1.4459                 0.6622

                     16                     17                     18
                      A                      A                      A
 Frequencies --    285.9917               303.0504               322.2121
 Red. masses --      1.6817                 1.7616                 1.6549
 Frc consts  --      0.0810                 0.0953                 0.1012
 IR Inten    --      0.3604                 7.4773                 6.1865

                     19                     20                     21
                      A                      A                      A
 Frequencies --    339.1701               348.1015               356.4282
 Red. masses --      1.6506                 1.8433                 1.6396
 Frc consts  --      0.1119                 0.1316                 0.1227
 IR Inten    --     12.0803                 1.1340                18.1761

                     22                     23                     24
                      A                      A                      A
 Frequencies --    376.6380               399.4783               425.4395
 Red. masses --      2.2240                 2.1143                 2.3715
 Frc consts  --      0.1859                 0.1988                 0.2529
 IR Inten    --      0.3767                 1.5661                 0.3937

                     25                     26                     27
                      A                      A                      A
 Frequencies --    470.0300               498.0691               504.8393
 Red. masses --      2.6710                 2.9585                 3.1943
 Frc consts  --      0.3477                 0.4324                 0.4797
 IR Inten    --      2.9482                 6.5773                31.9832

                     28                     29                     30
                      A                      A                      A
 Frequencies --    546.5354               601.6187               648.3112
 Red. masses --      2.5407                 2.5087                 1.5250
 Frc consts  --      0.4471                 0.5350                 0.3777
 IR Inten    --      3.5762                18.5012               113.6468

                     31                     32                     33
                      A                      A                      A
 Frequencies --    650.8550               731.5240               760.6664
 Red. masses --      2.5472                 2.6610                 2.9102
 Frc consts  --      0.6357                 0.8390                 0.9921
 IR Inten    --      7.7229                 3.9831                25.9441

                     34                     35                     36
                      A                      A                      A
 Frequencies --    791.3639               810.1067               875.9626
 Red. masses --      2.9364                 3.2653                 2.0282
 Frc consts  --      1.0835                 1.2626                 0.9169
 IR Inten    --     30.6612                 1.1524                 5.7952

                     37                     38                     39
                      A                      A                      A
 Frequencies --    895.5748               935.0554               945.4493
 Red. masses --      1.5653                 1.9824                 1.9857
 Frc consts  --      0.7397                 1.0212                 1.0458
 IR Inten    --    109.2681                37.8785                38.3789

                     40                     41                     42
                      A                      A                      A
 Frequencies --    946.8102               950.2758               973.2659
 Red. masses --      1.7809                 1.8594                 1.2020
 Frc consts  --      0.9406                 0.9893                 0.6709
 IR Inten    --     13.3653                 5.3951                 0.1279

                     43                     44                     45
                      A                      A                      A
 Frequencies --    995.3682              1016.0696              1035.6599
 Red. masses --      1.8817                 1.4053                 1.8192
 Frc consts  --      1.0984                 0.8548                 1.1496
 IR Inten    --     14.4577                 4.4820                10.3992

                     46                     47                     48
                      A                      A                      A
 Frequencies --   1064.5348              1075.2171              1090.9202
 Red. masses --      2.0398                 1.5434                 1.9204
 Frc consts  --      1.3620                 1.0513                 1.3465
 IR Inten    --      7.2888                 3.0117                 5.1760

                     49                     50                     51
                      A                      A                      A
 Frequencies --   1111.5678              1123.5044              1135.0167
 Red. masses --      2.2464                 2.1763                 1.8070
 Frc consts  --      1.6354                 1.6185                 1.3715
 IR Inten    --      9.6488                39.8395                71.0478

                     52                     53                     54
                      A                      A                      A
 Frequencies --   1149.6230              1161.3828              1176.1822
 Red. masses --      1.7569                 1.5102                 1.8996
 Frc consts  --      1.3681                 1.2002                 1.5483
 IR Inten    --     37.6651                35.2880               121.2712

                     55                     56                     57
                      A                      A                      A
 Frequencies --   1215.8831              1232.0055              1260.5179
 Red. masses --      1.8816                 1.8725                 2.5102
 Frc consts  --      1.6390                 1.6746                 2.3500
 IR Inten    --      3.4258                51.7571                 3.4896

                     58                     59                     60
                      A                      A                      A
 Frequencies --   1271.3805              1291.7388              1295.2545
 Red. masses --      2.6338                 1.4942                 2.6424
 Frc consts  --      2.5083                 1.4689                 2.6119
 IR Inten    --     13.1474                 2.7781                 0.6347

                     61                     62                     63
                      A                      A                      A
 Frequencies --   1325.1037              1331.2784              1373.3724
 Red. masses --      1.5046                 1.3312                 1.3514
 Frc consts  --      1.5566                 1.3901                 1.5018
 IR Inten    --      0.7225                15.6614                 2.0051

                     64                     65                     66
                      A                      A                      A
 Frequencies --   1386.6709              1417.5924              1424.3576
 Red. masses --      1.3183                 1.4487                 1.3778
 Frc consts  --      1.4936                 1.7153                 1.6469
 IR Inten    --      5.0693                 7.6936                10.9462

                     67                     68                     69
                      A                      A                      A
 Frequencies --   1426.0794              1430.7211              1431.1466
 Red. masses --      1.3260                 1.2529                 1.2780
 Frc consts  --      1.5889                 1.5110                 1.5423
 IR Inten    --      4.4359                 6.3736                 2.5071

                     70                     71                     72
                      A                      A                      A
 Frequencies --   1439.5537              1443.9000              1463.6890
 Red. masses --      1.5535                 1.2639                 1.2261
 Frc consts  --      1.8967                 1.5526                 1.5477
 IR Inten    --      8.5037                12.4054                11.0092

                     73                     74                     75
                      A                      A                      A
 Frequencies --   1491.6825              1510.5900              1512.0181
 Red. masses --      1.1752                 1.0543                 1.0644
 Frc consts  --      1.5407                 1.4174                 1.4338
 IR Inten    --      3.0385                 2.3392                 5.1295

                     76                     77                     78
                      A                      A                      A
 Frequencies --   1518.6227              1524.6489              1527.8767
 Red. masses --      1.0485                 1.0543                 1.0563
 Frc consts  --      1.4247                 1.4440                 1.4528
 IR Inten    --      0.8324                 0.5639                 6.7501

                     79                     80                     81
                      A                      A                      A
 Frequencies --   1530.3053              1531.5038              1539.3248
 Red. masses --      1.0517                 1.0597                 1.0631
 Frc consts  --      1.4511                 1.4644                 1.4841
 IR Inten    --     10.2553                 5.0072                 1.8464

                     82                     83                     84
                      A                      A                      A
 Frequencies --   1542.0356              1545.8290              1552.1968
 Red. masses --      1.0546                 1.0533                 1.0630
 Frc consts  --      1.4775                 1.4829                 1.5089
 IR Inten    --      2.0434                 5.7135                 5.7936

                     85                     86                     87
                      A                      A                      A
 Frequencies --   1559.8370              1694.8969              1827.7950
 Red. masses --      1.0638                 1.0919                 9.2759
 Frc consts  --      1.5250                 1.8481                18.2583
 IR Inten    --      7.1669                26.3663               201.8034

                     88                     89                     90
                      A                      A                      A
 Frequencies --   2939.1972              2948.0257              3035.9423
 Red. masses --      1.0643                 1.0726                 1.0790
 Frc consts  --      5.4171                 5.4922                 5.8593
 IR Inten    --     50.5385               109.5713                 7.3373

                     91                     92                     93
                      A                      A                      A
 Frequencies --   3038.4767              3043.3608              3052.1703
 Red. masses --      1.0385                 1.0426                 1.0433
 Frc consts  --      5.6491                 5.6893                 5.7265
 IR Inten    --     16.4189                50.4227                28.5818

                     94                     95                     96
                      A                      A                      A
 Frequencies --   3063.7433              3065.1637              3090.5254
 Red. masses --      1.0385                 1.0628                 1.0716
 Frc consts  --      5.7435                 5.8832                 6.0307
 IR Inten    --     15.1015                24.0119                22.2375

                     97                     98                     99
                      A                      A                      A
 Frequencies --   3094.5223              3101.2254              3106.1429
 Red. masses --      1.1010                 1.0999                 1.0986
 Frc consts  --      6.2119                 6.2327                 6.2450
 IR Inten    --     14.3096                13.6305                20.3625

                    100                    101                    102
                      A                      A                      A
 Frequencies --   3106.7231              3116.2996              3124.4953
 Red. masses --      1.0973                 1.1016                 1.0882
 Frc consts  --      6.2399                 6.3030                 6.2590
 IR Inten    --     62.1428                45.3505                17.9356

                    103                    104                    105
                      A                      A                      A
 Frequencies --   3124.9186              3133.0105              3141.8238
 Red. masses --      1.0988                 1.1021                 1.1008
 Frc consts  --      6.3219                 6.3737                 6.4020
 IR Inten    --     31.8321                21.5281                38.0561

                    106                    107                    108
                      A                      A                      A
 Frequencies --   3153.4929              3162.9367              3165.7999
 Red. masses --      1.0929                 1.0931                 1.0918
 Frc consts  --      6.4035                 6.4432                 6.4473
 IR Inten    --     19.0205                 8.8071                15.2710

                    109                    110                    111
                      A                      A                      A
 Frequencies --   3460.4127              3551.2758              3675.5080
 Red. masses --      1.0493                 1.0929                 1.0639
 Frc consts  --      7.4032                 8.1205                 8.4683
 IR Inten    --      0.2174                 0.2000                39.4636

 - Thermochemistry -
 -------------------
 Temperature   298.150 Kelvin.  Pressure   1.00000 Atm.
 Atom     1 has atomic number  6 and mass  12.00000

 Molecular mass:   216.18378 amu.
 Principal axes and moments of inertia in atomic units:
                           1         2         3
     Eigenvalues --  2133.921574347.285935236.24040
           X            0.99978   0.02030   0.00446
           Y           -0.02025   0.99973  -0.01165
           Z           -0.00470   0.01156   0.99992
 This molecule is an asymmetric top.
 Rotational symmetry number  1.
 Warning -- assumption of classical behavior for rotation
           may cause significant error
 Rotational temperatures (Kelvin)      0.04059     0.01992     0.01654
 Rotational constants (GHZ):           0.84574     0.41514     0.34466
 Zero-point vibrational energy     931352.2 (Joules/Mol)
                                  222.59852 (Kcal/Mol)
 Warning -- explicit consideration of  29 degrees of freedom as
           vibrations may cause significant error
 Vibrational temperatures:     47.10    67.56   101.60   106.07   134.89
          (Kelvin)            157.58   205.92   285.48   317.15   324.04
                              343.24   367.79   370.85   391.41   401.39
                              411.48   436.02   463.59   487.99   500.84
                              512.82   541.90   574.76   612.11   676.27
                              716.61   726.35   786.34   865.60   932.78
                              936.44  1052.50  1094.43  1138.60  1165.56
                             1260.31  1288.53  1345.34  1360.29  1362.25
                             1367.23  1400.31  1432.11  1461.90  1490.08
                             1531.63  1547.00  1569.59  1599.30  1616.47
                             1633.04  1654.05  1670.97  1692.26  1749.38
                             1772.58  1813.60  1829.23  1858.52  1863.58
                             1906.53  1915.41  1975.98  1995.11  2039.60
                             2049.33  2051.81  2058.49  2059.10  2071.20
                             2077.45  2105.92  2146.20  2173.40  2175.46
                             2184.96  2193.63  2198.27  2201.77  2203.49
                             2214.75  2218.65  2224.10  2233.26  2244.26
                             2438.58  2629.79  4228.85  4241.55  4368.04
                             4371.69  4378.72  4391.39  4408.04  4410.09
                             4446.58  4452.33  4461.97  4469.05  4469.88
                             4483.66  4495.45  4496.06  4507.70  4520.38
                             4537.17  4550.76  4554.88  4978.76  5109.49
                             5288.24

 Zero-point correction=                           0.354733 (Hartree/Particle)
 Thermal correction to Energy=                    0.372756
 Thermal correction to Enthalpy=                  0.373700
 Thermal correction to Gibbs Free Energy=         0.309781
 Sum of electronic and zero-point Energies=           -693.288143
 Sum of electronic and thermal Energies=              -693.270120
 Sum of electronic and thermal Enthalpies=            -693.269176
 Sum of electronic and thermal Free Energies=         -693.333095

                     E (Thermal)             CV                S
                      KCal/Mol        Cal/Mol-Kelvin    Cal/Mol-Kelvin
 Total                  233.908             68.492            134.531
 Electronic               0.000              0.000              0.000
 Translational            0.889              2.981             42.016
 Rotational               0.889              2.981             32.252
 Vibrational            232.131             62.530             60.263
 Vibration     1          0.594              1.983              5.656
 Vibration     2          0.595              1.979              4.942
 Vibration     3          0.598              1.968              4.136
 Vibration     4          0.599              1.966              4.051
 Vibration     5          0.603              1.954              3.580
 Vibration     6          0.606              1.942              3.277
 Vibration     7          0.616              1.910              2.762
 Vibration     8          0.637              1.842              2.148
 Vibration     9          0.647              1.810              1.956
 Vibration    10          0.650              1.803              1.917
 Vibration    11          0.657              1.782              1.814
 Vibration    12          0.666              1.753              1.691
 Vibration    13          0.667              1.750              1.677
 Vibration    14          0.675              1.725              1.583
 Vibration    15          0.679              1.712              1.540
 Vibration    16          0.684              1.700              1.498
 Vibration    17          0.694              1.668              1.400
 Vibration    18          0.707              1.631              1.299
 Vibration    19          0.719              1.597              1.216
 Vibration    20          0.726              1.579              1.175
 Vibration    21          0.732              1.562              1.138
 Vibration    22          0.747              1.520              1.053
 Vibration    23          0.766              1.471              0.965
 Vibration    24          0.787              1.415              0.874
 Vibration    25          0.827              1.317              0.737
 Vibration    26          0.854              1.254              0.663
 Vibration    27          0.860              1.239              0.646
 Vibration    28          0.902              1.147              0.551
 Vibration    29          0.960              1.028              0.447

 Optimization completed.
    -- Stationary point found.
 Normal termination of Gaussian 16 at Thu Dec 10 17:29:31 2020.

 ----------------------------------------------------------------------
 # B3LYP/6-311++G(d,p) empiricaldispersion=gd3bj scf=xqc pop=npa geom=c
 heck
 ----------------------------------------------------------------------

 --------------------------------------
 CID_63053381_JID_5616_Energie_neutraal
 --------------------------------------
 Structure from the checkpoint file:  "JID_5616.chk"
 Charge =  0 Multiplicity = 1

 SCF Done:  E(RB3LYP) =  -693.857806092     A.U. after   15 cycles
 Normal termination of Gaussian 16 at Thu Dec 10 17:38:15 2020.

 ----------------------------------------------------------------------
 # B3LYP/6-311++G(d,p) empiricaldispersion=gd3bj scf=xqc pop=npa geom=c
 heck
 ----------------------------------------------------------------------

 ------------------------------------
 CID_63053381_JID_5616_Energie_kation
 ------------------------------------
 Structure from the checkpoint file:  "JID_5616.chk"
 Charge =  1 Multiplicity = 2

 SCF Done:  E(UB3LYP) =  -693.571724941     A.U. after   23 cycles
 Normal termination of Gaussian 16 at Thu Dec 10 18:00:17 2020.
 Gaussian 16:  ES64L-G16RevA.03 25-Dec-2016

 ----------------------------------------------------------------------
 # B3LYP/6-311++G(d,p) empiricaldispersion=gd3bj scf=xqc pop=npa geom=c
 heck
 ----------------------------------------------------------------------

 -----------------------------------
 CID_63053381_JID_5616_Energie_anion
 -----------------------------------
 Structure from the checkpoint file:  "JID_5616.chk"
 Charge = -1 Multiplicity = 2

                         Standard orientation:
 ---------------------------------------------------------------------
 Center     Atomic      Atomic             Coordinates (Angstroms)
 Number     Number       Type             X           Y           Z
 ---------------------------------------------------------------------
      1          6           0       -2.578264    1.496126   -0.979543
      2          6           0       -1.886713    0.744968    0.172309
      3          6           0       -2.109750   -0.803393    0.159910
      4          6           0       -1.544727   -1.513887   -1.082807
      5          6           0       -1.464740   -1.403124    1.420886
      6          6           0       -3.626982   -1.076371    0.217230
      7          7           0       -0.467281    1.138927    0.359036
      8          6           0       -0.345565    2.300902    1.231456
      9          6           0        0.301028    1.317097   -0.875490
     10          6           0        1.816075    1.397989   -0.638501
     11          6           0        2.366763    0.329631    0.302518
     12          6           0        2.129570   -1.071698   -0.241604
     13          8           0        2.065688   -1.382262   -1.413750
     14          8           0        2.084958   -1.995057    0.753244
     15          7           0        3.807566    0.548973    0.514698
     16          1           0       -2.232756    1.163689   -1.962973
     17          1           0       -2.380962    2.571062   -0.904157
     18          1           0       -3.662351    1.360981   -0.943171
     19          1           0       -2.383768    1.072610    1.093795
     20          1           0       -0.453884   -1.491629   -1.120924
     21          1           0       -1.847234   -2.568329   -1.072446
     22          1           0       -1.926878   -1.078535   -2.012945
     23          1           0       -1.892080   -0.958429    2.328786
     24          1           0       -1.644315   -2.484328    1.464532
     25          1           0       -0.387565   -1.228987    1.436324
     26          1           0       -4.101691   -0.528429    1.040942
     27          1           0       -4.132838   -0.796252   -0.712452
     28          1           0       -3.810255   -2.144641    0.380028
     29          1           0       -0.867054    2.109993    2.173973
     30          1           0        0.705263    2.488538    1.469969
     31          1           0       -0.756629    3.229723    0.790110
     32          1           0        0.097716    0.470890   -1.531521
     33          1           0       -0.001096    2.227563   -1.425918
     34          1           0        2.311147    1.306034   -1.612767
     35          1           0        2.106944    2.369308   -0.226870
     36          1           0        1.872734    0.399462    1.273927
     37          1           0        1.985771   -2.862091    0.315764
     38          1           0        4.169795   -0.140085    1.172164
     39          1           0        4.304658    0.405700   -0.364449
 ---------------------------------------------------------------------

 SCF Done:  E(UB3LYP) =  -693.844836308     A.U. after   33 cycles
 SCF Done:  E(UB3LYP) =  -693.844836308     a.u. after    1 cycles

 The electronic state is 2-A.
 Alpha  occ. eigenvalues --  -19.07024 -19.01869 -14.20984 -14.20636 -10.20464
 Alpha  occ. eigenvalues --  -10.11485 -10.10088 -10.09446 -10.09033 -10.08165
 Alpha  occ. eigenvalues --  -10.07401 -10.06278 -10.05947 -10.05282 -10.04665
 Alpha  occ. eigenvalues --   -1.01087  -0.92226  -0.82810  -0.80313  -0.72055
 Alpha  occ. eigenvalues --   -0.67597  -0.63772  -0.60883  -0.58764  -0.58287
 Alpha  occ. eigenvalues --   -0.57122  -0.54285  -0.49845  -0.46515  -0.43568
 Alpha  occ. eigenvalues --   -0.42428  -0.39623  -0.38982  -0.38708  -0.37832
 Alpha  occ. eigenvalues --   -0.36503  -0.35866  -0.34047  -0.33850  -0.32879
 Alpha  occ. eigenvalues --   -0.32586  -0.31734  -0.31021  -0.29614  -0.29184
 Alpha  occ. eigenvalues --   -0.28410  -0.27911  -0.27702  -0.26627  -0.26327
 Alpha  occ. eigenvalues --   -0.25853  -0.24865  -0.24230  -0.22780  -0.22250
 Alpha  occ. eigenvalues --   -0.21950  -0.21187  -0.20086  -0.15490  -0.11955
 Alpha  occ. eigenvalues --    0.04293
 Alpha virt. eigenvalues --    0.06026   0.06843   0.07558   0.07935   0.08589
 Alpha virt. eigenvalues --    0.08684   0.09484   0.09724   0.10142   0.10510
 Alpha virt. eigenvalues --    0.11219   0.11770   0.12156   0.12602   0.12901

  Beta  occ. eigenvalues --  -19.06968 -19.01845 -14.20945 -14.20636 -10.20455
  Beta  occ. eigenvalues --  -10.11471 -10.10080 -10.09439 -10.09011 -10.08163
  Beta  occ. eigenvalues --  -10.07393 -10.06258 -10.05926 -10.05262 -10.04646
  Beta  occ. eigenvalues --   -1.01013  -0.92157  -0.82799  -0.80252  -0.72039
  Beta  occ. eigenvalues --   -0.67560  -0.63743  -0.60821  -0.58721  -0.58250
  Beta  occ. eigenvalues --   -0.57069  -0.54234  -0.49782  -0.46458  -0.43533
  Beta  occ. eigenvalues --   -0.42390  -0.39572  -0.38946  -0.38672  -0.37800
  Beta  occ. eigenvalues --   -0.36461  -0.35830  -0.34009  -0.33822  -0.32856
  Beta  occ. eigenvalues --   -0.32557  -0.31681  -0.30988  -0.29587  -0.29156
  Beta  occ. eigenvalues --   -0.28382  -0.27888  -0.27671  -0.26603  -0.26298
  Beta  occ. eigenvalues --   -0.25827  -0.24840  -0.24209  -0.22697  -0.22230
  Beta  occ. eigenvalues --   -0.21921  -0.21169  -0.20052  -0.15442  -0.11943
  Beta virt. eigenvalues --    0.06294   0.07093   0.07412   0.07923   0.08574
  Beta virt. eigenvalues --    0.08924   0.08997   0.09731   0.10049   0.10323
  Beta virt. eigenvalues --    0.10937   0.11555   0.11958   0.12323   0.12700

 Mulliken charges and spin densities:
               1          2
     1  C    0.590413  -1.240063
     2  C   -0.513056  -0.054686
     3  C   -0.834733   1.550171
     4  C    0.081766  -0.708983
     5  C   -0.110699  -0.375484
     6  C   -0.051881  -0.621579
     7  N    0.263928   0.110226
     8  C    0.461073  -0.764583
     9  C   -0.317792   0.127540
    10  C   -0.129682  -0.453490
    11  C    1.022957  -1.383453
    12  C   -0.509895   0.188784
    13  O   -0.208865   0.030559
    14  O   -0.095365   0.031520
    15  N   -0.358084   0.203500
    16  H    0.017503   0.143590
    17  H   -0.028274   0.164142
    18  H   -0.215216   0.371117
    19  H    0.207538  -0.043750
    20  H   -0.007550   0.105441
    21  H   -0.058867   0.219902
    22  H    0.052253   0.110526
    23  H    0.006736   0.126184
    24  H   -0.184415   0.334458
    25  H    0.297935  -0.134581
    26  H   -0.202089   0.345288
    27  H   -0.008368   0.141592
    28  H    0.003982   0.138145
    29  H   -0.289152   0.432090
    30  H    0.111326   0.023874
    31  H   -0.097181   0.219335
    32  H    0.236508  -0.073798
    33  H    0.098445   0.021070
    34  H    0.060457   0.141576
    35  H    0.119711   0.065632
    36  H    0.125696   0.181273
    37  H   -0.347822   0.658137
    38  H   -0.200727   0.445503
    39  H    0.011487   0.223271
 Sum of Mulliken charges =  -1.00000   1.00000

 Dipole moment (field-independent basis, Debye):
    X=             -1.1618    Y=              2.7873    Z=             -1.7655  Tot=              3.4979
 Quadrupole moment (field-independent basis, Debye-Ang):
   XX=           -168.3883   YY=           -146.0996   ZZ=           -131.9051
   XY=              6.1492   XZ=             -2.7222   YZ=             -1.8758

 Summary of Natural Population Analysis:

                                       Natural Population
                Natural  -----------------------------------------------
    Atom  No    Charge         Core      Valence    Rydberg      Total
 -----------------------------------------------------------------------
      C    1   -0.29957      0.99964     2.29429    0.00565     3.29957
      C    2    0.00612      0.99953     1.97992    0.01442     2.99388
      C    3   -0.04900      0.99956     2.03700    0.01244     3.04900
      C    4   -0.28973      0.99961     2.28267    0.00745     3.28973
      C    5   -0.28407      0.99962     2.27656    0.00789     3.28407
      C    6   -0.28492      0.99963     2.27831    0.00699     3.28492
      N    7   -0.29283      0.99971     2.78027    0.01284     3.79283
      C    8   -0.17654      0.99963     2.16859    0.00831     3.17654
      C    9   -0.08627      0.99960     2.07730    0.00937     3.08627
      C   10   -0.19466      0.99961     2.18605    0.00900     3.19466
      C   11   -0.06043      0.99954     2.04725    0.01364     3.06043
      C   12    0.40145      0.99969     1.57127    0.02760     2.59855
      O   13   -0.31224      0.99987     3.30606    0.00631     4.31224
      O   14   -0.34344      0.99988     3.33611    0.00746     4.34344
      N   15   -0.40840      0.99978     2.89903    0.00960     3.90840
      H   16    0.09868      0.00000     0.40045    0.00087     0.40132
      H   17    0.10102      0.00000     0.39804    0.00095     0.39898
      H   18    0.10361      0.00000     0.39553    0.00086     0.39639
      H   19    0.09472      0.00000     0.40323    0.00204     0.40528
      H   20    0.10549      0.00000     0.39269    0.00182     0.39451
      H   21    0.10026      0.00000     0.39879    0.00094     0.39974
      H   22    0.09677      0.00000     0.40238    0.00085     0.40323
      H   23    0.09574      0.00000     0.40320    0.00106     0.40426
      H   24    0.09711      0.00000     0.40190    0.00099     0.40289
      H   25    0.10976      0.00000     0.38804    0.00220     0.39024
      H   26    0.09857      0.00000     0.40046    0.00098     0.40143
      H   27    0.09851      0.00000     0.40056    0.00093     0.40149
      H   28    0.10006      0.00000     0.39907    0.00086     0.39994
      H   29    0.09733      0.00000     0.40175    0.00092     0.40267
      H   30    0.09533      0.00000     0.40352    0.00115     0.40467
      H   31    0.08008      0.00000     0.41873    0.00119     0.41992
      H   32    0.10437      0.00000     0.39394    0.00169     0.39563
      H   33    0.08213      0.00000     0.41626    0.00162     0.41787
      H   34    0.10483      0.00000     0.39420    0.00097     0.39517
      H   35    0.10195      0.00000     0.39676    0.00130     0.39805
      H   36    0.10862      0.00000     0.38874    0.00264     0.39138
      H   37    0.24381      0.00000     0.24449    0.01169     0.25619
      H   38    0.18140      0.00000     0.31631    0.00229     0.31860
      H   39    0.17439      0.00000     0.32354    0.00208     0.32561
 =======================================================================
   * Total *   -0.00000     14.99489    44.80325    0.20187    60.00000

 Normal termination of Gaussian 16 at Thu Dec 10 18:24:50 2020.
