 Gaussian 16, Revision A.03,

 -----------------------------------------------------------
 # opt freq B3LYP/6-31G(d) empiricaldispersion=gd3bj scf=xqc
 -----------------------------------------------------------

 -------------------------------
 CID_131289368_JID_2114_neutraal
 -------------------------------
 Symbolic Z-matrix:
 Charge =  0 Multiplicity = 1

 SCF Done:  E(RB3LYP) =  -588.040017795     A.U. after   15 cycles
 SCF Done:  E(RB3LYP) =  -588.068879655     A.U. after   13 cycles
 SCF Done:  E(RB3LYP) =  -588.073095644     A.U. after   13 cycles
 SCF Done:  E(RB3LYP) =  -588.077133982     A.U. after   13 cycles
 SCF Done:  E(RB3LYP) =  -588.082340208     A.U. after   13 cycles
 SCF Done:  E(RB3LYP) =  -588.088475168     A.U. after   15 cycles
 SCF Done:  E(RB3LYP) =  -588.090585452     A.U. after   12 cycles
 SCF Done:  E(RB3LYP) =  -588.091783110     A.U. after   13 cycles
 SCF Done:  E(RB3LYP) =  -588.092072417     A.U. after   12 cycles
 SCF Done:  E(RB3LYP) =  -588.092217629     A.U. after   11 cycles
 SCF Done:  E(RB3LYP) =  -588.094568249     A.U. after   11 cycles
 SCF Done:  E(RB3LYP) =  -588.094591444     A.U. after   11 cycles
 SCF Done:  E(RB3LYP) =  -588.094603274     A.U. after   11 cycles
 SCF Done:  E(RB3LYP) =  -588.094607303     A.U. after   10 cycles
 SCF Done:  E(RB3LYP) =  -588.094607906     A.U. after    8 cycles
 SCF Done:  E(RB3LYP) =  -588.094607977     A.U. after    8 cycles
 Optimization completed.
    -- Stationary point found.
 Normal termination of Gaussian 16 at Wed Dec  9 16:57:03 2020.

 --------------------------------------------------------------------
 #N Geom=AllCheck Guess=TCheck SCRF=Check GenChk RB3LYP/6-31G(d) Freq
 --------------------------------------------------------------------

 Structure from the checkpoint file:  "JID_2114.chk"
 -------------------------------
 CID_131289368_JID_2114_neutraal
 -------------------------------
 Charge =  0 Multiplicity = 1

 SCF Done:  E(RB3LYP) =  -588.094607977     A.U. after    1 cycles

  Exact polarizability:  93.046   5.244  91.496  -1.196   0.438  83.762
 Approx polarizability: 122.643   9.161 142.759  -1.097   0.892 131.062

                      1                      2                      3
                      A                      A                      A
 Frequencies --     34.3963                50.3316                87.6280
 Red. masses --      6.7000                 3.5494                 3.3515
 Frc consts  --      0.0047                 0.0053                 0.0152
 IR Inten    --      0.6979                 1.4288                 3.3481

                      4                      5                      6
                      A                      A                      A
 Frequencies --    107.2132               135.7450               226.5220
 Red. masses --      8.7245                 6.4528                 3.4302
 Frc consts  --      0.0591                 0.0701                 0.1037
 IR Inten    --      6.2635                 6.5683                 1.2360

                      7                      8                      9
                      A                      A                      A
 Frequencies --    245.4909               261.9058               271.7751
 Red. masses --      3.8002                 2.2798                 1.4343
 Frc consts  --      0.1349                 0.0921                 0.0624
 IR Inten    --      8.3148                 3.5962                34.8660

                     10                     11                     12
                      A                      A                      A
 Frequencies --    277.4311               293.3620               396.7125
 Red. masses --      3.6288                 1.2724                 1.9612
 Frc consts  --      0.1646                 0.0645                 0.1819
 IR Inten    --     10.2691                 7.1962                 3.6078

                     13                     14                     15
                      A                      A                      A
 Frequencies --    429.1584               453.5534               495.0613
 Red. masses --      2.3701                 4.1898                 7.4895
 Frc consts  --      0.2572                 0.5078                 1.0815
 IR Inten    --      7.1168                 1.3412                 0.8702

                     16                     17                     18
                      A                      A                      A
 Frequencies --    577.6642               609.2718               699.9502
 Red. masses --      4.0576                 5.8901                 3.9533
 Frc consts  --      0.7978                 1.2882                 1.1411
 IR Inten    --      1.6552                 1.3864                16.0007

                     19                     20                     21
                      A                      A                      A
 Frequencies --    741.7112               780.6728               800.6766
 Red. masses --     10.8998                 6.5669                 4.2828
 Frc consts  --      3.5330                 2.3580                 1.6177
 IR Inten    --     18.3425                 7.2842                13.2845

                     22                     23                     24
                      A                      A                      A
 Frequencies --    827.2776               867.0071               902.9102
 Red. masses --      3.2049                 3.4213                 1.4929
 Frc consts  --      1.2923                 1.5153                 0.7171
 IR Inten    --     10.4490                21.0794                96.3372

                     25                     26                     27
                      A                      A                      A
 Frequencies --    942.3930               964.4009              1007.0976
 Red. masses --      2.1677                 1.6182                 2.5448
 Frc consts  --      1.1343                 0.8867                 1.5207
 IR Inten    --     87.0028                21.1039                27.8014

                     28                     29                     30
                      A                      A                      A
 Frequencies --   1034.5102              1049.4178              1060.8278
 Red. masses --      2.0147                 2.9819                 2.0816
 Frc consts  --      1.2703                 1.9348                 1.3802
 IR Inten    --     14.4613                60.9770                34.4721

                     31                     32                     33
                      A                      A                      A
 Frequencies --   1101.0651              1112.9946              1151.9508
 Red. masses --      1.8329                 1.9498                 2.0456
 Frc consts  --      1.3092                 1.4231                 1.5993
 IR Inten    --     76.9340                16.8525                40.3870

                     34                     35                     36
                      A                      A                      A
 Frequencies --   1215.5307              1237.7551              1287.1627
 Red. masses --      1.2158                 1.8098                 1.7480
 Frc consts  --      1.0584                 1.6336                 1.7063
 IR Inten    --     55.3060                17.2905                34.1786

                     37                     38                     39
                      A                      A                      A
 Frequencies --   1303.0756              1305.7948              1356.6502
 Red. masses --      1.7797                 1.6909                 1.4218
 Frc consts  --      1.7804                 1.6987                 1.5418
 IR Inten    --     21.0464                63.8001                 3.9821

                     40                     41                     42
                      A                      A                      A
 Frequencies --   1369.5555              1378.1150              1414.2784
 Red. masses --      1.9017                 1.3336                 1.2687
 Frc consts  --      2.1016                 1.4922                 1.4951
 IR Inten    --     39.7709                17.5708                17.0799

                     43                     44                     45
                      A                      A                      A
 Frequencies --   1423.5168              1449.9980              1457.8743
 Red. masses --      1.3061                 1.4829                 2.0148
 Frc consts  --      1.5593                 1.8369                 2.5230
 IR Inten    --     13.6908                14.6136               100.2194

                     46                     47                     48
                      A                      A                      A
 Frequencies --   1503.2351              1520.9711              1536.5787
 Red. masses --      1.1119                 1.0477                 1.0547
 Frc consts  --      1.4804                 1.4279                 1.4672
 IR Inten    --     11.6411                 6.9398                 7.4492

                     49                     50                     51
                      A                      A                      A
 Frequencies --   1554.8747              1702.4779              1889.3987
 Red. masses --      1.0918                 1.0952                11.5214
 Frc consts  --      1.5552                 1.8703                24.2328
 IR Inten    --      8.1567                23.1948               458.2372

                     52                     53                     54
                      A                      A                      A
 Frequencies --   2373.0961              3027.6545              3029.2250
 Red. masses --     12.6521                 1.0712                 1.0823
 Frc consts  --     41.9802                 5.7854                 5.8513
 IR Inten    --      0.1444                40.6831                22.7779

                     55                     56                     57
                      A                      A                      A
 Frequencies --   3047.0943              3053.8221              3108.9026
 Red. masses --      1.0401                 1.0632                 1.1013
 Frc consts  --      5.6898                 5.8417                 6.2713
 IR Inten    --     23.3774                44.9143                28.3235

                     58                     59                     60
                      A                      A                      A
 Frequencies --   3111.4244              3130.5222              3137.8392
 Red. masses --      1.1031                 1.0868                 1.0950
 Frc consts  --      6.2918                 6.2754                 6.3523
 IR Inten    --     23.3191                 7.4265                10.8170

                     61                     62                     63
                      A                      A                      A
 Frequencies --   3143.9250              3466.5510              3548.5561
 Red. masses --      1.0998                 1.0500                 1.0915
 Frc consts  --      6.4051                 7.4344                 8.0980
 IR Inten    --     16.7951                 0.4141                 0.2931

 - Thermochemistry -
 -------------------
 Temperature   298.150 Kelvin.  Pressure   1.00000 Atm.
 Atom     1 has atomic number  6 and mass  12.00000

 Molecular mass:   169.08513 amu.
 Principal axes and moments of inertia in atomic units:
                           1         2         3
     Eigenvalues --  1435.640362311.592542843.59793
           X            0.99936  -0.03420   0.01055
           Y            0.03402   0.99928   0.01696
           Z           -0.01112  -0.01659   0.99980
 This molecule is an asymmetric top.
 Rotational symmetry number  1.
 Warning -- assumption of classical behavior for rotation
           may cause significant error
 Rotational temperatures (Kelvin)      0.06033     0.03747     0.03046
 Rotational constants (GHZ):           1.25710     0.78074     0.63467
 Zero-point vibrational energy     496949.9 (Joules/Mol)
                                  118.77389 (Kcal/Mol)
 Warning -- explicit consideration of  17 degrees of freedom as
           vibrations may cause significant error
 Vibrational temperatures:     49.49    72.42   126.08   154.26   195.31
          (Kelvin)            325.91   353.21   376.82   391.02   399.16
                              422.08   570.78   617.46   652.56   712.28
                              831.13   876.61  1007.07  1067.16  1123.21
                             1152.00  1190.27  1247.43  1299.09  1355.89
                             1387.56  1448.99  1488.43  1509.88  1526.29
                             1584.19  1601.35  1657.40  1748.88  1780.85
                             1851.94  1874.84  1878.75  1951.92  1970.48
                             1982.80  2034.83  2048.12  2086.22  2097.56
                             2162.82  2188.34  2210.79  2237.12  2449.49
                             2718.42  3414.36  4356.12  4358.38  4384.09
                             4393.77  4473.02  4476.65  4504.12  4514.65
                             4523.41  4987.59  5105.58

 Zero-point correction=                           0.189278 (Hartree/Particle)
 Thermal correction to Energy=                    0.201167
 Thermal correction to Enthalpy=                  0.202111
 Thermal correction to Gibbs Free Energy=         0.150409
 Sum of electronic and zero-point Energies=           -587.905330
 Sum of electronic and thermal Energies=              -587.893441
 Sum of electronic and thermal Enthalpies=            -587.892497
 Sum of electronic and thermal Free Energies=         -587.944199

                     E (Thermal)             CV                S
                      KCal/Mol        Cal/Mol-Kelvin    Cal/Mol-Kelvin
 Total                  126.234             43.215            108.816
 Electronic               0.000              0.000              0.000
 Translational            0.889              2.981             41.284
 Rotational               0.889              2.981             30.624
 Vibrational            124.457             37.253             36.908
 Vibration     1          0.594              1.983              5.558
 Vibration     2          0.595              1.977              4.804
 Vibration     3          0.601              1.958              3.712
 Vibration     4          0.606              1.943              3.319
 Vibration     5          0.614              1.918              2.863
 Vibration     6          0.650              1.801              1.906
 Vibration     7          0.660              1.770              1.763
 Vibration     8          0.669              1.743              1.649
 Vibration     9          0.675              1.725              1.585
 Vibration    10          0.678              1.715              1.549
 Vibration    11          0.688              1.686              1.454
 Vibration    12          0.763              1.477              0.975
 Vibration    13          0.791              1.407              0.861
 Vibration    14          0.812              1.353              0.785
 Vibration    15          0.851              1.261              0.671
 Vibration    16          0.934              1.080              0.490
 Vibration    17          0.968              1.012              0.434

                           ! Non-Optimized Parameters !
 Normal termination of Gaussian 16 at Wed Dec  9 17:02:19 2020.

 ----------------------------------------------------------------------
 # B3LYP/6-311++G(d,p) empiricaldispersion=gd3bj scf=xqc pop=npa geom=c
 heck
 ----------------------------------------------------------------------

 ---------------------------------------
 CID_131289368_JID_2114_Energie_neutraal
 ---------------------------------------
 Structure from the checkpoint file:  "JID_2114.chk"
 Charge =  0 Multiplicity = 1

 SCF Done:  E(RB3LYP) =  -588.270471556     A.U. after   15 cycles
 Normal termination of Gaussian 16 at Wed Dec  9 17:04:17 2020.

 ----------------------------------------------------------------------
 # B3LYP/6-311++G(d,p) empiricaldispersion=gd3bj scf=xqc pop=npa geom=c
 heck
 ----------------------------------------------------------------------

 -------------------------------------
 CID_131289368_JID_2114_Energie_kation
 -------------------------------------
 Structure from the checkpoint file:  "JID_2114.chk"
 Charge =  1 Multiplicity = 2

 SCF Done:  E(UB3LYP) =  -587.940732157     A.U. after   21 cycles
 Normal termination of Gaussian 16 at Wed Dec  9 17:07:51 2020.
 Gaussian 16:  ES64L-G16RevA.03 25-Dec-2016

 ----------------------------------------------------------------------
 # B3LYP/6-311++G(d,p) empiricaldispersion=gd3bj scf=xqc pop=npa geom=c
 heck
 ----------------------------------------------------------------------

 ------------------------------------
 CID_131289368_JID_2114_Energie_anion
 ------------------------------------
 Structure from the checkpoint file:  "JID_2114.chk"
 Charge = -1 Multiplicity = 2

                         Standard orientation:
 ---------------------------------------------------------------------
 Center     Atomic      Atomic             Coordinates (Angstroms)
 Number     Number       Type             X           Y           Z
 ---------------------------------------------------------------------
      1          6           0        2.054438   -1.827005   -0.256835
      2          6           0        2.389877   -0.349164   -0.051778
      3          6           0        1.533406    0.571184   -0.951292
      4          7           0        0.110968    0.491571   -0.646805
      5          6           0       -0.857044   -0.248863   -1.428630
      6          6           0       -2.097318   -0.087766   -0.522047
      7          8           0       -1.864828    1.136114    0.183740
      8          6           0       -0.499198    1.390750    0.186842
      9          8           0       -0.000467    2.276034    0.835117
     10          6           0       -2.204803   -1.206277    0.434631
     11          7           0       -2.261673   -2.100536    1.171005
     12          7           0        2.297394   -0.037104    1.373652
     13          1           0        1.027936   -2.039695    0.067857
     14          1           0        2.724002   -2.448829    0.343025
     15          1           0        2.151363   -2.119372   -1.308717
     16          1           0        3.432377   -0.181877   -0.358315
     17          1           0        1.839434    1.612389   -0.806889
     18          1           0        1.671632    0.322632   -2.010913
     19          1           0       -1.027216    0.208436   -2.414107
     20          1           0       -0.573097   -1.294168   -1.563426
     21          1           0       -3.029994    0.008375   -1.081269
     22          1           0        2.401334    0.965632    1.523340
     23          1           0        1.361620   -0.265385    1.708257
 ---------------------------------------------------------------------

 SCF Done:  E(UB3LYP) =  -588.267935123     A.U. after   30 cycles

 The electronic state is 2-A.
 Alpha  occ. eigenvalues --  -19.08228 -19.01253 -14.26215 -14.23189 -14.20063
 Alpha  occ. eigenvalues --  -10.23018 -10.18884 -10.13335 -10.12590 -10.11704
 Alpha  occ. eigenvalues --  -10.11333 -10.06829  -1.03197  -0.94439  -0.86446
 Alpha  occ. eigenvalues --   -0.82564  -0.79823  -0.70412  -0.66639  -0.62171
 Alpha  occ. eigenvalues --   -0.58349  -0.52423  -0.49324  -0.46764  -0.43325
 Alpha  occ. eigenvalues --   -0.41195  -0.40281  -0.38261  -0.37015  -0.34956
 Alpha  occ. eigenvalues --   -0.34232  -0.33742  -0.33223  -0.31442  -0.29086
 Alpha  occ. eigenvalues --   -0.28786  -0.28260  -0.26663  -0.26033  -0.25911
 Alpha  occ. eigenvalues --   -0.24499  -0.22505  -0.20271  -0.17579  -0.14957
 Alpha  occ. eigenvalues --    0.03996
 Alpha virt. eigenvalues --    0.06582   0.08021   0.08399   0.08830   0.09651
 Alpha virt. eigenvalues --    0.10177   0.10873   0.11157   0.11453   0.12244
 Alpha virt. eigenvalues --    0.12828   0.13241   0.14591   0.15014   0.15458

  Beta  occ. eigenvalues --  -19.08220 -19.01238 -14.26218 -14.23149 -14.20057
  Beta  occ. eigenvalues --  -10.23008 -10.18847 -10.13260 -10.12576 -10.11678
  Beta  occ. eigenvalues --  -10.11325 -10.06803  -1.03173  -0.94414  -0.86430
  Beta  occ. eigenvalues --   -0.82494  -0.79805  -0.70312  -0.66597  -0.62117
  Beta  occ. eigenvalues --   -0.58240  -0.52391  -0.49273  -0.46687  -0.43221
  Beta  occ. eigenvalues --   -0.41122  -0.40220  -0.38210  -0.36971  -0.34906
  Beta  occ. eigenvalues --   -0.34169  -0.33681  -0.33169  -0.31404  -0.29035
  Beta  occ. eigenvalues --   -0.28727  -0.28220  -0.26629  -0.25960  -0.25850
  Beta  occ. eigenvalues --   -0.24390  -0.22456  -0.20251  -0.17549  -0.14934
  Beta virt. eigenvalues --    0.06793   0.07834   0.08495   0.08808   0.09389
  Beta virt. eigenvalues --    0.10110   0.10438   0.11377   0.11666   0.11813
  Beta virt. eigenvalues --    0.12664   0.13160   0.13572   0.14912   0.15161

 Mulliken charges and spin densities:
               1          2
     1  C    0.418659  -1.037366
     2  C   -0.569175   0.610637
     3  C    0.288941  -0.883098
     4  N   -0.096681   0.089207
     5  C    2.173911  -2.617918
     6  C   -1.611447   2.007578
     7  O   -0.045018  -0.039767
     8  C    0.418476  -0.204691
     9  O   -0.370017   0.010815
    10  C    1.795044  -1.988236
    11  N   -0.360980   0.082900
    12  N   -0.286470  -0.036615
    13  H    0.066945   0.072346
    14  H    0.113905   0.044706
    15  H   -0.163241   0.318408
    16  H   -0.157549   0.337535
    17  H    0.043497   0.171833
    18  H   -0.352764   0.528382
    19  H   -1.235820   1.494475
    20  H   -0.417903   0.604766
    21  H   -1.088471   1.395273
    22  H    0.227663   0.005829
    23  H    0.208496   0.033002
 Sum of Mulliken charges =  -1.00000   1.00000

 Dipole moment (field-independent basis, Debye):
    X=              3.8131    Y=              0.7252    Z=              4.8540  Tot=              6.2151
 Quadrupole moment (field-independent basis, Debye-Ang):
   XX=           -120.8038   YY=           -109.0694   ZZ=           -125.0880
   XY=              0.2939   XZ=             -7.0859   YZ=              0.3814

 Summary of Natural Population Analysis:

                                       Natural Population
                Natural  -----------------------------------------------
    Atom  No    Charge         Core      Valence    Rydberg      Total
 -----------------------------------------------------------------------
      C    1   -0.29176      0.99964     2.28591    0.00620     3.29176
      C    2   -0.01830      0.99962     2.00663    0.01205     3.01830
      C    3   -0.08872      0.99958     2.07659    0.01255     3.08872
      N    4   -0.27504      0.99964     2.76112    0.01428     3.77504
      C    5   -0.07918      0.99961     2.06579    0.01378     3.07918
      C    6    0.00933      0.99949     1.97416    0.01702     2.99067
      O    7   -0.27283      0.99987     3.26605    0.00690     4.27283
      C    8    0.46722      0.99964     1.50614    0.02700     2.53278
      O    9   -0.31339      0.99986     3.30816    0.00536     4.31339
      C   10    0.14802      0.99963     1.83526    0.01709     2.85198
      N   11   -0.16604      0.99979     2.65538    0.01087     3.66604
      N   12   -0.42153      0.99977     2.91305    0.00870     3.92153
      H   13    0.09917      0.00000     0.39966    0.00117     0.40083
      H   14    0.10395      0.00000     0.39518    0.00086     0.39605
      H   15    0.10279      0.00000     0.39617    0.00104     0.39721
      H   16    0.08954      0.00000     0.40936    0.00110     0.41046
      H   17    0.10541      0.00000     0.39339    0.00119     0.39459
      H   18    0.10508      0.00000     0.39269    0.00222     0.39492
      H   19    0.10998      0.00000     0.37321    0.01681     0.39002
      H   20    0.10891      0.00000     0.38786    0.00323     0.39109
      H   21    0.12559      0.00000     0.36755    0.00686     0.37441
      H   22    0.17790      0.00000     0.32042    0.00168     0.32210
      H   23    0.17389      0.00000     0.32411    0.00201     0.32611
 =======================================================================
   * Total *    0.00000     11.99614    32.81387    0.18999    45.00000

 Normal termination of Gaussian 16 at Wed Dec  9 17:13:03 2020.
