 Gaussian 16, Revision A.03,

 -----------------------------------------------------------
 # opt freq B3LYP/6-31G(d) empiricaldispersion=gd3bj scf=xqc
 -----------------------------------------------------------

 --------------------------------
 CID_149773268_JID_10281_neutraal
 --------------------------------
 Symbolic Z-matrix:
 Charge =  0 Multiplicity = 1

 SCF Done:  E(RB3LYP) =  -903.932494087     A.U. after   16 cycles
 SCF Done:  E(RB3LYP) =  -903.941865825     A.U. after   15 cycles
 SCF Done:  E(RB3LYP) =  -903.943503906     A.U. after   14 cycles
 SCF Done:  E(RB3LYP) =  -903.945430942     A.U. after   15 cycles
 SCF Done:  E(RB3LYP) =  -903.948010965     A.U. after   16 cycles
 SCF Done:  E(RB3LYP) =  -903.951341782     A.U. after   16 cycles
 SCF Done:  E(RB3LYP) =  -903.952210378     A.U. after   14 cycles
 SCF Done:  E(RB3LYP) =  -903.952474249     A.U. after   13 cycles
 SCF Done:  E(RB3LYP) =  -903.952571427     A.U. after   12 cycles
 SCF Done:  E(RB3LYP) =  -903.952616523     A.U. after   12 cycles
 SCF Done:  E(RB3LYP) =  -903.952627025     A.U. after   12 cycles
 SCF Done:  E(RB3LYP) =  -903.952633602     A.U. after   10 cycles
 SCF Done:  E(RB3LYP) =  -903.952635034     A.U. after    9 cycles
 SCF Done:  E(RB3LYP) =  -903.952635858     A.U. after    9 cycles
 Optimization completed.
    -- Stationary point found.
 Normal termination of Gaussian 16 at Sat Dec 12 15:01:03 2020.

 --------------------------------------------------------------------
 #N Geom=AllCheck Guess=TCheck SCRF=Check GenChk RB3LYP/6-31G(d) Freq
 --------------------------------------------------------------------

 Structure from the checkpoint file:  "JID_10281.chk"
 --------------------------------
 CID_149773268_JID_10281_neutraal
 --------------------------------
 Charge =  0 Multiplicity = 1

 SCF Done:  E(RB3LYP) =  -903.952635858     A.U. after    1 cycles

  Exact polarizability: 270.417  -9.524 214.629  -5.141  -3.744  66.972
 Approx polarizability: 396.757 -17.325 430.860 -14.369  -6.407 112.399

                      1                      2                      3
                      A                      A                      A
 Frequencies --     26.7939                37.6381                76.2887
 Red. masses --      6.7232                 7.7449                 8.2358
 Frc consts  --      0.0028                 0.0065                 0.0282
 IR Inten    --      0.8667                 0.0891                 0.1086

                      4                      5                      6
                      A                      A                      A
 Frequencies --     81.1396               114.4243               139.9957
 Red. masses --      9.3574                 6.6393                 5.8660
 Frc consts  --      0.0363                 0.0512                 0.0677
 IR Inten    --      0.2315                 1.3249                 4.5417

                      7                      8                      9
                      A                      A                      A
 Frequencies --    175.7568               223.5975               239.6018
 Red. masses --      7.2633                 4.6678                 7.8249
 Frc consts  --      0.1322                 0.1375                 0.2647
 IR Inten    --      1.4573                 0.2300                 4.6083

                     10                     11                     12
                      A                      A                      A
 Frequencies --    270.2824               276.3584               322.2473
 Red. masses --      8.1747                 5.9502                 6.4789
 Frc consts  --      0.3518                 0.2677                 0.3964
 IR Inten    --      3.3292                 1.0255                 2.2627

                     13                     14                     15
                      A                      A                      A
 Frequencies --    365.4500               408.8138               437.4846
 Red. masses --      9.2958                 2.9357                 5.6558
 Frc consts  --      0.7315                 0.2891                 0.6378
 IR Inten    --     11.9253                 5.5441                 3.0662

                     16                     17                     18
                      A                      A                      A
 Frequencies --    457.7736               472.8162               497.5989
 Red. masses --      3.3586                 9.5164                 4.8299
 Frc consts  --      0.4147                 1.2535                 0.7046
 IR Inten    --      2.0806                 0.2260                 1.1217

                     19                     20                     21
                      A                      A                      A
 Frequencies --    508.3867               544.2016               548.1297
 Red. masses --      7.4515                 6.4201                13.2029
 Frc consts  --      1.1347                 1.1202                 2.3372
 IR Inten    --      2.0237                 4.6668                10.3375

                     22                     23                     24
                      A                      A                      A
 Frequencies --    598.7090               603.1196               636.7641
 Red. masses --      5.2801                 6.9448                 6.1037
 Frc consts  --      1.1151                 1.4884                 1.4582
 IR Inten    --      0.7576                 3.8172                 2.5272

                     25                     26                     27
                      A                      A                      A
 Frequencies --    658.4135               683.4005               709.4755
 Red. masses --      6.1934                 9.5873                 4.0101
 Frc consts  --      1.5819                 2.6381                 1.1893
 IR Inten    --      1.8818                27.1403                29.1076

                     28                     29                     30
                      A                      A                      A
 Frequencies --    738.2132               755.7399               776.4004
 Red. masses --      6.6599                 3.8455                 5.0998
 Frc consts  --      2.1384                 1.2941                 1.8112
 IR Inten    --      1.6141                 2.1241                22.1392

                     31                     32                     33
                      A                      A                      A
 Frequencies --    784.5142               810.7642               852.7248
 Red. masses --      1.7077                 3.6667                 1.3584
 Frc consts  --      0.6192                 1.4201                 0.5820
 IR Inten    --      5.3069                12.1951                26.2007

                     34                     35                     36
                      A                      A                      A
 Frequencies --    856.1948               868.3047               887.7482
 Red. masses --      7.2264                 1.4305                 1.5873
 Frc consts  --      3.1212                 0.6354                 0.7370
 IR Inten    --      3.4376                19.9363                15.5740

                     37                     38                     39
                      A                      A                      A
 Frequencies --    910.5366               948.1938               957.7884
 Red. masses --      5.0346                 1.4019                 1.2898
 Frc consts  --      2.4593                 0.7426                 0.6971
 IR Inten    --     60.8426                 2.2255                 1.5427

                     40                     41                     42
                      A                      A                      A
 Frequencies --    966.3950               979.8371               993.2369
 Red. masses --      5.1737                 1.3546                 1.3820
 Frc consts  --      2.8468                 0.7663                 0.8033
 IR Inten    --      7.9250                 0.1093                 0.2253

                     43                     44                     45
                      A                      A                      A
 Frequencies --   1016.7917              1078.5610              1107.2489
 Red. masses --      7.4081                 1.9216                 2.8646
 Frc consts  --      4.5126                 1.3170                 2.0692
 IR Inten    --      2.6499                 5.8266                18.5685

                     46                     47                     48
                      A                      A                      A
 Frequencies --   1133.8673              1151.1092              1170.6007
 Red. masses --      1.8054                 1.7604                 2.6742
 Frc consts  --      1.3676                 1.3743                 2.1591
 IR Inten    --     28.2088                13.0433                27.0987

                     49                     50                     51
                      A                      A                      A
 Frequencies --   1197.2391              1254.0852              1259.1197
 Red. masses --      2.7837                 1.8572                 2.4213
 Frc consts  --      2.3509                 1.7210                 2.2616
 IR Inten    --      0.1602                 2.0626                19.8364

                     52                     53                     54
                      A                      A                      A
 Frequencies --   1285.5659              1297.2224              1326.3356
 Red. masses --      3.4679                 1.9457                 2.6603
 Frc consts  --      3.3768                 1.9291                 2.7573
 IR Inten    --    100.1606               154.1683                 2.4985

                     55                     56                     57
                      A                      A                      A
 Frequencies --   1338.1276              1343.6990              1362.8894
 Red. masses --      3.4923                 4.0893                 1.9736
 Frc consts  --      3.6843                 4.3501                 2.1599
 IR Inten    --     27.9857                10.8308                29.1908

                     58                     59                     60
                      A                      A                      A
 Frequencies --   1381.8333              1434.4711              1461.6536
 Red. masses --      6.7247                 1.7085                 3.7445
 Frc consts  --      7.5654                 2.0713                 4.7134
 IR Inten    --    209.8180                11.6134               205.9457

                     61                     62                     63
                      A                      A                      A
 Frequencies --   1489.1866              1521.4067              1531.2707
 Red. masses --      2.2876                 2.5097                 2.7699
 Frc consts  --      2.9891                 3.4227                 3.8266
 IR Inten    --     31.4214                75.8891                65.7007

                     64                     65                     66
                      A                      A                      A
 Frequencies --   1598.3413              1624.4622              1642.0567
 Red. masses --      6.6301                 7.9587                 5.9954
 Frc consts  --      9.9796                12.3740                 9.5246
 IR Inten    --     77.9842               134.6406               246.1777

                     67                     68                     69
                      A                      A                      A
 Frequencies --   1647.2092              1697.3813              1754.4730
 Red. masses --      6.3230                 6.5215                11.8327
 Frc consts  --     10.1082                11.0702                21.4599
 IR Inten    --     56.6788                79.2818               275.4373

                     70                     71                     72
                      A                      A                      A
 Frequencies --   2275.9534              3162.0573              3189.2282
 Red. masses --     13.9869                 1.0900                 1.0905
 Frc consts  --     42.6872                 6.4213                 6.5349
 IR Inten    --    582.6153                26.4742                30.4513

                     73                     74                     75
                      A                      A                      A
 Frequencies --   3190.8456              3223.6586              3238.5021
 Red. masses --      1.0905                 1.0910                 1.0943
 Frc consts  --      6.5415                 6.6801                 6.7617
 IR Inten    --     21.0670                 5.6424                 4.8783

                     76                     77                     78
                      A                      A                      A
 Frequencies --   3238.5969              3283.9783              3285.2821
 Red. masses --      1.0932                 1.0919                 1.0937
 Frc consts  --      6.7559                 6.9378                 6.9552
 IR Inten    --      3.3579                 9.3368                13.8807

 - Thermochemistry -
 -------------------
 Temperature   298.150 Kelvin.  Pressure   1.00000 Atm.
 Atom     1 has atomic number  6 and mass  12.00000

 Molecular mass:   264.07596 amu.
 Principal axes and moments of inertia in atomic units:
                           1         2         3
     Eigenvalues --  2373.954239242.14749**********
           X            0.99994  -0.01033  -0.00181
           Y            0.01032   0.99992  -0.00726
           Z            0.00188   0.00725   0.99997
 This molecule is an asymmetric top.
 Rotational symmetry number  1.
 Warning -- assumption of classical behavior for rotation
           may cause significant error
 Rotational temperatures (Kelvin)      0.03649     0.00937     0.00759
 Rotational constants (GHZ):           0.76023     0.19527     0.15810
 Zero-point vibrational energy     528722.9 (Joules/Mol)
                                  126.36780 (Kcal/Mol)
 Warning -- explicit consideration of  23 degrees of freedom as
           vibrations may cause significant error
 Vibrational temperatures:     38.55    54.15   109.76   116.74   164.63
          (Kelvin)            201.42   252.87   321.71   344.73   388.88
                              397.62   463.64   525.80   588.19   629.44
                              658.63   680.28   715.93   731.46   782.98
                              788.64   861.41   867.75   916.16   947.31
                              983.26  1020.78  1062.12  1087.34  1117.07
                             1128.74  1166.51  1226.88  1231.87  1249.30
                             1277.27  1310.06  1364.24  1378.04  1390.43
                             1409.77  1429.05  1462.94  1551.81  1593.08
                             1631.38  1656.19  1684.23  1722.56  1804.35
                             1811.59  1849.64  1866.41  1908.30  1925.27
                             1933.28  1960.89  1988.15  2063.88  2102.99
                             2142.61  2188.96  2203.16  2299.66  2337.24
                             2362.55  2369.97  2442.15  2524.30  3274.59
                             4549.50  4588.59  4590.92  4638.13  4659.48
                             4659.62  4724.91  4726.79

 Zero-point correction=                           0.201380 (Hartree/Particle)
 Thermal correction to Energy=                    0.216116
 Thermal correction to Enthalpy=                  0.217060
 Thermal correction to Gibbs Free Energy=         0.157872
 Sum of electronic and zero-point Energies=           -903.751256
 Sum of electronic and thermal Energies=              -903.736520
 Sum of electronic and thermal Enthalpies=            -903.735575
 Sum of electronic and thermal Free Energies=         -903.794763

                     E (Thermal)             CV                S
                      KCal/Mol        Cal/Mol-Kelvin    Cal/Mol-Kelvin
 Total                  135.615             57.666            124.572
 Electronic               0.000              0.000              0.000
 Translational            0.889              2.981             42.613
 Rotational               0.889              2.981             33.882
 Vibrational            133.838             51.704             48.078
 Vibration     1          0.593              1.984              6.054
 Vibration     2          0.594              1.982              5.380
 Vibration     3          0.599              1.965              3.984
 Vibration     4          0.600              1.962              3.863
 Vibration     5          0.607              1.937              3.192
 Vibration     6          0.615              1.913              2.804
 Vibration     7          0.628              1.872              2.373
 Vibration     8          0.649              1.805              1.930
 Vibration     9          0.657              1.780              1.806
 Vibration    10          0.674              1.728              1.594
 Vibration    11          0.678              1.717              1.556
 Vibration    12          0.707              1.631              1.299
 Vibration    13          0.739              1.543              1.099
 Vibration    14          0.773              1.451              0.931
 Vibration    15          0.798              1.388              0.835
 Vibration    16          0.816              1.344              0.773
 Vibration    17          0.830              1.310              0.730
 Vibration    18          0.853              1.255              0.664
 Vibration    19          0.864              1.231              0.637
 Vibration    20          0.899              1.152              0.556
 Vibration    21          0.903              1.144              0.548
 Vibration    22          0.957              1.035              0.452
 Vibration    23          0.962              1.025              0.444

 Optimization completed.
    -- Stationary point found.
 Normal termination of Gaussian 16 at Sat Dec 12 15:14:04 2020.

 ----------------------------------------------------------------------
 # B3LYP/6-311++G(d,p) empiricaldispersion=gd3bj scf=xqc pop=npa geom=c
 heck
 ----------------------------------------------------------------------

 ----------------------------------------
 CID_149773268_JID_10281_Energie_neutraal
 ----------------------------------------
 Structure from the checkpoint file:  "JID_10281.chk"
 Charge =  0 Multiplicity = 1

 SCF Done:  E(RB3LYP) =  -904.182768662     A.U. after   17 cycles
 Normal termination of Gaussian 16 at Sat Dec 12 15:19:48 2020.

 ----------------------------------------------------------------------
 # B3LYP/6-311++G(d,p) empiricaldispersion=gd3bj scf=xqc pop=npa geom=c
 heck
 ----------------------------------------------------------------------

 --------------------------------------
 CID_149773268_JID_10281_Energie_kation
 --------------------------------------
 Structure from the checkpoint file:  "JID_10281.chk"
 Charge =  1 Multiplicity = 2

 SCF Done:  E(UB3LYP) =  -903.888076195     A.U. after   30 cycles
 Normal termination of Gaussian 16 at Sat Dec 12 15:34:26 2020.
 Gaussian 16:  ES64L-G16RevA.03 25-Dec-2016

 ----------------------------------------------------------------------
 # B3LYP/6-311++G(d,p) empiricaldispersion=gd3bj scf=xqc pop=npa geom=c
 heck
 ----------------------------------------------------------------------

 -------------------------------------
 CID_149773268_JID_10281_Energie_anion
 -------------------------------------
 Structure from the checkpoint file:  "JID_10281.chk"
 Charge = -1 Multiplicity = 2

                         Standard orientation:
 ---------------------------------------------------------------------
 Center     Atomic      Atomic             Coordinates (Angstroms)
 Number     Number       Type             X           Y           Z
 ---------------------------------------------------------------------
      1          6           0       -3.829759    1.429142    0.275736
      2          6           0       -2.855648    2.409197    0.404485
      3          7           0       -1.542830    2.172980    0.310290
      4          6           0       -1.148219    0.920490    0.069926
      5          6           0       -2.033841   -0.147537   -0.096787
      6          6           0       -3.400333    0.123572    0.016706
      7          7           0       -4.404853   -0.856059   -0.123991
      8          7           0       -4.043120   -2.025306   -0.338715
      9          7           0       -3.861167   -3.130412   -0.537515
     10          7           0        0.273870    0.751301   -0.049427
     11          6           0        1.021221    1.880302   -0.394604
     12          6           0        2.365780    1.863078   -0.501282
     13          6           0        3.085577    0.651200   -0.238892
     14          6           0        2.361107   -0.500329    0.123253
     15          6           0        0.891063   -0.489884    0.234870
     16          8           0        0.251062   -1.486400    0.554951
     17          6           0        3.060738   -1.685163    0.384545
     18          6           0        4.442794   -1.676676    0.273058
     19          7           0        5.156309   -0.585303   -0.075083
     20          6           0        4.489984    0.534389   -0.320244
     21          1           0       -4.885616    1.653871    0.368640
     22          1           0       -3.138080    3.440821    0.600613
     23          1           0       -1.666139   -1.144349   -0.283775
     24          1           0        0.422436    2.763690   -0.556513
     25          1           0        2.893009    2.766303   -0.786685
     26          1           0        2.513436   -2.577419    0.665773
     27          1           0        5.019167   -2.577803    0.467742
     28          1           0        5.083050    1.404981   -0.598944
 ---------------------------------------------------------------------

 SCF Done:  E(UB3LYP) =  -904.216682804     A.U. after   33 cycles
 SCF Done:  E(UB3LYP) =  -904.216682805     a.u. after    1 cycles

 The electronic state is 2-A.
 Alpha  occ. eigenvalues --  -18.95999 -14.38763 -14.29379 -14.27470 -14.25305
 Alpha  occ. eigenvalues --  -14.18543 -14.17921 -10.14435 -10.13185 -10.12055
 Alpha  occ. eigenvalues --  -10.10111 -10.09524 -10.08431 -10.07864 -10.06891
 Alpha  occ. eigenvalues --  -10.06528 -10.06423 -10.06026 -10.05625 -10.05281
 Alpha  occ. eigenvalues --   -1.05315  -0.92098  -0.89803  -0.86231  -0.82022
 Alpha  occ. eigenvalues --   -0.81216  -0.71232  -0.70831  -0.66394  -0.65097
 Alpha  occ. eigenvalues --   -0.62158  -0.57866  -0.56210  -0.53216  -0.51726
 Alpha  occ. eigenvalues --   -0.48595  -0.47337  -0.43058  -0.42451  -0.41592
 Alpha  occ. eigenvalues --   -0.40397  -0.39860  -0.37781  -0.37437  -0.36482
 Alpha  occ. eigenvalues --   -0.35628  -0.33779  -0.33396  -0.32574  -0.31753
 Alpha  occ. eigenvalues --   -0.31069  -0.29898  -0.29475  -0.28760  -0.27404
 Alpha  occ. eigenvalues --   -0.27347  -0.24159  -0.23726  -0.22528  -0.22167
 Alpha  occ. eigenvalues --   -0.19281  -0.15954  -0.15715  -0.15029  -0.14370
 Alpha  occ. eigenvalues --   -0.14033  -0.13316  -0.09977   0.01732
 Alpha virt. eigenvalues --    0.05149   0.05285   0.07760   0.07919   0.08634
 Alpha virt. eigenvalues --    0.09320   0.09390   0.10147   0.10674   0.11692
 Alpha virt. eigenvalues --    0.11817   0.12721   0.12887   0.13679   0.14330

  Beta  occ. eigenvalues --  -18.95806 -14.38621 -14.29218 -14.27554 -14.25288
  Beta  occ. eigenvalues --  -14.18277 -14.17597 -10.14278 -10.13060 -10.11883
  Beta  occ. eigenvalues --  -10.10146 -10.09420 -10.08479 -10.07879 -10.06952
  Beta  occ. eigenvalues --  -10.06412 -10.06306 -10.06086 -10.05464 -10.05198
  Beta  occ. eigenvalues --   -1.05077  -0.91768  -0.89715  -0.85926  -0.81643
  Beta  occ. eigenvalues --   -0.80926  -0.70914  -0.70514  -0.66105  -0.64924
  Beta  occ. eigenvalues --   -0.61968  -0.57713  -0.55802  -0.53055  -0.51500
  Beta  occ. eigenvalues --   -0.48484  -0.47177  -0.42927  -0.41815  -0.41463
  Beta  occ. eigenvalues --   -0.40251  -0.39678  -0.37527  -0.37297  -0.36286
  Beta  occ. eigenvalues --   -0.35447  -0.33305  -0.33173  -0.32469  -0.31522
  Beta  occ. eigenvalues --   -0.30922  -0.29458  -0.29046  -0.28598  -0.27222
  Beta  occ. eigenvalues --   -0.26600  -0.23635  -0.23266  -0.22174  -0.21855
  Beta  occ. eigenvalues --   -0.18442  -0.15537  -0.14813  -0.14721  -0.13800
  Beta  occ. eigenvalues --   -0.13335  -0.13003  -0.09350
  Beta virt. eigenvalues --    0.05430   0.06108   0.06757   0.07870   0.08156
  Beta virt. eigenvalues --    0.08623   0.09339   0.10116   0.10216   0.10703
  Beta virt. eigenvalues --    0.11686   0.12409   0.12833   0.13233   0.13747

 Mulliken charges and spin densities:
               1          2
     1  C    0.378758   0.114793
     2  C   -0.304353  -0.015421
     3  N   -0.134752   0.133220
     4  C   -1.014979   0.041902
     5  C    2.004495  -0.018748
     6  C   -1.864345   0.083565
     7  N    0.266476  -0.039220
     8  N    0.126256   0.042138
     9  N   -0.278689   0.085947
    10  N    0.242158  -0.009300
    11  C   -0.255643   0.093856
    12  C   -0.435660  -0.064869
    13  C   -0.062363   0.086770
    14  C    0.307899   0.107471
    15  C    0.016929   0.083809
    16  O   -0.357165   0.076253
    17  C    0.183596   0.115210
    18  C   -0.673181  -0.019578
    19  N   -0.074405   0.150339
    20  C   -0.513852  -0.039079
    21  H    0.177734  -0.006739
    22  H    0.152357   0.000728
    23  H    0.286995   0.004541
    24  H    0.213869  -0.006104
    25  H    0.148759   0.003535
    26  H    0.195501  -0.004475
    27  H    0.135193  -0.001467
    28  H    0.132413   0.000924
 Sum of Mulliken charges =  -1.00000   1.00000

 Dipole moment (field-independent basis, Debye):
    X=             -3.3477    Y=              2.7872    Z=             -0.9228  Tot=              4.4528
 Quadrupole moment (field-independent basis, Debye-Ang):
   XX=           -184.2355   YY=           -133.5719   ZZ=           -122.6952
   XY=              0.0567   XZ=             -0.5381   YZ=             -1.8440

 Summary of Natural Population Analysis:

                                       Natural Population
                Natural  -----------------------------------------------
    Atom  No    Charge         Core      Valence    Rydberg      Total
 -----------------------------------------------------------------------
      C    1   -0.11870      0.99952     2.11076    0.00842     3.11870
      C    2    0.02410      0.99961     1.96203    0.01425     2.97590
      N    3   -0.22348      0.99966     2.71397    0.00984     3.72348
      C    4    0.22569      0.99952     1.76127    0.01352     2.77431
      C    5   -0.15452      0.99948     2.14800    0.00705     3.15452
      C    6    0.10083      0.99944     1.88837    0.01136     2.89917
      N    7   -0.18860      0.99965     2.67576    0.01320     3.68860
      N    8    0.13299      0.99971     2.35089    0.01642     3.36701
      N    9   -0.01130      0.99982     2.49881    0.01267     3.51130
      N   10   -0.23267      0.99960     2.72203    0.01104     3.73267
      C   11    0.04776      0.99955     1.94235    0.01034     2.95224
      C   12   -0.14964      0.99954     2.14140    0.00871     3.14964
      C   13   -0.01865      0.99949     2.01116    0.00801     3.01865
      C   14   -0.02653      0.99945     2.01870    0.00838     3.02653
      C   15    0.35812      0.99961     1.62203    0.02025     2.64188
      O   16   -0.30739      0.99988     3.30143    0.00608     4.30739
      C   17   -0.08144      0.99953     2.07333    0.00858     3.08144
      C   18    0.00121      0.99960     1.98397    0.01522     2.99879
      N   19   -0.19172      0.99971     2.67873    0.01328     3.69172
      C   20    0.01624      0.99957     1.96928    0.01490     2.98376
      H   21    0.10141      0.00000     0.39748    0.00110     0.39859
      H   22    0.08422      0.00000     0.41463    0.00115     0.41578
      H   23    0.12709      0.00000     0.37142    0.00149     0.37291
      H   24    0.11127      0.00000     0.38746    0.00126     0.38873
      H   25    0.10010      0.00000     0.39882    0.00108     0.39990
      H   26    0.10969      0.00000     0.38911    0.00120     0.39031
      H   27    0.08276      0.00000     0.41594    0.00130     0.41724
      H   28    0.08114      0.00000     0.41721    0.00165     0.41886
 =======================================================================
   * Total *   -0.00000     19.99193    47.76632    0.24175    68.00000

 Normal termination of Gaussian 16 at Sat Dec 12 15:50:50 2020.
