 Gaussian 16, Revision A.03,

 -----------------------------------------------------------
 # opt freq B3LYP/6-31G(d) empiricaldispersion=gd3bj scf=xqc
 -----------------------------------------------------------

 -------------------------------
 CID_149786156_JID_8479_neutraal
 -------------------------------
 Symbolic Z-matrix:
 Charge =  0 Multiplicity = 1

 SCF Done:  E(RB3LYP) =  -795.449287856     A.U. after   16 cycles
 SCF Done:  E(RB3LYP) =  -795.453499433     A.U. after   14 cycles
 SCF Done:  E(RB3LYP) =  -795.455268554     A.U. after   14 cycles
 SCF Done:  E(RB3LYP) =  -795.455914757     A.U. after   13 cycles
 SCF Done:  E(RB3LYP) =  -795.456247951     A.U. after   13 cycles
 SCF Done:  E(RB3LYP) =  -795.455899789     A.U. after   15 cycles
 SCF Done:  E(RB3LYP) =  -795.456358415     A.U. after   15 cycles
 SCF Done:  E(RB3LYP) =  -795.456464207     A.U. after   12 cycles
 SCF Done:  E(RB3LYP) =  -795.456478681     A.U. after   10 cycles
 SCF Done:  E(RB3LYP) =  -795.456474929     A.U. after   10 cycles
 SCF Done:  E(RB3LYP) =  -795.455792412     A.U. after   13 cycles
 SCF Done:  E(RB3LYP) =  -795.456845862     A.U. after   10 cycles
 SCF Done:  E(RB3LYP) =  -795.456850433     A.U. after   10 cycles
 SCF Done:  E(RB3LYP) =  -795.456851491     A.U. after    9 cycles
 SCF Done:  E(RB3LYP) =  -795.456851913     A.U. after    9 cycles
 SCF Done:  E(RB3LYP) =  -795.456852024     A.U. after    8 cycles
 Optimization completed.
    -- Stationary point found.
 Normal termination of Gaussian 16 at Fri Dec 11 21:08:57 2020.

 --------------------------------------------------------------------
 #N Geom=AllCheck Guess=TCheck SCRF=Check GenChk RB3LYP/6-31G(d) Freq
 --------------------------------------------------------------------

 Structure from the checkpoint file:  "JID_8479.chk"
 -------------------------------
 CID_149786156_JID_8479_neutraal
 -------------------------------
 Charge =  0 Multiplicity = 1

 SCF Done:  E(RB3LYP) =  -795.456852024     A.U. after    1 cycles

  Exact polarizability: 204.683   5.482 155.172  18.127  -4.067 122.271
 Approx polarizability: 295.278  10.919 251.024  55.898 -11.598 227.607

                      1                      2                      3
                      A                      A                      A
 Frequencies --     35.4197                40.8453                54.8284
 Red. masses --      7.7314                 5.8595                 2.0477
 Frc consts  --      0.0057                 0.0058                 0.0036
 IR Inten    --      0.3006                 0.2053                 0.0190

                      4                      5                      6
                      A                      A                      A
 Frequencies --     55.5621                61.3177                75.2499
 Red. masses --      3.5479                 1.3680                 3.1805
 Frc consts  --      0.0065                 0.0030                 0.0106
 IR Inten    --      0.0682                 0.2552                 0.0707

                      7                      8                      9
                      A                      A                      A
 Frequencies --    100.1104               148.9920               173.0440
 Red. masses --      5.2106                 5.9143                 4.5127
 Frc consts  --      0.0308                 0.0774                 0.0796
 IR Inten    --      2.0485                 3.1805                 1.0675

                     10                     11                     12
                      A                      A                      A
 Frequencies --    196.4760               220.9158               237.5705
 Red. masses --      5.3427                 2.6931                 1.0540
 Frc consts  --      0.1215                 0.0774                 0.0350
 IR Inten    --      1.7198                 3.8134                 0.0485

                     13                     14                     15
                      A                      A                      A
 Frequencies --    268.0229               272.0970               280.5199
 Red. masses --      5.2038                 1.1716                 2.5540
 Frc consts  --      0.2203                 0.0511                 0.1184
 IR Inten    --      2.6231                 1.8027                 1.2549

                     16                     17                     18
                      A                      A                      A
 Frequencies --    308.8195               330.5992               337.6735
 Red. masses --      2.6097                 2.8549                 3.3834
 Frc consts  --      0.1466                 0.1838                 0.2273
 IR Inten    --      3.0166                 0.1397                 0.4104

                     19                     20                     21
                      A                      A                      A
 Frequencies --    407.3006               424.4489               434.0207
 Red. masses --      2.6647                 2.1881                 4.6402
 Frc consts  --      0.2605                 0.2323                 0.5150
 IR Inten    --      0.4095                 0.4160                 1.0632

                     22                     23                     24
                      A                      A                      A
 Frequencies --    507.8185               553.8313               575.1020
 Red. masses --      5.6012                 4.8423                13.2936
 Frc consts  --      0.8510                 0.8751                 2.5905
 IR Inten    --      1.4101                 5.7498                17.3115

                     25                     26                     27
                      A                      A                      A
 Frequencies --    583.2584               599.9195               609.1875
 Red. masses --      4.0553                 4.7801                 4.6872
 Frc consts  --      0.8128                 1.0136                 1.0249
 IR Inten    --      4.0880                 6.3352                 7.2701

                     28                     29                     30
                      A                      A                      A
 Frequencies --    646.4843               700.2702               726.5214
 Red. masses --      4.9833                 8.6175                 6.2730
 Frc consts  --      1.2271                 2.4898                 1.9509
 IR Inten    --     11.6590                 6.4441                 5.5120

                     31                     32                     33
                      A                      A                      A
 Frequencies --    779.3785               801.2114               831.3522
 Red. masses --      5.7002                 8.9568                 2.8320
 Frc consts  --      2.0400                 3.3877                 1.1532
 IR Inten    --     25.7454                 1.2973                 1.8078

                     34                     35                     36
                      A                      A                      A
 Frequencies --    839.2526               857.2130               893.3035
 Red. masses --      1.2184                 4.2044                 2.7291
 Frc consts  --      0.5056                 1.8203                 1.2831
 IR Inten    --     16.9538                 1.1763                 0.6563

                     37                     38                     39
                      A                      A                      A
 Frequencies --    907.5484               912.6323               948.3518
 Red. masses --      3.0857                 3.5214                 1.1908
 Frc consts  --      1.4974                 1.7281                 0.6310
 IR Inten    --     27.6691                48.1317                 2.8726

                     40                     41                     42
                      A                      A                      A
 Frequencies --    957.1129               968.0091               981.1290
 Red. masses --      1.3477                 2.1015                 1.5505
 Frc consts  --      0.7274                 1.1602                 0.8794
 IR Inten    --      0.0359                 0.6195                 0.1259

                     43                     44                     45
                      A                      A                      A
 Frequencies --    982.9647              1053.0401              1074.4353
 Red. masses --      1.9326                 2.1271                 1.5393
 Frc consts  --      1.1002                 1.3897                 1.0470
 IR Inten    --      2.1302                 5.2361                 3.0610

                     46                     47                     48
                      A                      A                      A
 Frequencies --   1102.7786              1127.9750              1145.1729
 Red. masses --      2.3997                 1.6439                 1.8911
 Frc consts  --      1.7194                 1.2323                 1.4612
 IR Inten    --      5.2747                10.6112                 0.6310

                     49                     50                     51
                      A                      A                      A
 Frequencies --   1153.3598              1204.9506              1231.8350
 Red. masses --      2.0734                 1.7788                 4.2730
 Frc consts  --      1.6250                 1.5217                 3.8202
 IR Inten    --      6.2420                17.5407                19.4423

                     52                     53                     54
                      A                      A                      A
 Frequencies --   1257.7655              1278.7664              1287.7868
 Red. masses --      2.3185                 2.3818                 2.1898
 Frc consts  --      2.1610                 2.2947                 2.1396
 IR Inten    --     36.4760                20.3970                84.7779

                     55                     56                     57
                      A                      A                      A
 Frequencies --   1304.4308              1309.7046              1333.8028
 Red. masses --      1.8277                 2.0232                 1.4813
 Frc consts  --      1.8323                 2.0447                 1.5527
 IR Inten    --     49.5969                69.3773                24.1221

                     58                     59                     60
                      A                      A                      A
 Frequencies --   1354.8716              1379.5877              1390.1413
 Red. masses --      4.5066                 1.8423                 1.3742
 Frc consts  --      4.8741                 2.0659                 1.5646
 IR Inten    --     27.2217                14.4793                 1.2845

                     61                     62                     63
                      A                      A                      A
 Frequencies --   1411.2687              1416.5668              1427.3834
 Red. masses --      1.9918                 1.6476                 2.9629
 Frc consts  --      2.3373                 1.9479                 3.5567
 IR Inten    --     30.9706                36.8874                60.3507

                     64                     65                     66
                      A                      A                      A
 Frequencies --   1432.9115              1441.4950              1450.5608
 Red. masses --      1.2838                 1.2701                 1.2614
 Frc consts  --      1.5531                 1.5549                 1.5637
 IR Inten    --      3.4954                 2.6389                 1.2095

                     67                     68                     69
                      A                      A                      A
 Frequencies --   1460.5782              1506.1149              1506.7233
 Red. masses --      2.3000                 1.0440                 1.1489
 Frc consts  --      2.8908                 1.3953                 1.5368
 IR Inten    --     59.1212                 6.5038                 6.9652

                     70                     71                     72
                      A                      A                      A
 Frequencies --   1514.6111              1519.5711              1521.1898
 Red. masses --      1.1228                 1.0867                 1.0681
 Frc consts  --      1.5176                 1.4785                 1.4562
 IR Inten    --     19.3175                16.0781                 4.2031

                     73                     74                     75
                      A                      A                      A
 Frequencies --   1525.0200              1534.8528              1542.8077
 Red. masses --      1.0685                 1.0542                 1.0498
 Frc consts  --      1.4641                 1.4632                 1.4722
 IR Inten    --      6.6755                 2.5117                13.9185

                     76                     77                     78
                      A                      A                      A
 Frequencies --   1549.5823              1560.2581              1644.7479
 Red. masses --      2.8427                 9.2436                 8.1843
 Frc consts  --      4.0217                13.2583                13.0446
 IR Inten    --      2.6437                44.9464                25.1590

                     79                     80                     81
                      A                      A                      A
 Frequencies --   1656.7785              2270.1371              3038.5888
 Red. masses --      7.7659                13.6581                 1.0367
 Frc consts  --     12.5595                41.4710                 5.6393
 IR Inten    --     56.8055               317.0650                29.5676

                     82                     83                     84
                      A                      A                      A
 Frequencies --   3047.4041              3052.8780              3055.5864
 Red. masses --      1.0391                 1.0629                 1.0360
 Frc consts  --      5.6855                 5.8367                 5.6987
 IR Inten    --     17.7941                14.3646                16.5480

                     85                     86                     87
                      A                      A                      A
 Frequencies --   3058.2357              3097.0080              3099.4605
 Red. masses --      1.0791                 1.0726                 1.0917
 Frc consts  --      5.9465                 6.0616                 6.1791
 IR Inten    --      7.9203                12.3488                 5.0937

                     88                     89                     90
                      A                      A                      A
 Frequencies --   3105.1754              3111.4207              3113.4980
 Red. masses --      1.1008                 1.1001                 1.1024
 Frc consts  --      6.2533                 6.2749                 6.2962
 IR Inten    --     31.4405                 9.9426                20.0432

                     91                     92                     93
                      A                      A                      A
 Frequencies --   3117.7816              3121.9552              3138.4384
 Red. masses --      1.1010                 1.1018                 1.1033
 Frc consts  --      6.3055                 6.3274                 6.4030
 IR Inten    --     58.5700                42.9938                18.9903

                     94                     95                     96
                      A                      A                      A
 Frequencies --   3169.8069              3183.7334              3203.6133
 Red. masses --      1.1047                 1.0879                 1.0940
 Frc consts  --      6.5399                 6.4971                 6.6154
 IR Inten    --      7.8568                12.7150                30.6006

 - Thermochemistry -
 -------------------
 Temperature   298.150 Kelvin.  Pressure   1.00000 Atm.
 Atom     1 has atomic number  6 and mass  12.00000

 Molecular mass:   244.14364 amu.
 Principal axes and moments of inertia in atomic units:
                           1         2         3
     Eigenvalues --  3017.566625283.319257007.01490
           X            0.99979   0.01957   0.00601
           Y           -0.01939   0.99939  -0.02892
           Z           -0.00657   0.02879   0.99956
 This molecule is an asymmetric top.
 Rotational symmetry number  1.
 Warning -- assumption of classical behavior for rotation
           may cause significant error
 Rotational temperatures (Kelvin)      0.02870     0.01639     0.01236
 Rotational constants (GHZ):           0.59808     0.34159     0.25756
 Zero-point vibrational energy     737042.2 (Joules/Mol)
                                  176.15732 (Kcal/Mol)
 Warning -- explicit consideration of  27 degrees of freedom as
           vibrations may cause significant error
 Vibrational temperatures:     50.96    58.77    78.89    79.94    88.22
          (Kelvin)            108.27   144.04   214.37   248.97   282.69
                              317.85   341.81   385.63   391.49   403.61
                              444.32   475.66   485.84   586.01   610.69
                              624.46   730.64   796.84   827.44   839.18
                              863.15   876.48   930.15  1007.53  1045.30
                             1121.35  1152.76  1196.13  1207.50  1233.34
                             1285.26  1305.76  1313.07  1364.47  1377.07
                             1392.75  1411.63  1414.27  1515.09  1545.87
                             1586.65  1622.90  1647.65  1659.43  1733.66
                             1772.34  1809.64  1839.86  1852.84  1876.79
                             1884.37  1919.04  1949.36  1984.92  2000.10
                             2030.50  2038.12  2053.69  2061.64  2073.99
                             2087.03  2101.45  2166.96  2167.84  2179.19
                             2186.32  2188.65  2194.16  2208.31  2219.76
                             2229.50  2244.86  2366.43  2383.73  3266.22
                             4371.85  4384.53  4392.41  4396.31  4400.12
                             4455.90  4459.43  4467.65  4476.64  4479.63
                             4485.79  4491.80  4515.51  4560.65  4580.68
                             4609.28

 Zero-point correction=                           0.280725 (Hartree/Particle)
 Thermal correction to Energy=                    0.298012
 Thermal correction to Enthalpy=                  0.298956
 Thermal correction to Gibbs Free Energy=         0.234175
 Sum of electronic and zero-point Energies=           -795.176127
 Sum of electronic and thermal Energies=              -795.158841
 Sum of electronic and thermal Enthalpies=            -795.157896
 Sum of electronic and thermal Free Energies=         -795.222677

                     E (Thermal)             CV                S
                      KCal/Mol        Cal/Mol-Kelvin    Cal/Mol-Kelvin
 Total                  187.005             63.738            136.342
 Electronic               0.000              0.000              0.000
 Translational            0.889              2.981             42.379
 Rotational               0.889              2.981             33.079
 Vibrational            185.228             57.777             60.884
 Vibration     1          0.594              1.982              5.500
 Vibration     2          0.594              1.981              5.218
 Vibration     3          0.596              1.976              4.635
 Vibration     4          0.596              1.975              4.609
 Vibration     5          0.597              1.973              4.414
 Vibration     6          0.599              1.966              4.011
 Vibration     7          0.604              1.949              3.452
 Vibration     8          0.618              1.904              2.685
 Vibration     9          0.627              1.876              2.402
 Vibration    10          0.636              1.845              2.166
 Vibration    11          0.648              1.809              1.952
 Vibration    12          0.656              1.783              1.821
 Vibration    13          0.673              1.732              1.609
 Vibration    14          0.675              1.725              1.583
 Vibration    15          0.680              1.710              1.530
 Vibration    16          0.698              1.657              1.369
 Vibration    17          0.713              1.614              1.257
 Vibration    18          0.718              1.600              1.223
 Vibration    19          0.772              1.454              0.936
 Vibration    20          0.786              1.417              0.877
 Vibration    21          0.795              1.396              0.846
 Vibration    22          0.863              1.233              0.639
 Vibration    23          0.909              1.131              0.536
 Vibration    24          0.931              1.085              0.495
 Vibration    25          0.940              1.068              0.479
 Vibration    26          0.958              1.032              0.450
 Vibration    27          0.968              1.012              0.434

 Optimization completed.
    -- Stationary point found.
 Normal termination of Gaussian 16 at Fri Dec 11 21:22:52 2020.

 ----------------------------------------------------------------------
 # B3LYP/6-311++G(d,p) empiricaldispersion=gd3bj scf=xqc pop=npa geom=c
 heck
 ----------------------------------------------------------------------

 ---------------------------------------
 CID_149786156_JID_8479_Energie_neutraal
 ---------------------------------------
 Structure from the checkpoint file:  "JID_8479.chk"
 Charge =  0 Multiplicity = 1

 SCF Done:  E(RB3LYP) =  -795.663316794     A.U. after   17 cycles
 Normal termination of Gaussian 16 at Fri Dec 11 21:29:02 2020.

 ----------------------------------------------------------------------
 # B3LYP/6-311++G(d,p) empiricaldispersion=gd3bj scf=xqc pop=npa geom=c
 heck
 ----------------------------------------------------------------------

 -------------------------------------
 CID_149786156_JID_8479_Energie_kation
 -------------------------------------
 Structure from the checkpoint file:  "JID_8479.chk"
 Charge =  1 Multiplicity = 2

 SCF Done:  E(UB3LYP) =  -795.358965316     A.U. after   30 cycles
 Normal termination of Gaussian 16 at Fri Dec 11 21:44:05 2020.
 Gaussian 16:  ES64L-G16RevA.03 25-Dec-2016

 ----------------------------------------------------------------------
 # B3LYP/6-311++G(d,p) empiricaldispersion=gd3bj scf=xqc pop=npa geom=c
 heck
 ----------------------------------------------------------------------

 ------------------------------------
 CID_149786156_JID_8479_Energie_anion
 ------------------------------------
 Structure from the checkpoint file:  "JID_8479.chk"
 Charge = -1 Multiplicity = 2

                         Standard orientation:
 ---------------------------------------------------------------------
 Center     Atomic      Atomic             Coordinates (Angstroms)
 Number     Number       Type             X           Y           Z
 ---------------------------------------------------------------------
      1          6           0        2.975479   -2.723569    0.698196
      2          6           0        2.729434   -1.301270    0.285489
      3          6           0        1.472050   -0.871495   -0.158333
      4          6           0        1.322196    0.480682   -0.526060
      5          7           0        2.239060    1.439528   -0.509204
      6          6           0        3.437175    1.012911   -0.079973
      7          6           0        3.714334   -0.307103    0.313580
      8          7           0       -0.006599    0.605128   -0.920496
      9          6           0       -0.586550   -0.650673   -0.754190
     10          7           0        0.269299   -1.546138   -0.310763
     11          6           0       -2.034695   -0.921665   -1.010911
     12          6           0       -2.763408   -1.450681    0.245844
     13          6           0       -2.724224   -0.429078    1.387350
     14          6           0       -4.202997   -1.836554   -0.106585
     15          6           0       -0.617774    1.851132   -1.313677
     16          7           0       -1.513258    2.428222   -0.287167
     17          7           0       -0.996362    2.547582    0.832860
     18          7           0       -0.642464    2.675903    1.908066
     19          1           0        2.307870   -3.008420    1.519252
     20          1           0        4.009983   -2.872886    1.019864
     21          1           0        2.762797   -3.409233   -0.129858
     22          1           0        4.223461    1.763081   -0.045277
     23          1           0        4.717695   -0.554771    0.647785
     24          1           0       -2.535823   -0.013708   -1.364106
     25          1           0       -2.112764   -1.668582   -1.810625
     26          1           0       -2.222426   -2.349178    0.567593
     27          1           0       -3.218581    0.504594    1.092650
     28          1           0       -3.238044   -0.818032    2.273280
     29          1           0       -1.695714   -0.191422    1.678932
     30          1           0       -4.234186   -2.585038   -0.907073
     31          1           0       -4.719945   -2.253324    0.764913
     32          1           0       -4.772385   -0.960315   -0.442638
     33          1           0        0.200629    2.537631   -1.549766
     34          1           0       -1.246430    1.712202   -2.192379
 ---------------------------------------------------------------------

 SCF Done:  E(UB3LYP) =  -795.662128729     A.U. after   31 cycles

 The electronic state is 2-A.
 Alpha  occ. eigenvalues --  -14.33183 -14.24646 -14.23862 -14.22715 -14.18109
 Alpha  occ. eigenvalues --  -14.17397 -10.13654 -10.11162 -10.10964 -10.07796
 Alpha  occ. eigenvalues --  -10.07034 -10.07005 -10.06607 -10.06430 -10.06309
 Alpha  occ. eigenvalues --  -10.05953 -10.05458 -10.04737  -1.00420  -0.90772
 Alpha  occ. eigenvalues --   -0.84846  -0.81406  -0.77343  -0.70928  -0.69152
 Alpha  occ. eigenvalues --   -0.64304  -0.62089  -0.60397  -0.58076  -0.57829
 Alpha  occ. eigenvalues --   -0.50833  -0.49561  -0.48288  -0.45455  -0.41607
 Alpha  occ. eigenvalues --   -0.40842  -0.40307  -0.38049  -0.37568  -0.35937
 Alpha  occ. eigenvalues --   -0.35369  -0.34616  -0.33500  -0.32421  -0.32369
 Alpha  occ. eigenvalues --   -0.31684  -0.30786  -0.30050  -0.29502  -0.28428
 Alpha  occ. eigenvalues --   -0.27859  -0.27500  -0.26632  -0.25063  -0.24849
 Alpha  occ. eigenvalues --   -0.23088  -0.22469  -0.22156  -0.19961  -0.18238
 Alpha  occ. eigenvalues --   -0.18046  -0.13827  -0.13452  -0.12450  -0.11330
 Alpha  occ. eigenvalues --    0.04654
 Alpha virt. eigenvalues --    0.06906   0.07316   0.07789   0.08597   0.09050
 Alpha virt. eigenvalues --    0.09654   0.10080   0.10856   0.11208   0.11639
 Alpha virt. eigenvalues --    0.11964   0.12167   0.12834   0.13028   0.13342

  Beta  occ. eigenvalues --  -14.32911 -14.24646 -14.23486 -14.22772 -14.17913
  Beta  occ. eigenvalues --  -14.17414 -10.13559 -10.10990 -10.10921 -10.07687
  Beta  occ. eigenvalues --  -10.07020 -10.06984 -10.06614 -10.06330 -10.06199
  Beta  occ. eigenvalues --  -10.05934 -10.05511 -10.04728  -0.99893  -0.90641
  Beta  occ. eigenvalues --   -0.84597  -0.81115  -0.77242  -0.70842  -0.68882
  Beta  occ. eigenvalues --   -0.64140  -0.61876  -0.60285  -0.58039  -0.57762
  Beta  occ. eigenvalues --   -0.50785  -0.49310  -0.48112  -0.45365  -0.41339
  Beta  occ. eigenvalues --   -0.40661  -0.40019  -0.37568  -0.37341  -0.35779
  Beta  occ. eigenvalues --   -0.35117  -0.34237  -0.33413  -0.32215  -0.31928
  Beta  occ. eigenvalues --   -0.31368  -0.30385  -0.29817  -0.29400  -0.28397
  Beta  occ. eigenvalues --   -0.27751  -0.27355  -0.26553  -0.24988  -0.24380
  Beta  occ. eigenvalues --   -0.23020  -0.22248  -0.22092  -0.19505  -0.18120
  Beta  occ. eigenvalues --   -0.17478  -0.13692  -0.13244  -0.12041  -0.10586
  Beta virt. eigenvalues --    0.07101   0.07713   0.08431   0.08715   0.09071
  Beta virt. eigenvalues --    0.09515   0.10101   0.10838   0.10917   0.11249
  Beta virt. eigenvalues --    0.11736   0.12039   0.12191   0.12951   0.13121

 Mulliken charges and spin densities:
               1          2
     1  C   -0.358902  -0.025644
     2  C    1.012572   0.072343
     3  C    0.726157  -0.128403
     4  C   -1.247783   0.272960
     5  N   -0.054975   0.073797
     6  C    0.067522   0.127140
     7  C   -1.266218  -0.062804
     8  N    0.159837   0.039501
     9  C   -0.379976   0.111660
    10  N    0.003603   0.013687
    11  C    0.044291  -0.331294
    12  C   -0.180740   0.560436
    13  C   -0.376515  -0.350562
    14  C   -0.084002  -0.521546
    15  C    0.252120  -0.706217
    16  N   -0.256834   0.158570
    17  N    0.264291   0.068330
    18  N   -0.312939   0.190459
    19  H    0.156041   0.007444
    20  H    0.122671  -0.001148
    21  H    0.120830   0.045654
    22  H    0.152771  -0.005697
    23  H    0.093284   0.002819
    24  H    0.160375  -0.018913
    25  H   -0.168897   0.376707
    26  H    0.203032  -0.027590
    27  H    0.024385   0.117156
    28  H    0.111211   0.012053
    29  H    0.166245   0.005444
    30  H   -0.107422   0.233689
    31  H    0.046243   0.077895
    32  H    0.007461   0.126100
    33  H    0.165122   0.016751
    34  H   -0.264860   0.469223
 Sum of Mulliken charges =  -1.00000   1.00000

 Dipole moment (field-independent basis, Debye):
    X=              1.6410    Y=             -2.0383    Z=              0.2750  Tot=              2.6312
 Quadrupole moment (field-independent basis, Debye-Ang):
   XX=           -148.2410   YY=           -143.4660   ZZ=           -131.0639
   XY=             -1.5506   XZ=             -2.4783   YZ=             -8.4971

 Summary of Natural Population Analysis:

                                       Natural Population
                Natural  -----------------------------------------------
    Atom  No    Charge         Core      Valence    Rydberg      Total
 -----------------------------------------------------------------------
      C    1   -0.29404      0.99964     2.28989    0.00450     3.29404
      C    2    0.03314      0.99948     1.95766    0.00972     2.96686
      C    3    0.04084      0.99939     1.94707    0.01269     2.95916
      C    4    0.18009      0.99946     1.80537    0.01508     2.81991
      N    5   -0.23107      0.99967     2.71994    0.01146     3.73107
      C    6    0.03903      0.99962     1.94737    0.01398     2.96097
      C    7   -0.14888      0.99953     2.14203    0.00731     3.14888
      N    8   -0.23066      0.99958     2.72104    0.01004     3.73066
      C    9    0.26364      0.99961     1.71972    0.01703     2.73636
      N   10   -0.27209      0.99967     2.76416    0.00827     3.77209
      C   11   -0.21594      0.99958     2.20609    0.01028     3.21594
      C   12   -0.10828      0.99962     2.10034    0.00833     3.10828
      C   13   -0.28850      0.99965     2.28301    0.00584     3.28850
      C   14   -0.28324      0.99965     2.27818    0.00541     3.28324
      C   15    0.00749      0.99959     1.97799    0.01492     2.99251
      N   16   -0.22204      0.99971     2.70829    0.01404     3.72204
      N   17    0.13634      0.99970     2.34805    0.01591     3.36366
      N   18    0.00215      0.99982     2.48530    0.01273     3.49785
      H   19    0.10784      0.00000     0.39129    0.00087     0.39216
      H   20    0.09424      0.00000     0.40499    0.00077     0.40576
      H   21    0.10699      0.00000     0.39177    0.00124     0.39301
      H   22    0.08223      0.00000     0.41675    0.00103     0.41777
      H   23    0.09458      0.00000     0.40453    0.00089     0.40542
      H   24    0.10495      0.00000     0.39360    0.00145     0.39505
      H   25    0.11129      0.00000     0.38704    0.00167     0.38871
      H   26    0.09875      0.00000     0.39941    0.00184     0.40125
      H   27    0.10073      0.00000     0.39831    0.00096     0.39927
      H   28    0.09330      0.00000     0.40602    0.00068     0.40670
      H   29    0.10688      0.00000     0.39238    0.00075     0.39312
      H   30    0.09828      0.00000     0.40093    0.00080     0.40172
      H   31    0.09516      0.00000     0.40415    0.00069     0.40484
      H   32    0.09606      0.00000     0.40307    0.00087     0.40394
      H   33    0.10402      0.00000     0.39401    0.00197     0.39598
      H   34    0.09675      0.00000     0.40184    0.00140     0.40325
 =======================================================================
   * Total *    0.00000     17.99298    46.79158    0.21544    65.00000

 Normal termination of Gaussian 16 at Fri Dec 11 21:59:40 2020.
