 Gaussian 16, Revision A.03,

 -----------------------------------------------------------
 # opt freq B3LYP/6-31G(d) empiricaldispersion=gd3bj scf=xqc
 -----------------------------------------------------------

 ------------------------------
 CID_89092071_JID_1283_neutraal
 ------------------------------
 Symbolic Z-matrix:
 Charge =  0 Multiplicity = 1

 SCF Done:  E(RB3LYP) =  -464.594182092     A.U. after   15 cycles
 SCF Done:  E(RB3LYP) =  -464.631229474     A.U. after   13 cycles
 SCF Done:  E(RB3LYP) =  -464.646266783     A.U. after   14 cycles
 SCF Done:  E(RB3LYP) =  -464.650304479     A.U. after   13 cycles
 SCF Done:  E(RB3LYP) =  -464.650603711     A.U. after   12 cycles
 SCF Done:  E(RB3LYP) =  -464.649156348     A.U. after   12 cycles
 SCF Done:  E(RB3LYP) =  -464.650660863     A.U. after   12 cycles
 SCF Done:  E(RB3LYP) =  -464.651292959     A.U. after   12 cycles
 SCF Done:  E(RB3LYP) =  -464.651468226     A.U. after   11 cycles
 SCF Done:  E(RB3LYP) =  -464.651569169     A.U. after   11 cycles
 SCF Done:  E(RB3LYP) =  -464.651643263     A.U. after    7 cycles
 SCF Done:  E(RB3LYP) =  -464.651643318     A.U. after    7 cycles
 SCF Done:  E(RB3LYP) =  -464.651643357     A.U. after    7 cycles
 SCF Done:  E(RB3LYP) =  -464.651643383     A.U. after    7 cycles
 SCF Done:  E(RB3LYP) =  -464.651643397     A.U. after    7 cycles
 Optimization completed.
    -- Stationary point found.
 Normal termination of Gaussian 16 at Tue Dec  8 19:42:39 2020.

 --------------------------------------------------------------------
 #N Geom=AllCheck Guess=TCheck SCRF=Check GenChk RB3LYP/6-31G(d) Freq
 --------------------------------------------------------------------

 Structure from the checkpoint file:  "JID_1283.chk"
 ------------------------------
 CID_89092071_JID_1283_neutraal
 ------------------------------
 Charge =  0 Multiplicity = 1

 SCF Done:  E(RB3LYP) =  -464.651643397     A.U. after    1 cycles

  Exact polarizability: 174.561 -18.467 112.026  -7.494  -1.816  75.689
 Approx polarizability: 246.097 -33.934 174.421 -15.663   0.322 108.612

                      1                      2                      3
                      A                      A                      A
 Frequencies --     38.0970                48.7596                59.0106
 Red. masses --      3.7763                 3.2037                 3.4207
 Frc consts  --      0.0032                 0.0045                 0.0070
 IR Inten    --      1.6843                 0.0740                 0.2920

                      4                      5                      6
                      A                      A                      A
 Frequencies --    110.8494               132.0643               145.8145
 Red. masses --      2.6299                 1.0770                 2.6950
 Frc consts  --      0.0190                 0.0111                 0.0338
 IR Inten    --      0.4968                 0.4999                 0.6456

                      7                      8                      9
                      A                      A                      A
 Frequencies --    161.2268               200.1128               236.7060
 Red. masses --      1.4113                 2.8174                 2.1108
 Frc consts  --      0.0216                 0.0665                 0.0697
 IR Inten    --      1.6475                 0.5172                 1.4157

                     10                     11                     12
                      A                      A                      A
 Frequencies --    256.7306               324.7990               351.4724
 Red. masses --      3.0160                 2.2094                 1.4582
 Frc consts  --      0.1171                 0.1373                 0.1061
 IR Inten    --      0.6329                20.0432                94.9931

                     13                     14                     15
                      A                      A                      A
 Frequencies --    364.9581               387.9527               436.8031
 Red. masses --      2.4161                 2.5332                 2.6533
 Frc consts  --      0.1896                 0.2246                 0.2983
 IR Inten    --      2.8576                16.6594                 9.7792

                     16                     17                     18
                      A                      A                      A
 Frequencies --    450.7013               467.6012               548.8896
 Red. masses --      2.4200                 2.3494                 3.4602
 Frc consts  --      0.2896                 0.3027                 0.6142
 IR Inten    --     22.5876                 5.7267                 5.8205

                     19                     20                     21
                      A                      A                      A
 Frequencies --    576.1471               654.2154               692.4040
 Red. masses --      2.8433                 2.1228                 3.8052
 Frc consts  --      0.5561                 0.5353                 1.0749
 IR Inten    --      7.9995                 0.9927                 5.1605

                     22                     23                     24
                      A                      A                      A
 Frequencies --    751.8759               799.8660               871.7776
 Red. masses --      3.7799                 1.5243                 1.3165
 Frc consts  --      1.2590                 0.5746                 0.5895
 IR Inten    --      3.7891                19.0927                48.9750

                     25                     26                     27
                      A                      A                      A
 Frequencies --    909.6950               930.6498               955.9321
 Red. masses --      2.3980                 1.2321                 1.4640
 Frc consts  --      1.1692                 0.6287                 0.7882
 IR Inten    --     10.2139                 9.4103                23.0787

                     28                     29                     30
                      A                      A                      A
 Frequencies --   1000.4228              1017.3050              1027.5316
 Red. masses --      1.2358                 1.5107                 1.4940
 Frc consts  --      0.7287                 0.9212                 0.9294
 IR Inten    --      2.9976                 5.2295                 0.1166

                     31                     32                     33
                      A                      A                      A
 Frequencies --   1036.4703              1048.0176              1074.9336
 Red. masses --      4.7683                 1.8092                 1.8145
 Frc consts  --      3.0181                 1.1708                 1.2353
 IR Inten    --     83.4388                10.0920                10.0536

                     34                     35                     36
                      A                      A                      A
 Frequencies --   1089.3651              1122.3844              1154.5767
 Red. masses --      1.7736                 2.5188                 1.7947
 Frc consts  --      1.2401                 1.8695                 1.4096
 IR Inten    --      2.5758                21.3728                 0.5031

                     37                     38                     39
                      A                      A                      A
 Frequencies --   1184.6978              1226.3687              1272.6459
 Red. masses --      2.0256                 1.3406                 1.3256
 Frc consts  --      1.6750                 1.1879                 1.2650
 IR Inten    --      3.7330                 9.9693                 0.8058

                     40                     41                     42
                      A                      A                      A
 Frequencies --   1292.4013              1340.0595              1379.6498
 Red. masses --      2.5703                 1.4646                 1.2411
 Frc consts  --      2.5295                 1.5496                 1.3919
 IR Inten    --     10.8422                 3.4547                 5.6666

                     43                     44                     45
                      A                      A                      A
 Frequencies --   1424.5737              1439.0872              1447.8600
 Red. masses --      1.2438                 1.2293                 1.2646
 Frc consts  --      1.4871                 1.5000                 1.5620
 IR Inten    --     56.1850                 5.8260                 6.9056

                     46                     47                     48
                      A                      A                      A
 Frequencies --   1456.2443              1503.9358              1512.0726
 Red. masses --      1.3411                 1.6043                 1.0739
 Frc consts  --      1.6756                 2.1380                 1.4467
 IR Inten    --      0.8566                 0.5248                13.3941

                     49                     50                     51
                      A                      A                      A
 Frequencies --   1513.2037              1515.1259              1523.6593
 Red. masses --      1.0745                 1.0492                 1.0525
 Frc consts  --      1.4496                 1.4191                 1.4396
 IR Inten    --      3.1692                 0.7405                 8.9183

                     52                     53                     54
                      A                      A                      A
 Frequencies --   1543.5359              1686.3230              1713.7571
 Red. masses --      1.0910                 6.7447                 6.3857
 Frc consts  --      1.5315                11.3004                11.0498
 IR Inten    --      3.7181                 2.3753                 0.5583

                     55                     56                     57
                      A                      A                      A
 Frequencies --   2055.8293              3039.6043              3042.8627
 Red. masses --     10.2103                 1.0418                 1.0459
 Frc consts  --     25.4252                 5.6714                 5.7057
 IR Inten    --     77.0033                25.4745                30.0262

                     58                     59                     60
                      A                      A                      A
 Frequencies --   3057.8870              3082.6543              3093.7656
 Red. masses --      1.0571                 1.0997                 1.0982
 Frc consts  --      5.8239                 6.1572                 6.1929
 IR Inten    --     63.7579                18.7860                20.3351

                     61                     62                     63
                      A                      A                      A
 Frequencies --   3095.8917              3133.3939              3133.9044
 Red. masses --      1.1033                 1.0847                 1.0584
 Frc consts  --      6.2302                 6.2746                 6.1245
 IR Inten    --     46.2327                20.3698                12.0740

                     64                     65                     66
                      A                      A                      A
 Frequencies --   3159.2101              3165.5607              3171.3780
 Red. masses --      1.0942                 1.0869                 1.0970
 Frc consts  --      6.4344                 6.4169                 6.5007
 IR Inten    --     37.3907                 1.0459                 9.1720

                     67                     68                     69
                      A                      A                      A
 Frequencies --   3181.5323              3200.1244              3730.7035
 Red. masses --      1.0914                 1.1150                 1.0661
 Frc consts  --      6.5091                 6.7275                 8.7427
 IR Inten    --     23.6575                 4.6389                 5.4019

 - Thermochemistry -
 -------------------
 Temperature   298.150 Kelvin.  Pressure   1.00000 Atm.
 Atom     1 has atomic number  6 and mass  12.00000

 Molecular mass:   150.10447 amu.
 Principal axes and moments of inertia in atomic units:
                           1         2         3
     Eigenvalues --  1198.230962942.554683584.08138
           X            0.99980  -0.01970   0.00344
           Y            0.01980   0.99927  -0.03274
           Z           -0.00279   0.03281   0.99946
 This molecule is an asymmetric top.
 Rotational symmetry number  1.
 Warning -- assumption of classical behavior for rotation
           may cause significant error
 Rotational temperatures (Kelvin)      0.07228     0.02943     0.02417
 Rotational constants (GHZ):           1.50617     0.61332     0.50354
 Zero-point vibrational energy     560783.2 (Joules/Mol)
                                  134.03039 (Kcal/Mol)
 Warning -- explicit consideration of  19 degrees of freedom as
           vibrations may cause significant error
 Vibrational temperatures:     54.81    70.15    84.90   159.49   190.01
          (Kelvin)            209.79   231.97   287.92   340.57   369.38
                              467.31   505.69   525.09   558.18   628.46
                              648.46   672.77   789.73   828.95   941.27
                              996.21  1081.78  1150.83  1254.29  1308.85
                             1339.00  1375.37  1439.39  1463.67  1478.39
                             1491.25  1507.86  1546.59  1567.35  1614.86
                             1661.18  1704.52  1764.47  1831.05  1859.48
                             1928.05  1985.01  2049.64  2070.53  2083.15
                             2095.21  2163.83  2175.54  2177.16  2179.93
                             2192.21  2220.80  2426.24  2465.71  2957.88
                             4373.31  4378.00  4399.62  4435.25  4451.24
                             4454.30  4508.25  4508.99  4545.40  4554.54
                             4562.91  4577.52  4604.27  5367.65

 Zero-point correction=                           0.213591 (Hartree/Particle)
 Thermal correction to Energy=                    0.226731
 Thermal correction to Enthalpy=                  0.227675
 Thermal correction to Gibbs Free Energy=         0.173394
 Sum of electronic and zero-point Energies=           -464.438052
 Sum of electronic and thermal Energies=              -464.424913
 Sum of electronic and thermal Enthalpies=            -464.423969
 Sum of electronic and thermal Free Energies=         -464.478250

                     E (Thermal)             CV                S
                      KCal/Mol        Cal/Mol-Kelvin    Cal/Mol-Kelvin
 Total                  142.276             47.198            114.244
 Electronic               0.000              0.000              0.000
 Translational            0.889              2.981             40.929
 Rotational               0.889              2.981             30.914
 Vibrational            140.498             41.236             42.402
 Vibration     1          0.594              1.982              5.356
 Vibration     2          0.595              1.978              4.867
 Vibration     3          0.596              1.974              4.490
 Vibration     4          0.607              1.940              3.254
 Vibration     5          0.612              1.921              2.916
 Vibration     6          0.617              1.907              2.726
 Vibration     7          0.622              1.890              2.535
 Vibration     8          0.638              1.840              2.132
 Vibration     9          0.656              1.785              1.828
 Vibration    10          0.666              1.751              1.684
 Vibration    11          0.709              1.626              1.286
 Vibration    12          0.728              1.572              1.160
 Vibration    13          0.738              1.544              1.101
 Vibration    14          0.756              1.496              1.008
 Vibration    15          0.797              1.390              0.837
 Vibration    16          0.809              1.359              0.794
 Vibration    17          0.825              1.322              0.744
 Vibration    18          0.904              1.142              0.546
 Vibration    19          0.933              1.083              0.493

 Optimization completed.
    -- Stationary point found.
 Normal termination of Gaussian 16 at Tue Dec  8 19:47:52 2020.

 ----------------------------------------------------------------------
 # B3LYP/6-311++G(d,p) empiricaldispersion=gd3bj scf=xqc pop=npa geom=c
 heck
 ----------------------------------------------------------------------

 --------------------------------------
 CID_89092071_JID_1283_Energie_neutraal
 --------------------------------------
 Structure from the checkpoint file:  "JID_1283.chk"
 Charge =  0 Multiplicity = 1

 SCF Done:  E(RB3LYP) =  -464.793771441     A.U. after   14 cycles
 Normal termination of Gaussian 16 at Tue Dec  8 19:50:05 2020.

 ----------------------------------------------------------------------
 # B3LYP/6-311++G(d,p) empiricaldispersion=gd3bj scf=xqc pop=npa geom=c
 heck
 ----------------------------------------------------------------------

 ------------------------------------
 CID_89092071_JID_1283_Energie_kation
 ------------------------------------
 Structure from the checkpoint file:  "JID_1283.chk"
 Charge =  1 Multiplicity = 2

 SCF Done:  E(UB3LYP) =  -464.504060171     A.U. after   23 cycles
 Normal termination of Gaussian 16 at Tue Dec  8 19:55:19 2020.
 Gaussian 16:  ES64L-G16RevA.03 25-Dec-2016

 ----------------------------------------------------------------------
 # B3LYP/6-311++G(d,p) empiricaldispersion=gd3bj scf=xqc pop=npa geom=c
 heck
 ----------------------------------------------------------------------

 -----------------------------------
 CID_89092071_JID_1283_Energie_anion
 -----------------------------------
 Structure from the checkpoint file:  "JID_1283.chk"
 Charge = -1 Multiplicity = 2

                         Standard orientation:
 ---------------------------------------------------------------------
 Center     Atomic      Atomic             Coordinates (Angstroms)
 Number     Number       Type             X           Y           Z
 ---------------------------------------------------------------------
      1          6           0       -0.657110   -1.011578    1.467102
      2          6           0       -1.406731   -0.170477    0.462227
      3          6           0       -1.012586    1.064607    0.071097
      4          6           0       -1.798053    1.979472   -0.847946
      5          6           0        0.238366    1.701079    0.537406
      6          6           0        1.494211    1.235083    0.384580
      7          6           0        1.854164   -0.010353   -0.283766
      8          6           0        3.084207   -0.474590   -0.355044
      9          6           0        4.304477   -0.931420   -0.420697
     10          6           0       -2.637467   -0.866181   -0.073914
     11          8           0       -2.290467   -2.068495   -0.773936
     12          1           0        0.149309   -0.462883    1.953609
     13          1           0       -0.234223   -1.906185    0.996233
     14          1           0       -1.353634   -1.370432    2.236667
     15          1           0       -1.938656    2.956649   -0.367159
     16          1           0       -1.238340    2.169406   -1.772779
     17          1           0       -2.785292    1.602443   -1.118060
     18          1           0        0.124003    2.695301    0.972004
     19          1           0        2.322910    1.832186    0.758829
     20          1           0        1.049782   -0.574208   -0.753305
     21          1           0        4.975760   -0.656669   -1.233366
     22          1           0        4.703433   -1.608303    0.333710
     23          1           0       -3.269010   -1.202438    0.756208
     24          1           0       -3.249690   -0.217577   -0.709614
     25          1           0       -1.713491   -1.803193   -1.507761
 ---------------------------------------------------------------------

 SCF Done:  E(UB3LYP) =  -464.784264882     A.U. after   33 cycles
 SCF Done:  E(UB3LYP) =  -464.784264882     a.u. after    1 cycles

 The electronic state is 2-A.
 Alpha  occ. eigenvalues --  -18.99180 -10.08728 -10.04503 -10.04078 -10.04052
 Alpha  occ. eigenvalues --  -10.03555 -10.03433 -10.03247 -10.02717 -10.02460
 Alpha  occ. eigenvalues --  -10.01627  -0.89151  -0.69549  -0.66400  -0.62413
 Alpha  occ. eigenvalues --   -0.60604  -0.55974  -0.54731  -0.50933  -0.44564
 Alpha  occ. eigenvalues --   -0.39577  -0.37123  -0.36538  -0.34474  -0.32924
 Alpha  occ. eigenvalues --   -0.31738  -0.31266  -0.30145  -0.29373  -0.27401
 Alpha  occ. eigenvalues --   -0.26798  -0.25752  -0.24575  -0.23332  -0.22052
 Alpha  occ. eigenvalues --   -0.19702  -0.17943  -0.14845  -0.13682  -0.11894
 Alpha  occ. eigenvalues --   -0.08344   0.05734
 Alpha virt. eigenvalues --    0.08219   0.08989   0.09585   0.09617   0.10584
 Alpha virt. eigenvalues --    0.11274   0.11599   0.12158   0.12907   0.13011
 Alpha virt. eigenvalues --    0.14050   0.14403   0.14802   0.15476   0.15816

  Beta  occ. eigenvalues --  -18.99092 -10.08724 -10.04500 -10.04139 -10.03994
  Beta  occ. eigenvalues --  -10.03488 -10.03151 -10.03098 -10.02722 -10.02275
  Beta  occ. eigenvalues --  -10.01426  -0.88932  -0.69210  -0.65948  -0.62028
  Beta  occ. eigenvalues --   -0.60393  -0.55830  -0.54647  -0.50815  -0.44098
  Beta  occ. eigenvalues --   -0.39241  -0.36957  -0.36386  -0.34248  -0.32711
  Beta  occ. eigenvalues --   -0.31542  -0.30751  -0.30044  -0.29247  -0.27302
  Beta  occ. eigenvalues --   -0.26715  -0.25590  -0.24507  -0.23197  -0.21897
  Beta  occ. eigenvalues --   -0.19548  -0.16926  -0.14725  -0.13495  -0.11056
  Beta  occ. eigenvalues --   -0.07039
  Beta virt. eigenvalues --    0.08241   0.09086   0.09347   0.09814   0.10397
  Beta virt. eigenvalues --    0.10865   0.11584   0.12074   0.12221   0.12893
  Beta virt. eigenvalues --    0.13240   0.14058   0.14585   0.14785   0.15682

 Mulliken charges and spin densities:
               1          2
     1  C   -0.580322   0.161233
     2  C   -0.369659   0.827281
     3  C    0.627610  -0.376932
     4  C   -0.424613  -0.084118
     5  C   -0.522764   0.152208
     6  C   -0.529108   0.087802
     7  C   -0.095568  -0.122301
     8  C    0.519414   0.129411
     9  C   -0.517496  -0.037383
    10  C    0.342846  -0.947881
    11  O   -0.221357   0.019469
    12  H    0.136795   0.039900
    13  H    0.195646  -0.018288
    14  H    0.017875   0.098507
    15  H    0.135074  -0.003106
    16  H    0.027679   0.130865
    17  H    0.154983  -0.081281
    18  H    0.147630  -0.008750
    19  H    0.111778  -0.009681
    20  H    0.061575   0.086033
    21  H   -0.113737   0.231946
    22  H    0.104824   0.004777
    23  H    0.017367   0.104675
    24  H   -0.111524   0.268360
    25  H   -0.114948   0.347257
 Sum of Mulliken charges =  -1.00000   1.00000

 Dipole moment (field-independent basis, Debye):
    X=             -1.6065    Y=              2.6862    Z=              2.0350  Tot=              3.7333
 Quadrupole moment (field-independent basis, Debye-Ang):
   XX=           -113.6978   YY=            -93.0623   ZZ=            -87.1733
   XY=             -7.7775   XZ=              1.2627   YZ=             -3.5060

 Summary of Natural Population Analysis:

                                       Natural Population
                Natural  -----------------------------------------------
    Atom  No    Charge         Core      Valence    Rydberg      Total
 -----------------------------------------------------------------------
      C    1   -0.30045      0.99963     2.29559    0.00524     3.30045
      C    2   -0.00641      0.99944     1.99753    0.00945     3.00641
      C    3   -0.01845      0.99943     2.00862    0.01040     3.01845
      C    4   -0.28948      0.99963     2.28433    0.00552     3.28948
      C    5   -0.07861      0.99951     2.06782    0.01127     3.07861
      C    6   -0.06910      0.99951     2.05915    0.01044     3.06910
      C    7   -0.17386      0.99946     2.16527    0.00913     3.17386
      C    8    0.12364      0.99953     1.86831    0.00852     2.87636
      C    9   -0.27145      0.99952     2.26513    0.00681     3.27145
      C   10   -0.01917      0.99954     2.00599    0.01365     3.01917
      O   11   -0.37082      0.99990     3.36356    0.00735     4.37082
      H   12    0.10994      0.00000     0.38921    0.00086     0.39006
      H   13    0.10547      0.00000     0.39319    0.00134     0.39453
      H   14    0.09282      0.00000     0.40595    0.00123     0.40718
      H   15    0.09524      0.00000     0.40369    0.00106     0.40476
      H   16    0.10162      0.00000     0.39734    0.00104     0.39838
      H   17    0.09433      0.00000     0.40469    0.00098     0.40567
      H   18    0.08738      0.00000     0.41147    0.00115     0.41262
      H   19    0.08866      0.00000     0.41014    0.00120     0.41134
      H   20    0.11322      0.00000     0.38483    0.00194     0.38678
      H   21    0.10039      0.00000     0.39750    0.00211     0.39961
      H   22    0.09869      0.00000     0.39994    0.00137     0.40131
      H   23    0.08183      0.00000     0.41675    0.00141     0.41817
      H   24    0.07640      0.00000     0.42234    0.00126     0.42360
      H   25    0.22816      0.00000     0.26538    0.00646     0.27184
 =======================================================================
   * Total *   -0.00000     10.99510    29.88372    0.12118    41.00000

 Normal termination of Gaussian 16 at Tue Dec  8 20:03:02 2020.
