 Gaussian 16, Revision A.03,

 -----------------------------------------------------------
 # opt freq B3LYP/6-31G(d) empiricaldispersion=gd3bj scf=xqc
 -----------------------------------------------------------

 -----------------------------
 CID_88405311_JID_906_neutraal
 -----------------------------
 Symbolic Z-matrix:
 Charge =  0 Multiplicity = 1

 SCF Done:  E(RB3LYP) =  -859.761853973     A.U. after   14 cycles
 SCF Done:  E(RB3LYP) =  -859.764139848     A.U. after   12 cycles
 SCF Done:  E(RB3LYP) =  -859.763657407     A.U. after   13 cycles
 SCF Done:  E(RB3LYP) =  -859.764639658     A.U. after   12 cycles
 SCF Done:  E(RB3LYP) =  -859.764889678     A.U. after   11 cycles
 SCF Done:  E(RB3LYP) =  -859.764936630     A.U. after   11 cycles
 SCF Done:  E(RB3LYP) =  -859.764948541     A.U. after   10 cycles
 SCF Done:  E(RB3LYP) =  -859.764952135     A.U. after    9 cycles
 SCF Done:  E(RB3LYP) =  -859.764953632     A.U. after    8 cycles
 SCF Done:  E(RB3LYP) =  -859.764954286     A.U. after    8 cycles
 SCF Done:  E(RB3LYP) =  -859.764954442     A.U. after    7 cycles
 Optimization completed.
    -- Stationary point found.
 Normal termination of Gaussian 16 at Tue Dec  8 13:28:39 2020.

 --------------------------------------------------------------------
 #N Geom=AllCheck Guess=TCheck SCRF=Check GenChk RB3LYP/6-31G(d) Freq
 --------------------------------------------------------------------

 Structure from the checkpoint file:  "JID_906.chk"
 -----------------------------
 CID_88405311_JID_906_neutraal
 -----------------------------
 Charge =  0 Multiplicity = 1

 SCF Done:  E(RB3LYP) =  -859.764954442     A.U. after    1 cycles

  Exact polarizability:  94.295  -3.708  85.970  -0.872   0.154  82.264
 Approx polarizability: 119.845  -6.110 121.997   0.963   2.652 133.469

                      1                      2                      3
                      A                      A                      A
 Frequencies --     37.1381                66.8760                70.4390
 Red. masses --      5.3936                 3.7454                 9.3723
 Frc consts  --      0.0044                 0.0099                 0.0274
 IR Inten    --      0.2899                 2.1793                 1.1242

                      4                      5                      6
                      A                      A                      A
 Frequencies --    121.3383               165.8552               199.2532
 Red. masses --      5.5424                 3.7349                 3.1760
 Frc consts  --      0.0481                 0.0605                 0.0743
 IR Inten    --      0.7441                 1.6973                 1.9196

                      7                      8                      9
                      A                      A                      A
 Frequencies --    231.5200               243.8594               259.1387
 Red. masses --      3.6407                 1.5292                 1.1957
 Frc consts  --      0.1150                 0.0536                 0.0473
 IR Inten    --      7.5669                14.9034                 2.1496

                     10                     11                     12
                      A                      A                      A
 Frequencies --    300.1599               310.9711               357.2386
 Red. masses --      1.1165                 1.9884                 3.5677
 Frc consts  --      0.0593                 0.1133                 0.2683
 IR Inten    --     98.4063                 2.5765                 5.8720

                     13                     14                     15
                      A                      A                      A
 Frequencies --    383.7217               431.1762               478.8626
 Red. masses --      2.0556                 2.8441                 3.6851
 Frc consts  --      0.1783                 0.3115                 0.4979
 IR Inten    --      4.7464                 7.2202                24.0155

                     16                     17                     18
                      A                      A                      A
 Frequencies --    570.2365               596.8962               630.2208
 Red. masses --      1.9446                 2.1366                 2.3639
 Frc consts  --      0.3726                 0.4485                 0.5532
 IR Inten    --     22.9462                 8.0099                58.9431

                     19                     20                     21
                      A                      A                      A
 Frequencies --    694.5490               771.5590               795.4407
 Red. masses --      2.5881                 3.0025                 2.7915
 Frc consts  --      0.7356                 1.0531                 1.0407
 IR Inten    --     77.6013                15.5486                 2.9992

                     22                     23                     24
                      A                      A                      A
 Frequencies --    834.0018               881.6162               907.7797
 Red. masses --      2.1551                 1.9302                 2.1029
 Frc consts  --      0.8832                 0.8839                 1.0210
 IR Inten    --      9.0984                15.0752                 8.4608

                     25                     26                     27
                      A                      A                      A
 Frequencies --    957.2486              1005.5553              1020.1768
 Red. masses --      1.9501                 1.8013                 1.8390
 Frc consts  --      1.0528                 1.0731                 1.1277
 IR Inten    --     10.3268                 8.8991                 6.8664

                     28                     29                     30
                      A                      A                      A
 Frequencies --   1040.8511              1108.5703              1133.7159
 Red. masses --      1.7765                 2.0770                 2.1368
 Frc consts  --      1.1339                 1.5038                 1.6181
 IR Inten    --     13.3502                 3.3355                75.0943

                     31                     32                     33
                      A                      A                      A
 Frequencies --   1154.8325              1185.7939              1234.2569
 Red. masses --      2.1948                 2.2753                 1.1325
 Frc consts  --      1.7245                 1.8850                 1.0165
 IR Inten    --     46.5617               135.4083                13.8394

                     34                     35                     36
                      A                      A                      A
 Frequencies --   1252.3351              1261.7175              1308.9569
 Red. masses --      1.2735                 1.2554                 1.2649
 Frc consts  --      1.1767                 1.1774                 1.2769
 IR Inten    --     13.8214                82.3420                 5.2375

                     37                     38                     39
                      A                      A                      A
 Frequencies --   1342.1678              1389.5558              1409.0826
 Red. masses --      1.2712                 1.3962                 1.3082
 Frc consts  --      1.3492                 1.5883                 1.5304
 IR Inten    --      0.7584                11.0138                11.7469

                     40                     41                     42
                      A                      A                      A
 Frequencies --   1412.4994              1435.4429              1439.0870
 Red. masses --      1.4964                 1.7575                 1.4149
 Frc consts  --      1.7590                 2.1336                 1.7264
 IR Inten    --     11.1174                54.2605                17.9026

                     43                     44                     45
                      A                      A                      A
 Frequencies --   1448.0272              1506.3009              1514.2073
 Red. masses --      1.5199                 1.0797                 1.0804
 Frc consts  --      1.8776                 1.4434                 1.4596
 IR Inten    --     16.4565                 6.7985                10.9481

                     46                     47                     48
                      A                      A                      A
 Frequencies --   1526.7516              1535.7425              1833.3854
 Red. masses --      1.0668                 1.0703                 9.4300
 Frc consts  --      1.4650                 1.4873                18.6755
 IR Inten    --      5.1146                 1.2210               230.0649

                     49                     50                     51
                      A                      A                      A
 Frequencies --   2672.4900              2982.4086              3045.6016
 Red. masses --      1.0384                 1.0841                 1.0387
 Frc consts  --      4.3695                 5.6814                 5.6766
 IR Inten    --     12.9989                67.1192                19.8711

                     52                     53                     54
                      A                      A                      A
 Frequencies --   3057.3857              3071.3515              3103.3538
 Red. masses --      1.0656                 1.0609                 1.1017
 Frc consts  --      5.8686                 5.8962                 6.2515
 IR Inten    --     25.8402                17.5487                 7.9787

                     55                     56                     57
                      A                      A                      A
 Frequencies --   3107.2806              3118.1355              3132.2625
 Red. masses --      1.0995                 1.0996                 1.1016
 Frc consts  --      6.2548                 6.2990                 6.3675
 IR Inten    --     28.9780                27.9258                31.0745

                     58                     59                     60
                      A                      A                      A
 Frequencies --   3162.3126              3688.7843              3744.8758
 Red. masses --      1.0855                 1.0639                 1.0662
 Frc consts  --      6.3955                 8.5293                 8.8100
 IR Inten    --      0.6672                50.0505                10.9386

 - Thermochemistry -
 -------------------
 Temperature   298.150 Kelvin.  Pressure   1.00000 Atm.
 Atom     1 has atomic number  6 and mass  12.00000

 Molecular mass:   164.05072 amu.
 Principal axes and moments of inertia in atomic units:
                           1         2         3
     Eigenvalues --  1227.485032355.308692782.90737
           X            0.99964   0.02570   0.00718
           Y           -0.02544   0.99909  -0.03416
           Z           -0.00805   0.03396   0.99939
 This molecule is an asymmetric top.
 Rotational symmetry number  1.
 Warning -- assumption of classical behavior for rotation
           may cause significant error
 Rotational temperatures (Kelvin)      0.07056     0.03677     0.03112
 Rotational constants (GHZ):           1.47028     0.76624     0.64851
 Zero-point vibrational energy     476606.3 (Joules/Mol)
                                  113.91164 (Kcal/Mol)
 Warning -- explicit consideration of  17 degrees of freedom as
           vibrations may cause significant error
 Vibrational temperatures:     53.43    96.22   101.35   174.58   238.63
          (Kelvin)            286.68   333.11   350.86   372.84   431.86
                              447.42   513.99   552.09   620.37   688.98
                              820.44   858.80   906.75   999.30  1110.10
                             1144.46  1199.94  1268.45  1306.09  1377.27
                             1446.77  1467.81  1497.55  1594.99  1631.16
                             1661.55  1706.09  1775.82  1801.83  1815.33
                             1883.30  1931.08  1999.26  2027.36  2032.27
                             2065.28  2070.53  2083.39  2167.23  2178.61
                             2196.66  2209.59  2637.83  3845.12  4291.02
                             4381.94  4398.90  4418.99  4465.03  4470.68
                             4486.30  4506.63  4549.86  5307.34  5388.04

 Zero-point correction=                           0.181530 (Hartree/Particle)
 Thermal correction to Energy=                    0.193492
 Thermal correction to Enthalpy=                  0.194436
 Thermal correction to Gibbs Free Energy=         0.142926
 Sum of electronic and zero-point Energies=           -859.583425
 Sum of electronic and thermal Energies=              -859.571462
 Sum of electronic and thermal Enthalpies=            -859.570518
 Sum of electronic and thermal Free Energies=         -859.622028

                     E (Thermal)             CV                S
                      KCal/Mol        Cal/Mol-Kelvin    Cal/Mol-Kelvin
 Total                  121.418             43.006            108.412
 Electronic               0.000              0.000              0.000
 Translational            0.889              2.981             41.194
 Rotational               0.889              2.981             30.465
 Vibrational            119.641             37.045             36.753
 Vibration     1          0.594              1.982              5.406
 Vibration     2          0.598              1.970              4.243
 Vibration     3          0.598              1.968              4.141
 Vibration     4          0.609              1.931              3.079
 Vibration     5          0.624              1.884              2.482
 Vibration     6          0.637              1.841              2.140
 Vibration     7          0.653              1.793              1.867
 Vibration     8          0.659              1.773              1.775
 Vibration     9          0.668              1.747              1.668
 Vibration    10          0.693              1.673              1.416
 Vibration    11          0.700              1.653              1.357
 Vibration    12          0.732              1.560              1.134
 Vibration    13          0.753              1.505              1.024
 Vibration    14          0.792              1.402              0.855
 Vibration    15          0.835              1.297              0.713
 Vibration    16          0.926              1.096              0.504
 Vibration    17          0.955              1.038              0.455

 Optimization completed.
    -- Stationary point found.
 Normal termination of Gaussian 16 at Tue Dec  8 13:33:07 2020.

 ----------------------------------------------------------------------
 # B3LYP/6-311++G(d,p) empiricaldispersion=gd3bj scf=xqc pop=npa geom=c
 heck
 ----------------------------------------------------------------------

 -------------------------------------
 CID_88405311_JID_906_Energie_neutraal
 -------------------------------------
 Structure from the checkpoint file:  "JID_906.chk"
 Charge =  0 Multiplicity = 1

 SCF Done:  E(RB3LYP) =  -859.951923536     A.U. after   14 cycles
 Normal termination of Gaussian 16 at Tue Dec  8 13:36:07 2020.

 ----------------------------------------------------------------------
 # B3LYP/6-311++G(d,p) empiricaldispersion=gd3bj scf=xqc pop=npa geom=c
 heck
 ----------------------------------------------------------------------

 -----------------------------------
 CID_88405311_JID_906_Energie_kation
 -----------------------------------
 Structure from the checkpoint file:  "JID_906.chk"
 Charge =  1 Multiplicity = 2

 SCF Done:  E(UB3LYP) =  -859.623638326     A.U. after   22 cycles
 Normal termination of Gaussian 16 at Tue Dec  8 13:40:18 2020.
 Gaussian 16:  ES64L-G16RevA.03 25-Dec-2016

 ----------------------------------------------------------------------
 # B3LYP/6-311++G(d,p) empiricaldispersion=gd3bj scf=xqc pop=npa geom=c
 heck
 ----------------------------------------------------------------------

 ----------------------------------
 CID_88405311_JID_906_Energie_anion
 ----------------------------------
 Structure from the checkpoint file:  "JID_906.chk"
 Charge = -1 Multiplicity = 2

                         Standard orientation:
 ---------------------------------------------------------------------
 Center     Atomic      Atomic             Coordinates (Angstroms)
 Number     Number       Type             X           Y           Z
 ---------------------------------------------------------------------
      1          6           0       -2.926606   -1.024062   -0.568101
      2          6           0       -2.419102    0.259933    0.087600
      3          6           0       -1.448083    0.027890    1.247323
      4          6           0       -0.229920   -0.865744    0.959981
      5          6           0        0.691777   -0.371894   -0.159293
      6          6           0        1.259552    1.003512    0.130195
      7          8           0        1.489500    1.435344    1.240710
      8          8           0        1.516980    1.698651   -0.996413
      9         16           0        2.106928   -1.530651   -0.448373
     10          8           0       -1.737372    1.092005   -0.860355
     11          1           0       -2.105769   -1.588017   -1.022247
     12          1           0       -3.654557   -0.795303   -1.356715
     13          1           0       -3.425209   -1.668517    0.164855
     14          1           0       -3.284882    0.809873    0.492015
     15          1           0       -1.104466    1.005557    1.600100
     16          1           0       -2.011168   -0.425850    2.072695
     17          1           0        0.359077   -0.933238    1.881216
     18          1           0       -0.546657   -1.883395    0.710537
     19          1           0        0.172369   -0.331682   -1.116181
     20          1           0        1.909778    2.543463   -0.707539
     21          1           0        2.591989   -1.466927    0.811139
     22          1           0       -2.329907    1.238643   -1.613667
 ---------------------------------------------------------------------

 SCF Done:  E(UB3LYP) =  -859.940719469     A.U. after   33 cycles
 SCF Done:  E(UB3LYP) =  -859.940719469     a.u. after    1 cycles

 The electronic state is 2-A.
 Alpha  occ. eigenvalues --  -88.74835 -19.06836 -19.01341 -19.00631 -10.20478
 Alpha  occ. eigenvalues --  -10.11265 -10.10882 -10.07014 -10.05780 -10.04759
 Alpha  occ. eigenvalues --   -7.83501  -5.79879  -5.79541  -5.78880  -1.00973
 Alpha  occ. eigenvalues --   -0.91986  -0.90872  -0.72466  -0.67061  -0.61613
 Alpha  occ. eigenvalues --   -0.58221  -0.55018  -0.48736  -0.45050  -0.41569
 Alpha  occ. eigenvalues --   -0.40338  -0.38536  -0.36047  -0.35185  -0.32819
 Alpha  occ. eigenvalues --   -0.32094  -0.30402  -0.29575  -0.28750  -0.27285
 Alpha  occ. eigenvalues --   -0.26443  -0.25078  -0.23638  -0.23239  -0.22035
 Alpha  occ. eigenvalues --   -0.20762  -0.18585  -0.16327  -0.14571   0.04646
 Alpha virt. eigenvalues --    0.06988   0.07532   0.07788   0.08736   0.09469
 Alpha virt. eigenvalues --    0.10560   0.11317   0.11597   0.12346   0.12886
 Alpha virt. eigenvalues --    0.13394   0.14679   0.15033   0.15753   0.16444

  Beta  occ. eigenvalues --  -88.74817 -19.06806 -19.01323 -19.00585 -10.20453
  Beta  occ. eigenvalues --  -10.11232 -10.10860 -10.06998 -10.05766 -10.04703
  Beta  occ. eigenvalues --   -7.83485  -5.79824  -5.79531  -5.78870  -1.00917
  Beta  occ. eigenvalues --   -0.91941  -0.90775  -0.72406  -0.66985  -0.61531
  Beta  occ. eigenvalues --   -0.58120  -0.54934  -0.48643  -0.44971  -0.41514
  Beta  occ. eigenvalues --   -0.40230  -0.38501  -0.35948  -0.35101  -0.32761
  Beta  occ. eigenvalues --   -0.32031  -0.30341  -0.29509  -0.28679  -0.27223
  Beta  occ. eigenvalues --   -0.26387  -0.25018  -0.23583  -0.23161  -0.21953
  Beta  occ. eigenvalues --   -0.20704  -0.18553  -0.16257  -0.14523
  Beta virt. eigenvalues --    0.07175   0.07705   0.08071   0.08525   0.09522
  Beta virt. eigenvalues --    0.10220   0.11180   0.11753   0.11998   0.12666
  Beta virt. eigenvalues --    0.13100   0.13850   0.14912   0.15165   0.15964

 Mulliken charges and spin densities:
               1          2
     1  C    1.861588  -2.498583
     2  C   -0.508997   0.446189
     3  C   -0.451687   0.025257
     4  C    0.372820  -0.872793
     5  C    0.464934   0.169966
     6  C    0.031577  -0.564450
     7  O   -0.296088   0.038411
     8  O   -0.165156   0.066048
     9  S   -0.043530  -0.052947
    10  O   -0.208853  -0.028415
    11  H   -0.203418   0.352133
    12  H   -0.750367   0.897657
    13  H   -0.235145   0.376008
    14  H   -0.669425   0.854091
    15  H    0.290746  -0.079481
    16  H   -0.557610   0.724947
    17  H    0.018099   0.175110
    18  H    0.066227   0.080686
    19  H    0.192822   0.126692
    20  H   -0.051904   0.321136
    21  H   -0.041512   0.064194
    22  H   -0.115121   0.378146
 Sum of Mulliken charges =  -1.00000   1.00000

 Dipole moment (field-independent basis, Debye):
    X=              6.9084    Y=             -0.9337    Z=              1.2877  Tot=              7.0891
 Quadrupole moment (field-independent basis, Debye-Ang):
   XX=           -132.9825   YY=            -98.9795   ZZ=           -102.2150
   XY=             -3.0694   XZ=             -4.0132   YZ=              0.9265

 Summary of Natural Population Analysis:

                                       Natural Population
                Natural  -----------------------------------------------
    Atom  No    Charge         Core      Valence    Rydberg      Total
 -----------------------------------------------------------------------
      C    1   -0.29966      0.99965     2.29371    0.00631     3.29966
      C    2    0.06205      0.99958     1.92355    0.01481     2.93795
      C    3   -0.19812      0.99960     2.18830    0.01022     3.19812
      C    4   -0.19785      0.99960     2.18683    0.01142     3.19785
      C    5   -0.19819      0.99949     2.18676    0.01194     3.19819
      C    6    0.40826      0.99965     1.56378    0.02831     2.59174
      O    7   -0.31407      0.99987     3.30796    0.00624     4.31407
      O    8   -0.33628      0.99987     3.32967    0.00673     4.33628
      S    9   -0.00774      4.99966     2.99393    0.01416     8.00774
      O   10   -0.38105      0.99989     3.37360    0.00756     4.38105
      H   11    0.09650      0.00000     0.40203    0.00147     0.40350
      H   12    0.10372      0.00000     0.39312    0.00316     0.39628
      H   13    0.10343      0.00000     0.39462    0.00195     0.39657
      H   14    0.07996      0.00000     0.41750    0.00254     0.42004
      H   15    0.10642      0.00000     0.39205    0.00153     0.39358
      H   16    0.10425      0.00000     0.39435    0.00139     0.39575
      H   17    0.10456      0.00000     0.39420    0.00124     0.39544
      H   18    0.10416      0.00000     0.39457    0.00127     0.39584
      H   19    0.12824      0.00000     0.36993    0.00183     0.37176
      H   20    0.23776      0.00000     0.25743    0.00481     0.26224
      H   21    0.05780      0.00000     0.43936    0.00284     0.44220
      H   22    0.23585      0.00000     0.25662    0.00754     0.26415
 =======================================================================
   * Total *   -0.00000     13.99685    29.85388    0.14927    44.00000

 Normal termination of Gaussian 16 at Tue Dec  8 13:47:06 2020.
