 Gaussian 16, Revision A.03,

 -----------------------------------------------------------
 # opt freq B3LYP/6-31G(d) empiricaldispersion=gd3bj scf=xqc
 -----------------------------------------------------------

 ------------------------------
 CID_63766199_JID_2611_neutraal
 ------------------------------
 Symbolic Z-matrix:
 Charge =  0 Multiplicity = 1

 SCF Done:  E(RB3LYP) =  -935.710589079     A.U. after   13 cycles
 SCF Done:  E(RB3LYP) =  -935.715095647     A.U. after   12 cycles
 SCF Done:  E(RB3LYP) =  -935.715807044     A.U. after   11 cycles
 SCF Done:  E(RB3LYP) =  -935.715949977     A.U. after   11 cycles
 SCF Done:  E(RB3LYP) =  -935.716018312     A.U. after   11 cycles
 SCF Done:  E(RB3LYP) =  -935.716108076     A.U. after   11 cycles
 SCF Done:  E(RB3LYP) =  -935.716132229     A.U. after   10 cycles
 SCF Done:  E(RB3LYP) =  -935.716141175     A.U. after   10 cycles
 SCF Done:  E(RB3LYP) =  -935.716145978     A.U. after    9 cycles
 SCF Done:  E(RB3LYP) =  -935.716150555     A.U. after   10 cycles
 SCF Done:  E(RB3LYP) =  -935.716153184     A.U. after   10 cycles
 SCF Done:  E(RB3LYP) =  -935.716153342     A.U. after    8 cycles
 SCF Done:  E(RB3LYP) =  -935.716153384     A.U. after    7 cycles
 Optimization completed.
    -- Stationary point found.
 Normal termination of Gaussian 16 at Wed Dec  9 17:44:09 2020.

 --------------------------------------------------------------------
 #N Geom=AllCheck Guess=TCheck SCRF=Check GenChk RB3LYP/6-31G(d) Freq
 --------------------------------------------------------------------

 Structure from the checkpoint file:  "JID_2611.chk"
 ------------------------------
 CID_63766199_JID_2611_neutraal
 ------------------------------
 Charge =  0 Multiplicity = 1

 SCF Done:  E(RB3LYP) =  -935.716153384     A.U. after    1 cycles

  Exact polarizability: 127.423   0.968 105.901   0.741  -0.921  96.297
 Approx polarizability: 158.496  -2.294 148.737   3.335  -4.397 154.240

                      1                      2                      3
                      A                      A                      A
 Frequencies --     30.3576                45.5342                57.8579
 Red. masses --      4.5977                 3.8436                 2.8367
 Frc consts  --      0.0025                 0.0047                 0.0056
 IR Inten    --      4.7068                 2.3497                 1.7546

                      4                      5                      6
                      A                      A                      A
 Frequencies --     85.3733               109.1657               157.1065
 Red. masses --      3.1886                 3.5953                 2.6325
 Frc consts  --      0.0137                 0.0252                 0.0383
 IR Inten    --      1.2416                 2.4681                 4.6164

                      7                      8                      9
                      A                      A                      A
 Frequencies --    202.2083               223.2444               228.6910
 Red. masses --      2.5631                 1.7707                 1.4342
 Frc consts  --      0.0617                 0.0520                 0.0442
 IR Inten    --      4.9202                 0.6853                 0.6639

                     10                     11                     12
                      A                      A                      A
 Frequencies --    238.4059               254.3840               261.6185
 Red. masses --      1.1679                 3.2438                 1.3165
 Frc consts  --      0.0391                 0.1237                 0.0531
 IR Inten    --      0.3970                 0.6743                 2.6558

                     13                     14                     15
                      A                      A                      A
 Frequencies --    283.7110               301.2015               327.3442
 Red. masses --      1.2109                 2.7408                 2.7613
 Frc consts  --      0.0574                 0.1465                 0.1743
 IR Inten    --     23.5138                 8.2113                 6.2217

                     16                     17                     18
                      A                      A                      A
 Frequencies --    350.2428               391.1830               405.1593
 Red. masses --      2.7567                 3.4173                 2.3077
 Frc consts  --      0.1992                 0.3081                 0.2232
 IR Inten    --      5.8849                 3.7996                 4.4538

                     19                     20                     21
                      A                      A                      A
 Frequencies --    443.7693               482.8507               498.4352
 Red. masses --      2.1329                 6.1476                 4.6664
 Frc consts  --      0.2475                 0.8445                 0.6831
 IR Inten    --      3.2982                15.4686                45.5743

                     22                     23                     24
                      A                      A                      A
 Frequencies --    557.2005               624.1310               684.5628
 Red. masses --      3.3516                 2.7391                 2.7805
 Frc consts  --      0.6131                 0.6286                 0.7677
 IR Inten    --     10.0244                14.6797                71.4826

                     25                     26                     27
                      A                      A                      A
 Frequencies --    740.8260               824.1418               834.6386
 Red. masses --      3.3771                 2.5421                 2.0382
 Frc consts  --      1.0920                 1.0173                 0.8366
 IR Inten    --     41.6473                23.4089                22.9359

                     28                     29                     30
                      A                      A                      A
 Frequencies --    864.4180               898.7826               942.3111
 Red. masses --      1.4776                 1.6667                 1.1823
 Frc consts  --      0.6505                 0.7933                 0.6185
 IR Inten    --     83.6392                62.4470                 2.6135

                     31                     32                     33
                      A                      A                      A
 Frequencies --    951.8332               978.7318               981.0406
 Red. masses --      1.6941                 1.8576                 1.4839
 Frc consts  --      0.9043                 1.0484                 0.8414
 IR Inten    --     10.3888                51.3404                 5.6313

                     34                     35                     36
                      A                      A                      A
 Frequencies --    988.3068               997.0801              1002.6045
 Red. masses --      2.0525                 1.3840                 1.4916
 Frc consts  --      1.1812                 0.8107                 0.8834
 IR Inten    --     79.8884                 6.5917                70.6251

                     37                     38                     39
                      A                      A                      A
 Frequencies --   1050.7474              1085.0953              1105.8486
 Red. masses --      2.1712                 1.6470                 2.7780
 Frc consts  --      1.4124                 1.1426                 2.0016
 IR Inten    --      1.9907                17.0111                41.3805

                     40                     41                     42
                      A                      A                      A
 Frequencies --   1125.2511              1135.7058              1176.8521
 Red. masses --      5.5597                 1.7668                 2.4269
 Frc consts  --      4.1476                 1.3427                 1.9804
 IR Inten    --     90.6153                43.6633                 0.2949

                     43                     44                     45
                      A                      A                      A
 Frequencies --   1208.0542              1225.9070              1279.3034
 Red. masses --      1.7236                 1.6381                 1.4121
 Frc consts  --      1.4821                 1.4504                 1.3616
 IR Inten    --      5.4448                12.8917                11.1915

                     46                     47                     48
                      A                      A                      A
 Frequencies --   1299.4004              1325.5177              1335.6692
 Red. masses --      1.4523                 2.7940                 1.3426
 Frc consts  --      1.4447                 2.8924                 1.4112
 IR Inten    --     25.0468               128.4808                20.9428

                     49                     50                     51
                      A                      A                      A
 Frequencies --   1363.4505              1370.7754              1381.6920
 Red. masses --      1.3669                 1.3685                 1.2316
 Frc consts  --      1.4971                 1.5150                 1.3853
 IR Inten    --     33.5234                 1.3547                15.0940

                     52                     53                     54
                      A                      A                      A
 Frequencies --   1392.1707              1413.3431              1430.6587
 Red. masses --      1.3285                 1.5362                 1.2932
 Frc consts  --      1.5170                 1.8079                 1.5595
 IR Inten    --      2.1019                 2.2328                 6.1754

                     55                     56                     57
                      A                      A                      A
 Frequencies --   1431.9331              1451.0618              1463.4945
 Red. masses --      1.3403                 1.2396                 1.2583
 Frc consts  --      1.6192                 1.5378                 1.5879
 IR Inten    --      2.7749                 3.6328                73.6548

                     58                     59                     60
                      A                      A                      A
 Frequencies --   1485.4105              1487.3818              1514.2981
 Red. masses --      1.0498                 1.0614                 1.0691
 Frc consts  --      1.3648                 1.3835                 1.4444
 IR Inten    --      4.5151                 1.0123                 0.1965

                     61                     62                     63
                      A                      A                      A
 Frequencies --   1521.2224              1527.1611              1535.7721
 Red. masses --      1.0496                 1.0653                 1.0571
 Frc consts  --      1.4311                 1.4638                 1.4690
 IR Inten    --      0.9760                 2.7936                 1.2449

                     64                     65                     66
                      A                      A                      A
 Frequencies --   1539.8842              1543.1427              1697.6819
 Red. masses --      1.0727                 1.0537                 1.0890
 Frc consts  --      1.4986                 1.4784                 1.8492
 IR Inten    --      5.4578                20.0441                35.6277

                     67                     68                     69
                      A                      A                      A
 Frequencies --   3005.3898              3016.7031              3036.3521
 Red. masses --      1.0774                 1.0768                 1.0539
 Frc consts  --      5.7335                 5.7739                 5.7248
 IR Inten    --     40.1832                47.6644                11.2616

                     70                     71                     72
                      A                      A                      A
 Frequencies --   3039.3571              3045.0326              3073.1019
 Red. masses --      1.0384                 1.0408                 1.1014
 Frc consts  --      5.6517                 5.6861                 6.1285
 IR Inten    --     38.5856                21.5997                17.6751

                     73                     74                     75
                      A                      A                      A
 Frequencies --   3088.0484              3103.0131              3108.4023
 Red. masses --      1.0296                 1.1008                 1.1009
 Frc consts  --      5.7846                 6.2448                 6.2672
 IR Inten    --      0.7201                 5.6602                46.1032

                     76                     77                     78
                      A                      A                      A
 Frequencies --   3109.4894              3113.6688              3120.0409
 Red. masses --      1.0922                 1.1003                 1.0980
 Frc consts  --      6.2221                 6.2849                 6.2976
 IR Inten    --     32.4539                60.8422                28.3132

                     79                     80                     81
                      A                      A                      A
 Frequencies --   3126.9510              3184.3318              3199.3446
 Red. masses --      1.0923                 1.1064                 1.1077
 Frc consts  --      6.2924                 6.6103                 6.6802
 IR Inten    --     10.5928                 2.3805                 0.9011

                     82                     83                     84
                      A                      A                      A
 Frequencies --   3441.4372              3494.7230              3580.5522
 Red. masses --      1.0733                 1.0504                 1.0930
 Frc consts  --      7.4898                 7.5584                 8.2559
 IR Inten    --     84.1632                 0.4470                 1.2903

 - Thermochemistry -
 -------------------
 Temperature   298.150 Kelvin.  Pressure   1.00000 Atm.
 Atom     1 has atomic number  6 and mass  12.00000

 Molecular mass:   194.10890 amu.
 Principal axes and moments of inertia in atomic units:
                           1         2         3
     Eigenvalues --  1340.457714284.178964743.71816
           X            1.00000   0.00222   0.00146
           Y           -0.00225   0.99988   0.01528
           Z           -0.00143  -0.01529   0.99988
 This molecule is an asymmetric top.
 Rotational symmetry number  1.
 Warning -- assumption of classical behavior for rotation
           may cause significant error
 Rotational temperatures (Kelvin)      0.06462     0.02022     0.01826
 Rotational constants (GHZ):           1.34636     0.42126     0.38045
 Zero-point vibrational energy     694063.0 (Joules/Mol)
                                  165.88505 (Kcal/Mol)
 Warning -- explicit consideration of  22 degrees of freedom as
           vibrations may cause significant error
 Vibrational temperatures:     43.68    65.51    83.24   122.83   157.07
          (Kelvin)            226.04   290.93   321.20   329.04   343.01
                              366.00   376.41   408.20   433.36   470.98
                              503.92   562.83   582.93   638.49   694.71
                              717.14   801.69   897.99   984.93  1065.88
                             1185.76  1200.86  1243.70  1293.15  1355.78
                             1369.48  1408.18  1411.50  1421.95  1434.58
                             1442.52  1511.79  1561.21  1591.07  1618.99
                             1634.03  1693.23  1738.12  1763.81  1840.63
                             1869.55  1907.12  1921.73  1961.70  1972.24
                             1987.95  2003.02  2033.49  2058.40  2060.23
                             2087.75  2105.64  2137.17  2140.01  2178.74
                             2188.70  2197.24  2209.63  2215.55  2220.24
                             2442.59  4324.09  4340.36  4368.63  4372.96
                             4381.12  4421.51  4443.01  4464.54  4472.30
                             4473.86  4479.87  4489.04  4498.99  4581.54
                             4603.14  4951.46  5028.13  5151.62

 Zero-point correction=                           0.264355 (Hartree/Particle)
 Thermal correction to Energy=                    0.279262
 Thermal correction to Enthalpy=                  0.280206
 Thermal correction to Gibbs Free Energy=         0.221943
 Sum of electronic and zero-point Energies=           -935.451799
 Sum of electronic and thermal Energies=              -935.436892
 Sum of electronic and thermal Enthalpies=            -935.435948
 Sum of electronic and thermal Free Energies=         -935.494211

                     E (Thermal)             CV                S
                      KCal/Mol        Cal/Mol-Kelvin    Cal/Mol-Kelvin
 Total                  175.239             54.758            122.625
 Electronic               0.000              0.000              0.000
 Translational            0.889              2.981             41.695
 Rotational               0.889              2.981             31.677
 Vibrational            173.462             48.796             49.253
 Vibration     1          0.594              1.984              5.806
 Vibration     2          0.595              1.979              5.002
 Vibration     3          0.596              1.974              4.529
 Vibration     4          0.601              1.959              3.763
 Vibration     5          0.606              1.942              3.284
 Vibration     6          0.621              1.895              2.584
 Vibration     7          0.639              1.837              2.113
 Vibration     8          0.649              1.806              1.933
 Vibration     9          0.651              1.797              1.889
 Vibration    10          0.656              1.782              1.815
 Vibration    11          0.665              1.755              1.700
 Vibration    12          0.669              1.743              1.651
 Vibration    13          0.682              1.704              1.511
 Vibration    14          0.693              1.671              1.410
 Vibration    15          0.711              1.621              1.273
 Vibration    16          0.727              1.575              1.165
 Vibration    17          0.759              1.489              0.996
 Vibration    18          0.770              1.459              0.944
 Vibration    19          0.803              1.375              0.815
 Vibration    20          0.839              1.288              0.702
 Vibration    21          0.854              1.253              0.662
 Vibration    22          0.913              1.124              0.529

 Optimization completed.
    -- Stationary point found.
 Normal termination of Gaussian 16 at Wed Dec  9 17:52:33 2020.

 ----------------------------------------------------------------------
 # B3LYP/6-311++G(d,p) empiricaldispersion=gd3bj scf=xqc pop=npa geom=c
 heck
 ----------------------------------------------------------------------

 --------------------------------------
 CID_63766199_JID_2611_Energie_neutraal
 --------------------------------------
 Structure from the checkpoint file:  "JID_2611.chk"
 Charge =  0 Multiplicity = 1

 SCF Done:  E(RB3LYP) =  -935.912986446     A.U. after   15 cycles
 Normal termination of Gaussian 16 at Wed Dec  9 17:56:34 2020.

 ----------------------------------------------------------------------
 # B3LYP/6-311++G(d,p) empiricaldispersion=gd3bj scf=xqc pop=npa geom=c
 heck
 ----------------------------------------------------------------------

 ------------------------------------
 CID_63766199_JID_2611_Energie_kation
 ------------------------------------
 Structure from the checkpoint file:  "JID_2611.chk"
 Charge =  1 Multiplicity = 2

 SCF Done:  E(UB3LYP) =  -935.577203188     A.U. after   24 cycles
 Normal termination of Gaussian 16 at Wed Dec  9 18:06:03 2020.
 Gaussian 16:  ES64L-G16RevA.03 25-Dec-2016

 ----------------------------------------------------------------------
 # B3LYP/6-311++G(d,p) empiricaldispersion=gd3bj scf=xqc pop=npa geom=c
 heck
 ----------------------------------------------------------------------

 -----------------------------------
 CID_63766199_JID_2611_Energie_anion
 -----------------------------------
 Structure from the checkpoint file:  "JID_2611.chk"
 Charge = -1 Multiplicity = 2

                         Standard orientation:
 ---------------------------------------------------------------------
 Center     Atomic      Atomic             Coordinates (Angstroms)
 Number     Number       Type             X           Y           Z
 ---------------------------------------------------------------------
      1          6           0        2.971104   -1.142194    1.264409
      2          6           0        2.959938   -0.228585    0.032002
      3          6           0        4.069978   -0.628067   -0.948475
      4          6           0        1.600323   -0.237534   -0.687411
      5          6           0        0.387287    0.160770    0.166225
      6          6           0        0.502267    1.559024    0.797425
      7          7           0        0.513287    2.571377   -0.267053
      8          7           0       -0.803759    0.112216   -0.709210
      9         16           0       -2.292145   -0.229708    0.003205
     10          8           0       -2.215719   -0.121749    1.468311
     11          8           0       -3.295812    0.524543   -0.754118
     12          6           0       -2.473817   -1.977483   -0.382017
     13          1           0        2.711027   -2.171317    0.984561
     14          1           0        2.259379   -0.814322    2.029530
     15          1           0        3.964822   -1.164124    1.725660
     16          1           0        3.169882    0.797502    0.369291
     17          1           0        3.921123   -1.654821   -1.305894
     18          1           0        4.084855    0.030256   -1.824952
     19          1           0        5.055793   -0.580215   -0.472145
     20          1           0        1.646837    0.431166   -1.557494
     21          1           0        1.410715   -1.240906   -1.090445
     22          1           0        0.242849   -0.567338    0.968551
     23          1           0       -0.386625    1.715085    1.413717
     24          1           0        1.376204    1.601371    1.465229
     25          1           0        0.215777    3.473201    0.094590
     26          1           0        1.453827    2.698197   -0.633850
     27          1           0       -0.890610    1.006721   -1.201734
     28          1           0       -2.488982   -2.094335   -1.465905
     29          1           0       -1.635208   -2.521809    0.056501
     30          1           0       -3.414273   -2.312077    0.060861
 ---------------------------------------------------------------------

 SCF Done:  E(UB3LYP) =  -935.904179729     A.U. after   27 cycles

 The electronic state is 2-A.
 Alpha  occ. eigenvalues --  -88.96650 -19.02104 -19.02033 -14.23740 -14.20080
 Alpha  occ. eigenvalues --  -10.11380 -10.11307 -10.09506 -10.07760 -10.06784
 Alpha  occ. eigenvalues --  -10.06126 -10.06008  -8.02848  -5.99119  -5.99098
 Alpha  occ. eigenvalues --   -5.98932  -1.02212  -0.91266  -0.83522  -0.78269
 Alpha  occ. eigenvalues --   -0.71607  -0.68158  -0.64238  -0.58934  -0.57592
 Alpha  occ. eigenvalues --   -0.53313  -0.49999  -0.45950  -0.43597  -0.40937
 Alpha  occ. eigenvalues --   -0.39660  -0.38664  -0.36839  -0.36525  -0.35326
 Alpha  occ. eigenvalues --   -0.34827  -0.33684  -0.33414  -0.32883  -0.30445
 Alpha  occ. eigenvalues --   -0.29580  -0.28685  -0.26137  -0.25746  -0.25368
 Alpha  occ. eigenvalues --   -0.24098  -0.23044  -0.22795  -0.22621  -0.21845
 Alpha  occ. eigenvalues --   -0.20667  -0.17671  -0.15636   0.04033
 Alpha virt. eigenvalues --    0.05961   0.06995   0.08001   0.08705   0.09623
 Alpha virt. eigenvalues --    0.09729   0.10239   0.10473   0.11271   0.11928
 Alpha virt. eigenvalues --    0.12404   0.13472   0.13584   0.13869   0.14185

  Beta  occ. eigenvalues --  -88.96647 -19.02098 -19.02027 -14.23729 -14.20024
  Beta  occ. eigenvalues --  -10.11375 -10.11260 -10.09490 -10.07741 -10.06764
  Beta  occ. eigenvalues --  -10.06099 -10.05978  -8.02844  -5.99115  -5.99095
  Beta  occ. eigenvalues --   -5.98928  -1.02196  -0.91249  -0.83496  -0.78188
  Beta  occ. eigenvalues --   -0.71567  -0.68104  -0.64186  -0.58873  -0.57519
  Beta  occ. eigenvalues --   -0.53271  -0.49951  -0.45875  -0.43562  -0.40891
  Beta  occ. eigenvalues --   -0.39640  -0.38631  -0.36795  -0.36463  -0.35275
  Beta  occ. eigenvalues --   -0.34789  -0.33650  -0.33368  -0.32845  -0.30407
  Beta  occ. eigenvalues --   -0.29540  -0.28652  -0.26103  -0.25727  -0.25338
  Beta  occ. eigenvalues --   -0.24069  -0.23008  -0.22743  -0.22601  -0.21826
  Beta  occ. eigenvalues --   -0.20651  -0.17651  -0.15585
  Beta virt. eigenvalues --    0.06317   0.07079   0.07742   0.08445   0.09299
  Beta virt. eigenvalues --    0.10077   0.10353   0.10571   0.10894   0.11634
  Beta virt. eigenvalues --    0.12142   0.12671   0.13573   0.13734   0.14087

 Mulliken charges and spin densities:
               1          2
     1  C    0.772490  -1.451259
     2  C   -1.327054   1.918567
     3  C    0.376355  -1.070613
     4  C    0.355245  -1.215605
     5  C   -1.070059   0.847649
     6  C    1.125982  -1.794926
     7  N   -0.594011   0.213895
     8  N    0.050411   0.040738
     9  S    0.269916   0.034980
    10  O   -0.186306   0.007739
    11  O   -0.214948  -0.005509
    12  C    0.335682  -0.829971
    13  H   -0.101478   0.254404
    14  H   -0.015259   0.145084
    15  H   -0.223774   0.367777
    16  H   -0.265056   0.426507
    17  H   -0.021395   0.150902
    18  H   -0.310485   0.450147
    19  H   -0.274400   0.417073
    20  H    0.279795  -0.117609
    21  H    0.019086   0.161088
    22  H    0.580990  -0.336675
    23  H    0.145483   0.052897
    24  H   -0.184268   0.365333
    25  H   -0.082240   0.329832
    26  H   -0.211590   0.457248
    27  H    0.278127   0.062914
    28  H   -0.045590   0.248439
    29  H   -0.433188   0.637085
    30  H   -0.028460   0.231866
 Sum of Mulliken charges =  -1.00000   1.00000

 Dipole moment (field-independent basis, Debye):
    X=             -3.0722    Y=             -1.8926    Z=             -0.1217  Tot=              3.6104
 Quadrupole moment (field-independent basis, Debye-Ang):
   XX=           -159.2111   YY=           -130.7405   ZZ=           -115.6261
   XY=             -2.0736   XZ=              0.8097   YZ=              2.3358

 Summary of Natural Population Analysis:

                                       Natural Population
                Natural  -----------------------------------------------
    Atom  No    Charge         Core      Valence    Rydberg      Total
 -----------------------------------------------------------------------
      C    1   -0.28490      0.99965     2.27994    0.00531     3.28490
      C    2   -0.11840      0.99961     2.10767    0.01112     3.11840
      C    3   -0.27950      0.99965     2.27461    0.00524     3.27950
      C    4   -0.19083      0.99959     2.18124    0.01000     3.19083
      C    5   -0.01915      0.99957     2.00572    0.01386     3.01915
      C    6   -0.10103      0.99960     2.08948    0.01196     3.10103
      N    7   -0.43526      0.99977     2.92454    0.01094     3.93526
      N    8   -0.44470      0.99974     2.93186    0.01310     3.94470
      S    9    1.09356      4.99934     1.80705    0.10005     6.90644
      O   10   -0.46927      0.99991     3.46383    0.00553     4.46927
      O   11   -0.46772      0.99991     3.46215    0.00567     4.46772
      C   12   -0.38801      0.99961     2.38087    0.00753     3.38801
      H   13    0.09701      0.00000     0.40181    0.00119     0.40299
      H   14    0.09813      0.00000     0.40076    0.00111     0.40187
      H   15    0.10015      0.00000     0.39876    0.00109     0.39985
      H   16    0.09434      0.00000     0.40276    0.00290     0.40566
      H   17    0.09484      0.00000     0.40394    0.00122     0.40516
      H   18    0.10016      0.00000     0.39851    0.00132     0.39984
      H   19    0.09918      0.00000     0.39961    0.00121     0.40082
      H   20    0.10175      0.00000     0.39660    0.00165     0.39825
      H   21    0.10143      0.00000     0.39698    0.00159     0.39857
      H   22    0.10616      0.00000     0.39194    0.00190     0.39384
      H   23    0.10250      0.00000     0.39621    0.00129     0.39750
      H   24    0.08829      0.00000     0.41007    0.00165     0.41171
      H   25    0.18224      0.00000     0.31551    0.00225     0.31776
      H   26    0.18105      0.00000     0.31566    0.00329     0.31895
      H   27    0.21021      0.00000     0.28703    0.00276     0.28979
      H   28    0.11631      0.00000     0.38266    0.00103     0.38369
      H   29    0.11745      0.00000     0.38105    0.00150     0.38255
      H   30    0.11401      0.00000     0.38504    0.00095     0.38599
 =======================================================================
   * Total *    0.00000     15.99594    36.77387    0.23020    53.00000

 Normal termination of Gaussian 16 at Wed Dec  9 18:16:15 2020.
