 Gaussian 16, Revision A.03,

 -----------------------------------------------------------
 # opt freq B3LYP/6-31G(d) empiricaldispersion=gd3bj scf=xqc
 -----------------------------------------------------------

 ------------------------------
 CID_61427532_JID_4139_neutraal
 ------------------------------
 Symbolic Z-matrix:
 Charge =  0 Multiplicity = 1

 SCF Done:  E(RB3LYP) =  -615.958698034     A.U. after   14 cycles
 SCF Done:  E(RB3LYP) =  -615.963343227     A.U. after   12 cycles
 SCF Done:  E(RB3LYP) =  -615.964778419     A.U. after   13 cycles
 SCF Done:  E(RB3LYP) =  -615.964486623     A.U. after   12 cycles
 SCF Done:  E(RB3LYP) =  -615.964067843     A.U. after   13 cycles
 SCF Done:  E(RB3LYP) =  -615.964348343     A.U. after   12 cycles
 SCF Done:  E(RB3LYP) =  -615.965191338     A.U. after    9 cycles
 SCF Done:  E(RB3LYP) =  -615.965535288     A.U. after   11 cycles
 SCF Done:  E(RB3LYP) =  -615.965532835     A.U. after   11 cycles
 SCF Done:  E(RB3LYP) =  -615.965598886     A.U. after   11 cycles
 SCF Done:  E(RB3LYP) =  -615.965607085     A.U. after    9 cycles
 SCF Done:  E(RB3LYP) =  -615.965607242     A.U. after    7 cycles
 SCF Done:  E(RB3LYP) =  -615.965607218     A.U. after    7 cycles
 SCF Done:  E(RB3LYP) =  -615.965607279     A.U. after    6 cycles
 Optimization completed.
    -- Stationary point found.
 Normal termination of Gaussian 16 at Thu Dec 10 09:20:23 2020.

 --------------------------------------------------------------------
 #N Geom=AllCheck Guess=TCheck SCRF=Check GenChk RB3LYP/6-31G(d) Freq
 --------------------------------------------------------------------

 Structure from the checkpoint file:  "JID_4139.chk"
 ------------------------------
 CID_61427532_JID_4139_neutraal
 ------------------------------
 Charge =  0 Multiplicity = 1

 SCF Done:  E(RB3LYP) =  -615.965607279     A.U. after    1 cycles

  Exact polarizability: 132.172  -3.226 132.501   2.131  -4.101 109.904
 Approx polarizability: 165.537  -9.513 192.075   5.834 -14.000 168.090

                      1                      2                      3
                      A                      A                      A
 Frequencies --     43.7545                55.1811                75.0340
 Red. masses --      3.2532                 3.7821                 3.2056
 Frc consts  --      0.0037                 0.0068                 0.0106
 IR Inten    --      2.7013                 0.7168                 0.2031

                      4                      5                      6
                      A                      A                      A
 Frequencies --     90.6052               123.2021               135.8658
 Red. masses --      3.1020                 3.1859                 3.9066
 Frc consts  --      0.0150                 0.0285                 0.0425
 IR Inten    --      1.4473                 4.4913                 3.1603

                      7                      8                      9
                      A                      A                      A
 Frequencies --    151.2583               180.0254               217.2045
 Red. masses --      4.0484                 2.6875                 1.5203
 Frc consts  --      0.0546                 0.0513                 0.0423
 IR Inten    --      4.4101                 1.3704                 1.5319

                     10                     11                     12
                      A                      A                      A
 Frequencies --    226.1181               249.8920               256.1079
 Red. masses --      1.3840                 2.4868                 1.8997
 Frc consts  --      0.0417                 0.0915                 0.0734
 IR Inten    --      2.9185                 0.9950                 2.7393

                     13                     14                     15
                      A                      A                      A
 Frequencies --    307.4867               354.0710               363.5822
 Red. masses --      2.0990                 3.0706                 2.8426
 Frc consts  --      0.1169                 0.2268                 0.2214
 IR Inten    --      0.3528                 1.2684                 3.2943

                     16                     17                     18
                      A                      A                      A
 Frequencies --    388.6580               425.9014               441.5555
 Red. masses --      4.0952                 2.2470                 4.2131
 Frc consts  --      0.3645                 0.2401                 0.4840
 IR Inten    --      0.8708                 0.5155                 0.5530

                     19                     20                     21
                      A                      A                      A
 Frequencies --    485.4871               502.1844               562.1706
 Red. masses --      2.4403                 2.0454                 2.1837
 Frc consts  --      0.3389                 0.3039                 0.4066
 IR Inten    --      1.4651                 3.3174                 3.0867

                     22                     23                     24
                      A                      A                      A
 Frequencies --    575.0710               609.3116               690.7398
 Red. masses --      3.4915                 3.8205                 2.2796
 Frc consts  --      0.6803                 0.8357                 0.6408
 IR Inten    --      0.8621                 1.5302                 0.0247

                     25                     26                     27
                      A                      A                      A
 Frequencies --    788.5275               810.0316               825.1009
 Red. masses --      2.5881                 3.1057                 2.0265
 Frc consts  --      0.9481                 1.2006                 0.8128
 IR Inten    --      6.4356                 3.0030                 1.3828

                     28                     29                     30
                      A                      A                      A
 Frequencies --    858.8669               872.4066               877.3898
 Red. masses --      2.4776                 2.2349                 2.4058
 Frc consts  --      1.0768                 1.0022                 1.0912
 IR Inten    --      3.5227                 3.5765                 3.5969

                     31                     32                     33
                      A                      A                      A
 Frequencies --    925.3228               963.6949               978.5436
 Red. masses --      1.7587                 2.0180                 2.1603
 Frc consts  --      0.8872                 1.1042                 1.2188
 IR Inten    --      3.1679                 3.5083                 0.5082

                     34                     35                     36
                      A                      A                      A
 Frequencies --   1028.8856              1042.5154              1050.7920
 Red. masses --      2.8581                 2.4184                 1.8700
 Frc consts  --      1.7827                 1.5486                 1.2166
 IR Inten    --     45.3961                30.4894                 3.3573

                     37                     38                     39
                      A                      A                      A
 Frequencies --   1059.9559              1073.1714              1080.6890
 Red. masses --      1.8804                 1.8546                 2.1751
 Frc consts  --      1.2447                 1.2585                 1.4967
 IR Inten    --      4.1059                16.2823                26.6901

                     40                     41                     42
                      A                      A                      A
 Frequencies --   1121.2093              1140.8597              1148.3880
 Red. masses --      2.4077                 1.2431                 1.6433
 Frc consts  --      1.7833                 0.9533                 1.2768
 IR Inten    --      0.9781                 3.8933                 6.5162

                     43                     44                     45
                      A                      A                      A
 Frequencies --   1167.9805              1169.4608              1174.8279
 Red. masses --      1.5689                 4.5326                 1.7553
 Frc consts  --      1.2610                 3.6523                 1.4274
 IR Inten    --      8.9740               108.8052                14.6186

                     46                     47                     48
                      A                      A                      A
 Frequencies --   1195.2764              1204.8222              1244.7250
 Red. masses --      1.2972                 1.3782                 1.7859
 Frc consts  --      1.0920                 1.1787                 1.6303
 IR Inten    --      1.5078                27.4005                10.6360

                     49                     50                     51
                      A                      A                      A
 Frequencies --   1275.2881              1287.1660              1294.6729
 Red. masses --      1.9095                 1.2985                 1.2809
 Frc consts  --      1.8297                 1.2675                 1.2650
 IR Inten    --      8.6256                22.3727                 1.1313

                     52                     53                     54
                      A                      A                      A
 Frequencies --   1308.8924              1320.5705              1345.6987
 Red. masses --      1.3976                 1.3768                 1.3149
 Frc consts  --      1.4107                 1.4146                 1.4030
 IR Inten    --      7.5220                 1.7372                 9.5895

                     55                     56                     57
                      A                      A                      A
 Frequencies --   1365.3695              1377.6975              1392.3834
 Red. masses --      1.3436                 1.3223                 1.4289
 Frc consts  --      1.4757                 1.4787                 1.6322
 IR Inten    --      2.3242                 4.4902                 6.8185

                     58                     59                     60
                      A                      A                      A
 Frequencies --   1399.2961              1404.9536              1408.1075
 Red. masses --      1.3605                 1.3742                 1.3668
 Frc consts  --      1.5695                 1.5982                 1.5967
 IR Inten    --     11.4747                20.1498                 8.9099

                     61                     62                     63
                      A                      A                      A
 Frequencies --   1416.6862              1427.1177              1436.1551
 Red. masses --      1.4529                 1.3810                 1.3687
 Frc consts  --      1.7180                 1.6571                 1.6633
 IR Inten    --      1.7950                12.5006                 9.6814

                     64                     65                     66
                      A                      A                      A
 Frequencies --   1487.5336              1501.7091              1505.9377
 Red. masses --      1.1600                 1.1550                 1.0886
 Frc consts  --      1.5123                 1.5347                 1.4546
 IR Inten    --      1.3515                 3.5139                 3.0440

                     67                     68                     69
                      A                      A                      A
 Frequencies --   1515.1661              1515.4835              1517.3680
 Red. masses --      1.0718                 1.0500                 1.0701
 Frc consts  --      1.4498                 1.4208                 1.4516
 IR Inten    --      1.0735                 5.8319                17.2544

                     70                     71                     72
                      A                      A                      A
 Frequencies --   1520.6200              1526.9395              1529.0402
 Red. masses --      1.0959                 1.0827                 1.0724
 Frc consts  --      1.4931                 1.4873                 1.4772
 IR Inten    --      1.6281                 4.9989                10.9519

                     73                     74                     75
                      A                      A                      A
 Frequencies --   1540.1934              1550.2551              1557.1870
 Red. masses --      1.0658                 1.0829                 1.0697
 Frc consts  --      1.4897                 1.5334                 1.5283
 IR Inten    --     11.7936                 4.2917                 5.0817

                     76                     77                     78
                      A                      A                      A
 Frequencies --   2359.0824              2955.7579              2973.9064
 Red. masses --     12.6503                 1.0614                 1.0573
 Frc consts  --     41.4799                 5.4634                 5.5094
 IR Inten    --     13.4918                55.3904                50.2828

                     79                     80                     81
                      A                      A                      A
 Frequencies --   2992.2117              2996.8465              3007.3833
 Red. masses --      1.0816                 1.0417                 1.0991
 Frc consts  --      5.7058                 5.5120                 5.8568
 IR Inten    --     60.0789                73.5880                60.0088

                     82                     83                     84
                      A                      A                      A
 Frequencies --   3040.7459              3041.8333              3049.4550
 Red. masses --      1.0632                 1.1054                 1.0615
 Frc consts  --      5.7918                 6.0259                 5.8157
 IR Inten    --     19.7621                56.8830                24.8945

                     85                     86                     87
                      A                      A                      A
 Frequencies --   3063.1290              3064.5435              3065.9819
 Red. masses --      1.0634                 1.0633                 1.0690
 Frc consts  --      5.8785                 5.8835                 5.9208
 IR Inten    --     51.0672                10.1218                17.2704

                     88                     89                     90
                      A                      A                      A
 Frequencies --   3082.2738              3091.8330              3095.2634
 Red. masses --      1.0951                 1.0932                 1.0830
 Frc consts  --      6.1297                 6.1570                 6.1132
 IR Inten    --     42.8960                53.9359                13.4429

                     91                     92                     93
                      A                      A                      A
 Frequencies --   3100.9331              3107.7146              3110.9100
 Red. masses --      1.1004                 1.0975                 1.1045
 Frc consts  --      6.2344                 6.2453                 6.2979
 IR Inten    --     16.6176                46.9966                49.4274

                     94                     95                     96
                      A                      A                      A
 Frequencies --   3116.9632              3138.0820              3147.0016
 Red. masses --      1.0833                 1.1009                 1.0972
 Frc consts  --      6.2009                 6.3876                 6.4020
 IR Inten    --     14.2101                31.1473                21.3574

 - Thermochemistry -
 -------------------
 Temperature   298.150 Kelvin.  Pressure   1.00000 Atm.
 Atom     1 has atomic number  6 and mass  12.00000

 Molecular mass:   196.15756 amu.
 Principal axes and moments of inertia in atomic units:
                           1         2         3
     Eigenvalues --  1991.689923299.187004364.13741
           X            0.99961   0.02710  -0.00722
           Y           -0.02694   0.99942   0.02098
           Z            0.00778  -0.02078   0.99975
 This molecule is an asymmetric top.
 Rotational symmetry number  1.
 Warning -- assumption of classical behavior for rotation
           may cause significant error
 Rotational temperatures (Kelvin)      0.04349     0.02625     0.01985
 Rotational constants (GHZ):           0.90614     0.54703     0.41354
 Zero-point vibrational energy     805345.5 (Joules/Mol)
                                  192.48219 (Kcal/Mol)
 Warning -- explicit consideration of  23 degrees of freedom as
           vibrations may cause significant error
 Vibrational temperatures:     62.95    79.39   107.96   130.36   177.26
          (Kelvin)            195.48   217.63   259.02   312.51   325.33
                              359.54   368.48   442.40   509.43   523.11
                              559.19   612.78   635.30   698.51   722.53
                              808.84   827.40   876.66   993.82  1134.52
                             1165.45  1187.14  1235.72  1255.20  1262.37
                             1331.33  1386.54  1407.91  1480.34  1499.95
                             1511.86  1525.04  1544.05  1554.87  1613.17
                             1641.44  1652.27  1680.46  1682.59  1690.32
                             1719.74  1733.47  1790.88  1834.86  1851.94
                             1862.75  1883.20  1900.01  1936.16  1964.46
                             1982.20  2003.33  2013.28  2021.41  2025.95
                             2038.30  2053.30  2066.31  2140.23  2160.62
                             2166.71  2179.99  2180.44  2183.15  2187.83
                             2196.93  2199.95  2215.99  2230.47  2240.44
                             3394.19  4252.68  4278.79  4305.13  4311.79
                             4326.95  4374.96  4376.52  4387.49  4407.16
                             4409.19  4411.26  4434.70  4448.46  4453.39
                             4461.55  4471.31  4475.91  4484.61  4515.00
                             4527.83

 Zero-point correction=                           0.306740 (Hartree/Particle)
 Thermal correction to Energy=                    0.321545
 Thermal correction to Enthalpy=                  0.322489
 Thermal correction to Gibbs Free Energy=         0.264902
 Sum of electronic and zero-point Energies=           -615.658867
 Sum of electronic and thermal Energies=              -615.644062
 Sum of electronic and thermal Enthalpies=            -615.643118
 Sum of electronic and thermal Free Energies=         -615.700705

                     E (Thermal)             CV                S
                      KCal/Mol        Cal/Mol-Kelvin    Cal/Mol-Kelvin
 Total                  201.773             55.653            121.202
 Electronic               0.000              0.000              0.000
 Translational            0.889              2.981             41.726
 Rotational               0.889              2.981             31.728
 Vibrational            199.995             49.691             47.748
 Vibration     1          0.595              1.980              5.081
 Vibration     2          0.596              1.976              4.623
 Vibration     3          0.599              1.966              4.017
 Vibration     4          0.602              1.956              3.647
 Vibration     5          0.610              1.930              3.050
 Vibration     6          0.614              1.918              2.861
 Vibration     7          0.619              1.901              2.656
 Vibration     8          0.629              1.867              2.328
 Vibration     9          0.646              1.815              1.982
 Vibration    10          0.650              1.801              1.910
 Vibration    11          0.663              1.763              1.731
 Vibration    12          0.666              1.752              1.688
 Vibration    13          0.697              1.659              1.376
 Vibration    14          0.730              1.567              1.148
 Vibration    15          0.737              1.547              1.107
 Vibration    16          0.757              1.494              1.005
 Vibration    17          0.788              1.414              0.872
 Vibration    18          0.801              1.380              0.822
 Vibration    19          0.842              1.282              0.695
 Vibration    20          0.858              1.245              0.653
 Vibration    21          0.918              1.113              0.520
 Vibration    22          0.931              1.085              0.495
 Vibration    23          0.968              1.012              0.434

 Optimization completed.
    -- Stationary point found.
 Normal termination of Gaussian 16 at Thu Dec 10 09:31:10 2020.

 ----------------------------------------------------------------------
 # B3LYP/6-311++G(d,p) empiricaldispersion=gd3bj scf=xqc pop=npa geom=c
 heck
 ----------------------------------------------------------------------

 --------------------------------------
 CID_61427532_JID_4139_Energie_neutraal
 --------------------------------------
 Structure from the checkpoint file:  "JID_4139.chk"
 Charge =  0 Multiplicity = 1

 SCF Done:  E(RB3LYP) =  -616.137866170     A.U. after   15 cycles
 Normal termination of Gaussian 16 at Thu Dec 10 09:35:42 2020.

 ----------------------------------------------------------------------
 # B3LYP/6-311++G(d,p) empiricaldispersion=gd3bj scf=xqc pop=npa geom=c
 heck
 ----------------------------------------------------------------------

 ------------------------------------
 CID_61427532_JID_4139_Energie_kation
 ------------------------------------
 Structure from the checkpoint file:  "JID_4139.chk"
 Charge =  1 Multiplicity = 2

 SCF Done:  E(UB3LYP) =  -615.841383852     A.U. after   20 cycles
 Normal termination of Gaussian 16 at Thu Dec 10 09:43:50 2020.
 Gaussian 16:  ES64L-G16RevA.03 25-Dec-2016

 ----------------------------------------------------------------------
 # B3LYP/6-311++G(d,p) empiricaldispersion=gd3bj scf=xqc pop=npa geom=c
 heck
 ----------------------------------------------------------------------

 -----------------------------------
 CID_61427532_JID_4139_Energie_anion
 -----------------------------------
 Structure from the checkpoint file:  "JID_4139.chk"
 Charge = -1 Multiplicity = 2

                         Standard orientation:
 ---------------------------------------------------------------------
 Center     Atomic      Atomic             Coordinates (Angstroms)
 Number     Number       Type             X           Y           Z
 ---------------------------------------------------------------------
      1          6           0        0.493451   -2.537030   -0.768095
      2          7           0        0.258106   -1.423809    0.145173
      3          6           0        1.403189   -1.200194    1.029654
      4          6           0        2.673260   -0.606196    0.415122
      5          8           0        2.474341    0.776888    0.184477
      6          6           0        3.576079    1.398245   -0.443159
      7          6           0       -0.280241   -0.234514   -0.540541
      8          6           0       -1.576455   -0.564955   -1.305285
      9          6           0       -2.694676   -1.033812   -0.365630
     10          6           0       -2.994348    0.025936    0.704136
     11          6           0       -1.725869    0.435464    1.462244
     12          6           0       -0.603057    0.880656    0.497519
     13          6           0       -0.971029    2.113695   -0.207514
     14          7           0       -1.271803    3.087933   -0.763456
     15          1           0        0.982985   -3.349289   -0.222453
     16          1           0        1.129155   -2.277851   -1.634999
     17          1           0       -0.451928   -2.927190   -1.152423
     18          1           0        1.103144   -0.565365    1.869761
     19          1           0        1.662857   -2.172756    1.463429
     20          1           0        3.520062   -0.755761    1.107396
     21          1           0        2.928722   -1.118671   -0.527327
     22          1           0        4.485891    1.323976    0.173232
     23          1           0        3.784861    0.949880   -1.427105
     24          1           0        3.318102    2.451099   -0.577810
     25          1           0        0.456359    0.172866   -1.251359
     26          1           0       -1.386638   -1.303485   -2.089495
     27          1           0       -1.890855    0.348656   -1.824045
     28          1           0       -2.391227   -1.968089    0.122482
     29          1           0       -3.600842   -1.249497   -0.944226
     30          1           0       -3.743375   -0.346665    1.412956
     31          1           0       -3.427273    0.914022    0.224086
     32          1           0       -1.344229   -0.418472    2.031924
     33          1           0       -1.941037    1.240972    2.172861
     34          1           0        0.304598    1.123885    1.054567
 ---------------------------------------------------------------------

 SCF Done:  E(UB3LYP) =  -616.126686433     A.U. after   30 cycles

 The electronic state is 2-A.
 Alpha  occ. eigenvalues --  -19.03275 -14.21561 -14.21074 -10.11705 -10.11566
 Alpha  occ. eigenvalues --  -10.11551 -10.11487 -10.11362 -10.09738 -10.08594
 Alpha  occ. eigenvalues --  -10.08508 -10.07682 -10.07187 -10.07116  -0.94627
 Alpha  occ. eigenvalues --   -0.83382  -0.81297  -0.74372  -0.67467  -0.66687
 Alpha  occ. eigenvalues --   -0.64550  -0.59217  -0.57117  -0.54432  -0.52378
 Alpha  occ. eigenvalues --   -0.49546  -0.46233  -0.41613  -0.40623  -0.40130
 Alpha  occ. eigenvalues --   -0.38789  -0.37630  -0.36744  -0.36008  -0.34260
 Alpha  occ. eigenvalues --   -0.32839  -0.32443  -0.30970  -0.29964  -0.29590
 Alpha  occ. eigenvalues --   -0.29359  -0.28532  -0.27861  -0.26796  -0.26309
 Alpha  occ. eigenvalues --   -0.25841  -0.24633  -0.24203  -0.23574  -0.23105
 Alpha  occ. eigenvalues --   -0.21453  -0.20960  -0.17013  -0.12018   0.04193
 Alpha virt. eigenvalues --    0.06318   0.07074   0.07214   0.08526   0.08794
 Alpha virt. eigenvalues --    0.09032   0.09863   0.10070   0.11015   0.11223
 Alpha virt. eigenvalues --    0.11774   0.11942   0.12103   0.12582   0.12940

  Beta  occ. eigenvalues --  -19.03264 -14.21558 -14.21073 -10.11673 -10.11550
  Beta  occ. eigenvalues --  -10.11530 -10.11486 -10.11358 -10.09716 -10.08549
  Beta  occ. eigenvalues --  -10.08498 -10.07674 -10.07178 -10.07103  -0.94610
  Beta  occ. eigenvalues --   -0.83369  -0.81292  -0.74355  -0.67446  -0.66656
  Beta  occ. eigenvalues --   -0.64516  -0.59150  -0.57064  -0.54389  -0.52322
  Beta  occ. eigenvalues --   -0.49496  -0.46186  -0.41571  -0.40592  -0.40096
  Beta  occ. eigenvalues --   -0.38738  -0.37601  -0.36721  -0.35970  -0.34225
  Beta  occ. eigenvalues --   -0.32808  -0.32420  -0.30945  -0.29936  -0.29554
  Beta  occ. eigenvalues --   -0.29333  -0.28510  -0.27810  -0.26779  -0.26281
  Beta  occ. eigenvalues --   -0.25812  -0.24612  -0.24190  -0.23519  -0.23075
  Beta  occ. eigenvalues --   -0.21432  -0.20941  -0.16987  -0.11998
  Beta virt. eigenvalues --    0.06341   0.07100   0.07708   0.07927   0.08941
  Beta virt. eigenvalues --    0.09319   0.09452   0.10339   0.10562   0.11352
  Beta virt. eigenvalues --    0.11445   0.11970   0.12184   0.12437   0.12821

 Mulliken charges and spin densities:
               1          2
     1  C    1.072996  -1.384484
     2  N    0.072363   0.146685
     3  C   -1.024277   0.706701
     4  C    1.244772  -1.588157
     5  O   -0.206916   0.069785
     6  C    0.469048  -0.722116
     7  C   -0.461809   0.091697
     8  C   -0.198729  -0.300463
     9  C   -0.086947  -0.333786
    10  C   -0.265404  -0.177132
    11  C   -0.582398   0.202485
    12  C    0.394663   0.413267
    13  C    0.738216  -1.362475
    14  N   -0.352661   0.054342
    15  H   -0.334903   0.476872
    16  H   -0.390348   0.540834
    17  H   -0.144174   0.277905
    18  H   -0.091285   0.260867
    19  H   -0.655251   0.854610
    20  H   -0.491949   0.646815
    21  H    0.060582   0.101117
    22  H   -0.265071   0.397381
    23  H   -0.260647   0.389247
    24  H   -0.001640   0.139227
    25  H    0.376877  -0.090799
    26  H   -0.005773   0.184063
    27  H    0.038145   0.128455
    28  H    0.032059   0.098484
    29  H   -0.062495   0.226315
    30  H   -0.218940   0.393051
    31  H    0.203497  -0.050998
    32  H    0.043032   0.105678
    33  H    0.003075   0.182667
    34  H    0.352295  -0.078139
 Sum of Mulliken charges =  -1.00000   1.00000

 Dipole moment (field-independent basis, Debye):
    X=             -4.1176    Y=              2.3462    Z=              0.3817  Tot=              4.7545
 Quadrupole moment (field-independent basis, Debye-Ang):
   XX=           -154.4149   YY=           -147.9560   ZZ=           -124.4742
   XY=              8.9635   XZ=             -3.6027   YZ=              3.8604

 Summary of Natural Population Analysis:

                                       Natural Population
                Natural  -----------------------------------------------
    Atom  No    Charge         Core      Valence    Rydberg      Total
 -----------------------------------------------------------------------
      C    1   -0.17841      0.99963     2.16952    0.00925     3.17841
      N    2   -0.29015      0.99971     2.77627    0.01417     3.79015
      C    3   -0.09318      0.99959     2.07969    0.01389     3.09318
      C    4   -0.01857      0.99957     2.00687    0.01212     3.01857
      O    5   -0.30541      0.99988     3.29526    0.01027     4.30541
      C    6   -0.09519      0.99962     2.08669    0.00889     3.09519
      C    7    0.00847      0.99956     1.97788    0.01409     2.99153
      C    8   -0.19925      0.99960     2.19008    0.00956     3.19925
      C    9   -0.19300      0.99962     2.18495    0.00842     3.19300
      C   10   -0.19252      0.99963     2.18454    0.00835     3.19252
      C   11   -0.18360      0.99961     2.17479    0.00920     3.18360
      C   12   -0.17405      0.99948     2.16452    0.01005     3.17405
      C   13    0.17118      0.99965     1.80880    0.02037     2.82882
      N   14   -0.19283      0.99979     2.68238    0.01067     3.69283
      H   15    0.09994      0.00000     0.39863    0.00143     0.40006
      H   16    0.08450      0.00000     0.41370    0.00181     0.41550
      H   17    0.09561      0.00000     0.40299    0.00139     0.40439
      H   18    0.09515      0.00000     0.40299    0.00186     0.40485
      H   19    0.10339      0.00000     0.39507    0.00154     0.39661
      H   20    0.08475      0.00000     0.41248    0.00277     0.41525
      H   21    0.08310      0.00000     0.41470    0.00219     0.41690
      H   22    0.08000      0.00000     0.41839    0.00161     0.42000
      H   23    0.08023      0.00000     0.41844    0.00133     0.41977
      H   24    0.08950      0.00000     0.40945    0.00105     0.41050
      H   25    0.09649      0.00000     0.40064    0.00288     0.40351
      H   26    0.10520      0.00000     0.39380    0.00100     0.39480
      H   27    0.10260      0.00000     0.39621    0.00119     0.39740
      H   28    0.10143      0.00000     0.39707    0.00150     0.39857
      H   29    0.09746      0.00000     0.40170    0.00084     0.40254
      H   30    0.09969      0.00000     0.39946    0.00085     0.40031
      H   31    0.09534      0.00000     0.40350    0.00117     0.40466
      H   32    0.10732      0.00000     0.39125    0.00143     0.39268
      H   33    0.10044      0.00000     0.39861    0.00094     0.39956
      H   34    0.13436      0.00000     0.36265    0.00300     0.36564
 =======================================================================
   * Total *   -0.00000     13.99496    39.81396    0.19108    54.00000

 Normal termination of Gaussian 16 at Thu Dec 10 09:55:58 2020.
