 Gaussian 16, Revision A.03,

 -----------------------------------------------------------
 # opt freq B3LYP/6-31G(d) empiricaldispersion=gd3bj scf=xqc
 -----------------------------------------------------------

 -------------------------------
 CID_108212224_JID_9937_neutraal
 -------------------------------
 Symbolic Z-matrix:
 Charge =  0 Multiplicity = 1

 SCF Done:  E(RB3LYP) =  -1217.31281286     A.U. after   16 cycles
 SCF Done:  E(RB3LYP) =  -1217.31976764     A.U. after   14 cycles
 SCF Done:  E(RB3LYP) =  -1217.32068235     A.U. after   13 cycles
 SCF Done:  E(RB3LYP) =  -1217.32132815     A.U. after   13 cycles
 SCF Done:  E(RB3LYP) =  -1217.32175991     A.U. after   13 cycles
 SCF Done:  E(RB3LYP) =  -1217.32198185     A.U. after   13 cycles
 SCF Done:  E(RB3LYP) =  -1217.32211548     A.U. after   12 cycles
 SCF Done:  E(RB3LYP) =  -1217.32221280     A.U. after   12 cycles
 SCF Done:  E(RB3LYP) =  -1217.32232042     A.U. after   13 cycles
 SCF Done:  E(RB3LYP) =  -1217.32244371     A.U. after   13 cycles
 SCF Done:  E(RB3LYP) =  -1217.32483710     A.U. after    9 cycles
 SCF Done:  E(RB3LYP) =  -1217.32483923     A.U. after   11 cycles
 SCF Done:  E(RB3LYP) =  -1217.32484087     A.U. after    9 cycles
 SCF Done:  E(RB3LYP) =  -1217.32484235     A.U. after   10 cycles
 SCF Done:  E(RB3LYP) =  -1217.32484242     A.U. after    8 cycles
 SCF Done:  E(RB3LYP) =  -1217.32484246     A.U. after    7 cycles
 Optimization completed.
    -- Stationary point found.
 Normal termination of Gaussian 16 at Sat Dec 12 10:24:30 2020.

 --------------------------------------------------------------------
 #N Geom=AllCheck Guess=TCheck SCRF=Check GenChk RB3LYP/6-31G(d) Freq
 --------------------------------------------------------------------

 Structure from the checkpoint file:  "JID_9937.chk"
 -------------------------------
 CID_108212224_JID_9937_neutraal
 -------------------------------
 Charge =  0 Multiplicity = 1

 SCF Done:  E(RB3LYP) =  -1217.32484246     A.U. after    1 cycles

  Exact polarizability: 234.601  10.424 196.693   5.805  -0.292 102.221
 Approx polarizability: 357.067  10.862 342.209   4.944   1.998 167.533

                      1                      2                      3
                      A                      A                      A
 Frequencies --     19.4804                27.4074                73.0457
 Red. masses --      5.1704                 5.4707                 4.4382
 Frc consts  --      0.0012                 0.0024                 0.0140
 IR Inten    --      0.8257                 0.8219                 0.5970

                      4                      5                      6
                      A                      A                      A
 Frequencies --     78.7929               114.9528               127.0155
 Red. masses --      3.6929                 3.2352                 5.8426
 Frc consts  --      0.0135                 0.0252                 0.0555
 IR Inten    --      0.2787                 5.4620                 1.9561

                      7                      8                      9
                      A                      A                      A
 Frequencies --    136.2838               162.7775               168.8418
 Red. masses --      3.3962                 1.4069                 3.0924
 Frc consts  --      0.0372                 0.0220                 0.0519
 IR Inten    --      0.1780                 0.4155                 4.2707

                     10                     11                     12
                      A                      A                      A
 Frequencies --    183.8059               200.7168               222.5539
 Red. masses --      4.5102                 3.6208                 5.5878
 Frc consts  --      0.0898                 0.0859                 0.1631
 IR Inten    --      1.0694                 6.4524                 1.0755

                     13                     14                     15
                      A                      A                      A
 Frequencies --    226.1786               257.9046               275.0686
 Red. masses --      1.2606                 1.6433                 1.5434
 Frc consts  --      0.0380                 0.0644                 0.0688
 IR Inten    --      0.9504                 1.0676                 1.3872

                     16                     17                     18
                      A                      A                      A
 Frequencies --    302.1420               307.2700               316.4341
 Red. masses --      1.2878                 2.5534                 4.0359
 Frc consts  --      0.0693                 0.1420                 0.2381
 IR Inten    --      0.1253                 2.4622                 1.6012

                     19                     20                     21
                      A                      A                      A
 Frequencies --    354.6685               368.3367               392.1717
 Red. masses --      3.1768                 2.9851                 4.1994
 Frc consts  --      0.2354                 0.2386                 0.3805
 IR Inten    --      3.0740                 0.4454                 5.1571

                     22                     23                     24
                      A                      A                      A
 Frequencies --    413.8416               444.5101               456.1632
 Red. masses --      3.8938                 6.3611                 4.6081
 Frc consts  --      0.3929                 0.7405                 0.5650
 IR Inten    --      0.6755                13.1220                 2.7906

                     25                     26                     27
                      A                      A                      A
 Frequencies --    488.8275               528.0296               544.7570
 Red. masses --      4.4116                 5.8362                 8.5148
 Frc consts  --      0.6211                 0.9587                 1.4888
 IR Inten    --      4.3096                 6.9987                 0.7090

                     28                     29                     30
                      A                      A                      A
 Frequencies --    563.1495               585.0638               607.8983
 Red. masses --      3.6128                 6.8587                 7.1354
 Frc consts  --      0.6751                 1.3832                 1.5536
 IR Inten    --      7.2551                 7.9274                 3.4886

                     31                     32                     33
                      A                      A                      A
 Frequencies --    613.3868               680.2713               715.0048
 Red. masses --      6.0877                 6.7929                 6.2687
 Frc consts  --      1.3495                 1.8521                 1.8882
 IR Inten    --     10.3657                35.8136                 8.1849

                     34                     35                     36
                      A                      A                      A
 Frequencies --    756.1149               769.7787               819.2682
 Red. masses --      5.9706                 7.5058                 2.4800
 Frc consts  --      2.0111                 2.6205                 0.9807
 IR Inten    --      4.8549                15.5856                 9.8361

                     37                     38                     39
                      A                      A                      A
 Frequencies --    832.5788               842.0542               856.4970
 Red. masses --      4.8255                 2.3547                 4.5998
 Frc consts  --      1.9708                 0.9837                 1.9881
 IR Inten    --      1.8050                15.9791                 4.5669

                     40                     41                     42
                      A                      A                      A
 Frequencies --    942.3884               947.3909               952.6486
 Red. masses --      5.1853                 1.9899                 1.8185
 Frc consts  --      2.7132                 1.0523                 0.9723
 IR Inten    --     87.6219                16.2638                 4.6108

                     43                     44                     45
                      A                      A                      A
 Frequencies --    956.3992               977.5967               982.8503
 Red. masses --      1.4776                 4.5725                 1.2141
 Frc consts  --      0.7963                 2.5747                 0.6910
 IR Inten    --      9.8856                15.8221                 0.9118

                     46                     47                     48
                      A                      A                      A
 Frequencies --    992.5683              1040.7675              1060.0601
 Red. masses --      1.3398                 8.2236                 1.4805
 Frc consts  --      0.7777                 5.2483                 0.9802
 IR Inten    --      0.4228                71.9851                 0.1279

                     49                     50                     51
                      A                      A                      A
 Frequencies --   1068.7326              1090.1835              1129.0951
 Red. masses --      1.3884                 2.2739                 3.2390
 Frc consts  --      0.9344                 1.5923                 2.4329
 IR Inten    --      1.2092                 2.6771                46.3101

                     52                     53                     54
                      A                      A                      A
 Frequencies --   1156.9534              1180.7631              1212.8906
 Red. masses --      1.6670                 1.2471                 2.4547
 Frc consts  --      1.3147                 1.0244                 2.1276
 IR Inten    --      3.5307                 1.1564                22.1314

                     55                     56                     57
                      A                      A                      A
 Frequencies --   1218.9932              1235.6200              1243.1651
 Red. masses --      1.5941                 2.7695                 2.6694
 Frc consts  --      1.3956                 2.4912                 2.4306
 IR Inten    --      3.9895                12.4682                 3.7641

                     58                     59                     60
                      A                      A                      A
 Frequencies --   1263.8390              1285.5409              1306.0283
 Red. masses --      2.7784                 2.9342                 4.6238
 Frc consts  --      2.6148                 2.8571                 4.6468
 IR Inten    --     47.8777               132.3791                29.5033

                     61                     62                     63
                      A                      A                      A
 Frequencies --   1319.4255              1350.7259              1365.5372
 Red. masses --      2.9059                 7.7263                 8.9876
 Frc consts  --      2.9806                 8.3053                 9.8741
 IR Inten    --     65.3665                42.7418                13.7658

                     64                     65                     66
                      A                      A                      A
 Frequencies --   1421.7090              1428.2608              1456.1712
 Red. masses --      1.2107                 1.2213                 1.3460
 Frc consts  --      1.4418                 1.4679                 1.6816
 IR Inten    --      8.3382                 8.8709                 2.9641

                     67                     68                     69
                      A                      A                      A
 Frequencies --   1466.1731              1486.4349              1499.0524
 Red. masses --      1.9002                 2.0695                 4.9365
 Frc consts  --      2.4067                 2.6940                 6.5358
 IR Inten    --     56.4048                 4.0730               162.1690

                     70                     71                     72
                      A                      A                      A
 Frequencies --   1508.3880              1511.6486              1516.0838
 Red. masses --      1.0518                 1.1597                 1.1562
 Frc consts  --      1.4100                 1.5613                 1.5657
 IR Inten    --      1.7395                10.0568                 2.8684

                     73                     74                     75
                      A                      A                      A
 Frequencies --   1517.1576              1522.8653              1533.3737
 Red. masses --      1.3367                 1.0484                 1.0687
 Frc consts  --      1.8127                 1.4325                 1.4805
 IR Inten    --     32.4532                 0.6116                12.2454

                     76                     77                     78
                      A                      A                      A
 Frequencies --   1537.0338              1544.2331              1560.4424
 Red. masses --      1.0505                 1.0545                 1.0754
 Frc consts  --      1.4623                 1.4816                 1.5428
 IR Inten    --      5.2500                 4.4463                12.2143

                     79                     80                     81
                      A                      A                      A
 Frequencies --   1615.4370              1641.3800              1744.4725
 Red. masses --      5.7108                 6.2769                12.5178
 Frc consts  --      8.7806                 9.9635                22.4443
 IR Inten    --      9.5366                11.2946               174.3852

                     82                     83                     84
                      A                      A                      A
 Frequencies --   3042.0778              3051.2354              3054.9902
 Red. masses --      1.0402                 1.0389                 1.0393
 Frc consts  --      5.6715                 5.6989                 5.7147
 IR Inten    --     64.2741                32.6720                 9.7716

                     85                     86                     87
                      A                      A                      A
 Frequencies --   3062.3338              3111.7785              3114.0653
 Red. masses --      1.0388                 1.1023                 1.1020
 Frc consts  --      5.7397                 6.2889                 6.2963
 IR Inten    --     51.9209                16.1281                18.5131

                     88                     89                     90
                      A                      A                      A
 Frequencies --   3126.2648              3134.2128              3151.1717
 Red. masses --      1.1019                 1.0940                 1.1010
 Frc consts  --      6.3451                 6.3318                 6.4415
 IR Inten    --     52.6373                21.5238                19.6330

                     91                     92                     93
                      A                      A                      A
 Frequencies --   3175.4431              3175.8316              3178.1815
 Red. masses --      1.1069                 1.0977                 1.0963
 Frc consts  --      6.5762                 6.5228                 6.5242
 IR Inten    --     15.8826                 0.0169                10.8744

                     94                     95                     96
                      A                      A                      A
 Frequencies --   3193.3621              3209.4809              3223.0663
 Red. masses --      1.0887                 1.0906                 1.0973
 Frc consts  --      6.5413                 6.6187                 6.7163
 IR Inten    --      8.3987                12.2198                13.8797

 - Thermochemistry -
 -------------------
 Temperature   298.150 Kelvin.  Pressure   1.00000 Atm.
 Atom     1 has atomic number  6 and mass  12.00000

 Molecular mass:   277.08850 amu.
 Principal axes and moments of inertia in atomic units:
                           1         2         3
     Eigenvalues --  3168.974756814.654489244.43926
           X            0.99960   0.02806  -0.00342
           Y           -0.02804   0.99960   0.00439
           Z            0.00354  -0.00430   0.99998
 This molecule is an asymmetric top.
 Rotational symmetry number  1.
 Warning -- assumption of classical behavior for rotation
           may cause significant error
 Rotational temperatures (Kelvin)      0.02733     0.01271     0.00937
 Rotational constants (GHZ):           0.56950     0.26483     0.19522
 Zero-point vibrational energy     703565.8 (Joules/Mol)
                                  168.15627 (Kcal/Mol)
 Warning -- explicit consideration of  31 degrees of freedom as
           vibrations may cause significant error
 Vibrational temperatures:     28.03    39.43   105.10   113.37   165.39
          (Kelvin)            182.75   196.08   234.20   242.93   264.46
                              288.79   320.21   325.42   371.07   395.76
                              434.71   442.09   455.28   510.29   529.95
                              564.25   595.43   639.55   656.32   703.31
                              759.72   783.78   810.25   841.78   874.63
                              882.53   978.76  1028.73  1087.88  1107.54
                             1178.74  1197.90  1211.53  1232.31  1355.89
                             1363.08  1370.65  1376.05  1406.54  1414.10
                             1428.08  1497.43  1525.19  1537.67  1568.53
                             1624.52  1664.60  1698.85  1745.08  1753.86
                             1777.78  1788.64  1818.38  1849.61  1879.08
                             1898.36  1943.39  1964.70  2045.52  2054.95
                             2095.11  2109.50  2138.65  2156.80  2170.23
                             2174.93  2181.31  2182.85  2191.06  2206.18
                             2211.45  2221.81  2245.13  2324.25  2361.58
                             2509.91  4376.87  4390.05  4395.45  4406.02
                             4477.16  4480.45  4498.00  4509.43  4533.83
                             4568.75  4569.31  4572.69  4594.54  4617.73
                             4637.27

 Zero-point correction=                           0.267974 (Hartree/Particle)
 Thermal correction to Energy=                    0.286278
 Thermal correction to Enthalpy=                  0.287222
 Thermal correction to Gibbs Free Energy=         0.220877
 Sum of electronic and zero-point Energies=          -1217.056868
 Sum of electronic and thermal Energies=             -1217.038565
 Sum of electronic and thermal Enthalpies=           -1217.037621
 Sum of electronic and thermal Free Energies=        -1217.103965

                     E (Thermal)             CV                S
                      KCal/Mol        Cal/Mol-Kelvin    Cal/Mol-Kelvin
 Total                  179.642             68.920            139.634
 Electronic               0.000              0.000              0.000
 Translational            0.889              2.981             42.756
 Rotational               0.889              2.981             33.656
 Vibrational            177.864             62.958             63.221
 Vibration     1          0.593              1.986              6.686
 Vibration     2          0.593              1.984              6.009
 Vibration     3          0.599              1.967              4.070
 Vibration     4          0.600              1.963              3.921
 Vibration     5          0.608              1.937              3.184
 Vibration     6          0.611              1.926              2.991
 Vibration     7          0.614              1.917              2.855
 Vibration     8          0.623              1.888              2.517
 Vibration     9          0.625              1.881              2.448
 Vibration    10          0.631              1.862              2.289
 Vibration    11          0.638              1.839              2.127
 Vibration    12          0.648              1.807              1.938
 Vibration    13          0.650              1.801              1.909
 Vibration    14          0.667              1.749              1.676
 Vibration    15          0.677              1.719              1.564
 Vibration    16          0.694              1.670              1.405
 Vibration    17          0.697              1.660              1.377
 Vibration    18          0.703              1.642              1.328
 Vibration    19          0.731              1.566              1.145
 Vibration    20          0.741              1.537              1.087
 Vibration    21          0.760              1.487              0.992
 Vibration    22          0.777              1.440              0.913
 Vibration    23          0.804              1.373              0.813
 Vibration    24          0.814              1.347              0.777
 Vibration    25          0.845              1.275              0.687
 Vibration    26          0.883              1.188              0.592
 Vibration    27          0.900              1.151              0.555
 Vibration    28          0.919              1.111              0.518
 Vibration    29          0.942              1.064              0.476
 Vibration    30          0.967              1.015              0.436
 Vibration    31          0.973              1.004              0.427

 Optimization completed.
    -- Stationary point found.
 Normal termination of Gaussian 16 at Sat Dec 12 10:40:53 2020.

 ----------------------------------------------------------------------
 # B3LYP/6-311++G(d,p) empiricaldispersion=gd3bj scf=xqc pop=npa geom=c
 heck
 ----------------------------------------------------------------------

 ---------------------------------------
 CID_108212224_JID_9937_Energie_neutraal
 ---------------------------------------
 Structure from the checkpoint file:  "JID_9937.chk"
 Charge =  0 Multiplicity = 1

 SCF Done:  E(RB3LYP) =  -1217.56624743     A.U. after   17 cycles
 Normal termination of Gaussian 16 at Sat Dec 12 10:47:50 2020.

 ----------------------------------------------------------------------
 # B3LYP/6-311++G(d,p) empiricaldispersion=gd3bj scf=xqc pop=npa geom=c
 heck
 ----------------------------------------------------------------------

 -------------------------------------
 CID_108212224_JID_9937_Energie_kation
 -------------------------------------
 Structure from the checkpoint file:  "JID_9937.chk"
 Charge =  1 Multiplicity = 2

 SCF Done:  E(UB3LYP) =  -1217.24970677     A.U. after   32 cycles
 Normal termination of Gaussian 16 at Sat Dec 12 11:05:49 2020.
 Gaussian 16:  ES64L-G16RevA.03 25-Dec-2016

 ----------------------------------------------------------------------
 # B3LYP/6-311++G(d,p) empiricaldispersion=gd3bj scf=xqc pop=npa geom=c
 heck
 ----------------------------------------------------------------------

 ------------------------------------
 CID_108212224_JID_9937_Energie_anion
 ------------------------------------
 Structure from the checkpoint file:  "JID_9937.chk"
 Charge = -1 Multiplicity = 2

                         Standard orientation:
 ---------------------------------------------------------------------
 Center     Atomic      Atomic             Coordinates (Angstroms)
 Number     Number       Type             X           Y           Z
 ---------------------------------------------------------------------
      1          6           0        2.990039    1.687259    1.180800
      2          6           0        2.830380    1.019957   -0.203795
      3          6           0        2.011254    1.923773   -1.149656
      4          6           0        4.232057    0.835473   -0.820817
      5          6           0        2.162137   -0.343341   -0.036052
      6          6           0        0.833694   -0.674416    0.231002
      7         16           0        0.692462   -2.400239    0.232451
      8          7           0        2.362570   -2.589007   -0.069035
      9          7           0        2.955223   -1.459007   -0.198508
     10          6           0       -0.301663    0.237607    0.511277
     11          8           0       -0.137093    1.333392    1.030801
     12          6           0       -1.684978   -0.215012    0.139734
     13          6           0       -2.666011    0.692047   -0.306469
     14          6           0       -3.937320    0.189461   -0.598912
     15          6           0       -4.191126   -1.167641   -0.432543
     16          6           0       -3.150939   -1.992025    0.002900
     17          7           0       -1.931844   -1.524566    0.265624
     18          8           0       -2.382951    2.002744   -0.550046
     19          6           0       -2.703977    2.908603    0.515335
     20          1           0        3.498137    2.651870    1.064531
     21          1           0        3.600952    1.060817    1.840370
     22          1           0        2.020099    1.854632    1.650076
     23          1           0        2.551644    2.864549   -1.303095
     24          1           0        1.886319    1.445630   -2.127827
     25          1           0        1.026466    2.167492   -0.750737
     26          1           0        4.877263    0.225712   -0.184676
     27          1           0        4.179515    0.350974   -1.800824
     28          1           0        4.693095    1.821391   -0.946754
     29          1           0       -4.696705    0.871622   -0.968515
     30          1           0       -5.168401   -1.585627   -0.652636
     31          1           0       -3.296982   -3.061209    0.133479
     32          1           0       -3.769721    2.846384    0.770473
     33          1           0       -2.087287    2.691968    1.390774
     34          1           0       -2.476347    3.906121    0.136709
 ---------------------------------------------------------------------

 SCF Done:  E(UB3LYP) =  -1217.61850529     A.U. after   25 cycles

 The electronic state is 2-A.
 Alpha  occ. eigenvalues --  -88.74748 -19.03006 -18.94430 -14.20940 -14.20429
 Alpha  occ. eigenvalues --  -14.18952 -10.11926 -10.11248 -10.09809 -10.09386
 Alpha  occ. eigenvalues --  -10.08258 -10.07471 -10.07163 -10.06856 -10.06803
 Alpha  occ. eigenvalues --  -10.06706 -10.04037 -10.03476 -10.03406  -7.83224
 Alpha  occ. eigenvalues --   -5.79573  -5.79092  -5.78846  -0.94913  -0.89542
 Alpha  occ. eigenvalues --   -0.88840  -0.82869  -0.70932  -0.69242  -0.67310
 Alpha  occ. eigenvalues --   -0.65300  -0.63216  -0.59208  -0.56590  -0.56520
 Alpha  occ. eigenvalues --   -0.54394  -0.51161  -0.49361  -0.46124  -0.44481
 Alpha  occ. eigenvalues --   -0.40968  -0.39907  -0.38691  -0.37367  -0.35852
 Alpha  occ. eigenvalues --   -0.35320  -0.33707  -0.32756  -0.32246  -0.31388
 Alpha  occ. eigenvalues --   -0.30317  -0.29800  -0.29519  -0.28353  -0.28091
 Alpha  occ. eigenvalues --   -0.26958  -0.26821  -0.26325  -0.25347  -0.24838
 Alpha  occ. eigenvalues --   -0.23766  -0.21723  -0.21328  -0.20423  -0.19787
 Alpha  occ. eigenvalues --   -0.18322  -0.17777  -0.15270  -0.14996  -0.14038
 Alpha  occ. eigenvalues --   -0.12501  -0.11264  -0.10118   0.00435
 Alpha virt. eigenvalues --    0.07214   0.07826   0.08211   0.08566   0.08945
 Alpha virt. eigenvalues --    0.09898   0.10565   0.10825   0.11219   0.11644
 Alpha virt. eigenvalues --    0.11953   0.12843   0.13336   0.13736   0.13909

  Beta  occ. eigenvalues --  -88.74698 -19.03004 -18.93798 -14.20578 -14.20505
  Beta  occ. eigenvalues --  -14.18753 -10.11872 -10.11241 -10.09530 -10.09450
  Beta  occ. eigenvalues --  -10.08183 -10.07453 -10.07174 -10.06830 -10.06671
  Beta  occ. eigenvalues --  -10.06529 -10.04035 -10.03468 -10.03396  -7.83179
  Beta  occ. eigenvalues --   -5.79548  -5.79067  -5.78688  -0.94876  -0.89167
  Beta  occ. eigenvalues --   -0.87819  -0.82556  -0.70781  -0.68971  -0.67076
  Beta  occ. eigenvalues --   -0.65109  -0.62890  -0.59134  -0.56574  -0.56496
  Beta  occ. eigenvalues --   -0.53749  -0.50998  -0.49052  -0.45947  -0.44272
  Beta  occ. eigenvalues --   -0.40841  -0.39722  -0.38571  -0.37172  -0.35708
  Beta  occ. eigenvalues --   -0.35196  -0.33606  -0.32580  -0.32105  -0.31247
  Beta  occ. eigenvalues --   -0.29811  -0.29543  -0.29180  -0.27843  -0.27731
  Beta  occ. eigenvalues --   -0.26807  -0.26534  -0.26161  -0.24730  -0.24710
  Beta  occ. eigenvalues --   -0.22427  -0.21626  -0.21146  -0.20190  -0.19601
  Beta  occ. eigenvalues --   -0.18153  -0.16796  -0.14842  -0.14385  -0.13273
  Beta  occ. eigenvalues --   -0.11463  -0.10636  -0.09700
  Beta virt. eigenvalues --    0.06360   0.07205   0.08120   0.08473   0.08680
  Beta virt. eigenvalues --    0.09832   0.10126   0.10601   0.10828   0.11216
  Beta virt. eigenvalues --    0.11641   0.11953   0.13241   0.13479   0.13786

 Mulliken charges and spin densities:
               1          2
     1  C   -0.616796   0.010807
     2  C    1.407858  -0.022370
     3  C   -0.672072   0.004607
     4  C   -0.661945   0.001827
     5  C   -0.896752   0.089078
     6  C    0.682829  -0.018202
     7  S    0.135947   0.081590
     8  N    0.095707   0.165337
     9  N   -0.161636  -0.049614
    10  C   -0.671532   0.201816
    11  O   -0.287936   0.224781
    12  C   -0.500038   0.062910
    13  C   -0.528087   0.045752
    14  C    0.066856   0.016251
    15  C   -0.279217   0.142308
    16  C   -0.024411  -0.048333
    17  N    0.170552   0.101042
    18  O   -0.110831  -0.004344
    19  C   -0.276597  -0.002502
    20  H    0.115145   0.001773
    21  H    0.128391   0.001167
    22  H    0.205277  -0.001885
    23  H    0.124920  -0.000176
    24  H    0.123166   0.001264
    25  H    0.158142  -0.003984
    26  H    0.155501  -0.000208
    27  H    0.155656   0.001084
    28  H    0.116435   0.000404
    29  H    0.167534  -0.001532
    30  H    0.124201  -0.010161
    31  H    0.152178   0.002495
    32  H    0.095453   0.000962
    33  H    0.181957   0.004659
    34  H    0.124147   0.001395
 Sum of Mulliken charges =  -1.00000   1.00000

 Dipole moment (field-independent basis, Debye):
    X=             -4.4432    Y=              3.3765    Z=             -0.4342  Tot=              5.5974
 Quadrupole moment (field-independent basis, Debye-Ang):
   XX=           -153.2115   YY=           -144.4646   ZZ=           -130.7809
   XY=              9.0952   XZ=              0.4160   YZ=             -0.2640

 Summary of Natural Population Analysis:

                                       Natural Population
                Natural  -----------------------------------------------
    Atom  No    Charge         Core      Valence    Rydberg      Total
 -----------------------------------------------------------------------
      C    1   -0.28228      0.99963     2.27734    0.00531     3.28228
      C    2   -0.05758      0.99957     2.04740    0.01061     3.05758
      C    3   -0.28284      0.99963     2.27778    0.00542     3.28284
      C    4   -0.27937      0.99965     2.27357    0.00615     3.27937
      C    5    0.09139      0.99944     1.89061    0.01856     2.90861
      C    6   -0.14414      0.99942     2.13302    0.01170     3.14414
      S    7    0.31345      4.99948     2.66156    0.02551     7.68655
      N    8   -0.14480      0.99982     2.62755    0.01744     3.64480
      N    9   -0.14854      0.99970     2.63224    0.01659     3.64854
      C   10    0.28127      0.99956     1.69864    0.02052     2.71873
      O   11   -0.22776      0.99987     3.22201    0.00588     4.22776
      C   12    0.07284      0.99945     1.91260    0.01511     2.92716
      C   13    0.15977      0.99933     1.82723    0.01367     2.84023
      C   14   -0.10921      0.99953     2.10065    0.00904     3.10921
      C   15   -0.09290      0.99958     2.08479    0.00853     3.09290
      C   16    0.00565      0.99960     1.98075    0.01400     2.99435
      N   17   -0.20273      0.99967     2.69262    0.01043     3.70273
      O   18   -0.28796      0.99985     3.27714    0.01097     4.28796
      C   19   -0.09705      0.99959     2.08957    0.00788     3.09705
      H   20    0.08745      0.00000     0.41167    0.00088     0.41255
      H   21    0.09494      0.00000     0.40426    0.00079     0.40506
      H   22    0.11977      0.00000     0.37929    0.00094     0.38023
      H   23    0.08857      0.00000     0.41058    0.00086     0.41143
      H   24    0.09612      0.00000     0.40310    0.00078     0.40388
      H   25    0.11732      0.00000     0.38152    0.00117     0.38268
      H   26    0.10504      0.00000     0.39409    0.00088     0.39496
      H   27    0.10090      0.00000     0.39828    0.00081     0.39910
      H   28    0.08824      0.00000     0.41089    0.00086     0.41176
      H   29    0.09818      0.00000     0.40072    0.00110     0.40182
      H   30    0.09367      0.00000     0.40513    0.00120     0.40633
      H   31    0.08554      0.00000     0.41328    0.00118     0.41446
      H   32    0.07244      0.00000     0.42622    0.00134     0.42756
      H   33    0.10012      0.00000     0.39861    0.00127     0.39988
      H   34    0.08447      0.00000     0.41463    0.00090     0.41553
 =======================================================================
   * Total *   -0.00000     22.99237    49.75936    0.24827    73.00000

 Normal termination of Gaussian 16 at Sat Dec 12 11:19:19 2020.
