 Gaussian 16, Revision A.03,

 -----------------------------------------------------------
 # opt freq B3LYP/6-31G(d) empiricaldispersion=gd3bj scf=xqc
 -----------------------------------------------------------

 -------------------------------
 CID_127246025_JID_8870_neutraal
 -------------------------------
 Symbolic Z-matrix:
 Charge =  0 Multiplicity = 1

 SCF Done:  E(RB3LYP) =  -763.371883543     A.U. after   15 cycles
 SCF Done:  E(RB3LYP) =  -763.377879636     A.U. after   12 cycles
 SCF Done:  E(RB3LYP) =  -763.379289458     A.U. after   12 cycles
 SCF Done:  E(RB3LYP) =  -763.379812912     A.U. after   12 cycles
 SCF Done:  E(RB3LYP) =  -763.380018592     A.U. after   12 cycles
 SCF Done:  E(RB3LYP) =  -763.380097604     A.U. after   10 cycles
 SCF Done:  E(RB3LYP) =  -763.380137916     A.U. after   10 cycles
 SCF Done:  E(RB3LYP) =  -763.380154731     A.U. after    9 cycles
 SCF Done:  E(RB3LYP) =  -763.380166129     A.U. after   10 cycles
 SCF Done:  E(RB3LYP) =  -763.380178561     A.U. after   10 cycles
 SCF Done:  E(RB3LYP) =  -763.380187564     A.U. after    8 cycles
 SCF Done:  E(RB3LYP) =  -763.380187632     A.U. after    7 cycles
 SCF Done:  E(RB3LYP) =  -763.380187682     A.U. after    7 cycles
 SCF Done:  E(RB3LYP) =  -763.380187721     A.U. after    6 cycles
 SCF Done:  E(RB3LYP) =  -763.380187742     A.U. after    6 cycles
 Optimization completed.
    -- Stationary point found.
 Normal termination of Gaussian 16 at Fri Dec 11 22:20:45 2020.

 --------------------------------------------------------------------
 #N Geom=AllCheck Guess=TCheck SCRF=Check GenChk RB3LYP/6-31G(d) Freq
 --------------------------------------------------------------------

 Structure from the checkpoint file:  "JID_8870.chk"
 -------------------------------
 CID_127246025_JID_8870_neutraal
 -------------------------------
 Charge =  0 Multiplicity = 1

 SCF Done:  E(RB3LYP) =  -763.380187742     A.U. after    1 cycles

  Exact polarizability: 221.515 -10.139 189.508  -3.274   5.771 104.504
 Approx polarizability: 315.608 -21.593 305.237 -10.645  14.084 156.710

                      1                      2                      3
                      A                      A                      A
 Frequencies --     23.2038                28.3009                34.1139
 Red. masses --      3.0984                 3.2990                 3.6218
 Frc consts  --      0.0010                 0.0016                 0.0025
 IR Inten    --      0.0789                 0.1972                 0.1058

                      4                      5                      6
                      A                      A                      A
 Frequencies --     86.0885                97.6757               110.5452
 Red. masses --      4.1083                 4.3871                 4.2248
 Frc consts  --      0.0179                 0.0247                 0.0304
 IR Inten    --      1.0033                 0.5269                 0.1960

                      7                      8                      9
                      A                      A                      A
 Frequencies --    175.8908               201.1178               202.5092
 Red. masses --      3.1310                 2.3042                 1.2336
 Frc consts  --      0.0571                 0.0549                 0.0298
 IR Inten    --      2.7752                 5.9953                 0.4383

                     10                     11                     12
                      A                      A                      A
 Frequencies --    223.1782               250.2576               254.7782
 Red. masses --      2.3410                 1.7950                 1.5776
 Frc consts  --      0.0687                 0.0662                 0.0603
 IR Inten    --      0.7400                 1.7741                 1.4213

                     13                     14                     15
                      A                      A                      A
 Frequencies --    283.4216               311.8455               331.7548
 Red. masses --      4.0752                 2.4606                 4.3291
 Frc consts  --      0.1929                 0.1410                 0.2807
 IR Inten    --      1.7328                 3.4211                 0.1943

                     16                     17                     18
                      A                      A                      A
 Frequencies --    363.8413               369.0647               391.7981
 Red. masses --      4.0720                 4.2902                 3.0432
 Frc consts  --      0.3176                 0.3443                 0.2752
 IR Inten    --      0.7668                 2.6924                 1.6195

                     19                     20                     21
                      A                      A                      A
 Frequencies --    463.1491               503.9697               577.4756
 Red. masses --      3.6969                 3.8232                 2.4245
 Frc consts  --      0.4672                 0.5721                 0.4764
 IR Inten    --      0.3725                 1.9721                 2.5735

                     22                     23                     24
                      A                      A                      A
 Frequencies --    603.4666               639.4009               657.4092
 Red. masses --      3.8082                 5.4362                 5.3156
 Frc consts  --      0.8171                 1.3095                 1.3536
 IR Inten    --      5.5048                 1.7959                 7.0571

                     25                     26                     27
                      A                      A                      A
 Frequencies --    661.4622               680.1170               713.2766
 Red. masses --      4.0237                 4.7960                 4.1384
 Frc consts  --      1.0373                 1.3071                 1.2405
 IR Inten    --      3.5241                20.6004                 2.7935

                     28                     29                     30
                      A                      A                      A
 Frequencies --    738.6190               766.3722               808.4141
 Red. masses --      4.5208                 1.7692                 1.5120
 Frc consts  --      1.4531                 0.6122                 0.5822
 IR Inten    --      3.7251                 7.3932                51.8390

                     31                     32                     33
                      A                      A                      A
 Frequencies --    816.5597               832.7423               883.4723
 Red. masses --      2.0181                 2.2553                 2.1433
 Frc consts  --      0.7928                 0.9214                 0.9856
 IR Inten    --      7.0997                 6.4997                17.1980

                     34                     35                     36
                      A                      A                      A
 Frequencies --    886.6167               897.1653               913.8501
 Red. masses --      1.3379                 2.3576                 1.5325
 Frc consts  --      0.6197                 1.1181                 0.7541
 IR Inten    --      1.2128                 6.5904                 1.6362

                     37                     38                     39
                      A                      A                      A
 Frequencies --    937.9842               951.8024               955.4429
 Red. masses --      2.7546                 3.5732                 2.9521
 Frc consts  --      1.4279                 1.9072                 1.5878
 IR Inten    --      0.9140                 8.1215                 9.5842

                     40                     41                     42
                      A                      A                      A
 Frequencies --    985.4994               994.4544              1012.5598
 Red. masses --      1.9511                 1.2879                 6.4467
 Frc consts  --      1.1165                 0.7504                 3.8943
 IR Inten    --      1.1033                 0.2320                 5.0267

                     43                     44                     45
                      A                      A                      A
 Frequencies --   1031.6568              1056.2907              1067.6221
 Red. masses --      2.0721                 1.9808                 1.5319
 Frc consts  --      1.2994                 1.3022                 1.0287
 IR Inten    --     18.8482                31.3303                 9.0394

                     46                     47                     48
                      A                      A                      A
 Frequencies --   1073.9792              1110.0862              1129.8130
 Red. masses --      2.1404                 1.7499                 1.8166
 Frc consts  --      1.4546                 1.2705                 1.3662
 IR Inten    --     13.0184                 3.2144                13.4333

                     49                     50                     51
                      A                      A                      A
 Frequencies --   1140.6975              1154.1024              1157.1593
 Red. masses --      1.9482                 1.3521                 1.2999
 Frc consts  --      1.4936                 1.0611                 1.0255
 IR Inten    --      6.5738                10.9870                 3.7192

                     52                     53                     54
                      A                      A                      A
 Frequencies --   1184.0298              1201.5288              1207.7041
 Red. masses --      1.5165                 1.3040                 1.6470
 Frc consts  --      1.2526                 1.1091                 1.4153
 IR Inten    --     10.6272                12.5856                 3.3697

                     55                     56                     57
                      A                      A                      A
 Frequencies --   1221.4761              1234.5986              1255.7487
 Red. masses --      1.4676                 1.9214                 1.9036
 Frc consts  --      1.2901                 1.7255                 1.7686
 IR Inten    --      7.9089                19.6867                20.2466

                     58                     59                     60
                      A                      A                      A
 Frequencies --   1271.7666              1282.8933              1285.4138
 Red. masses --      1.9499                 1.8953                 2.0195
 Frc consts  --      1.8582                 1.8379                 1.9660
 IR Inten    --     16.1338                 4.6279                 9.8977

                     61                     62                     63
                      A                      A                      A
 Frequencies --   1312.0615              1324.1618              1333.3203
 Red. masses --      5.4407                 4.3994                 1.3167
 Frc consts  --      5.5184                 4.5449                 1.3791
 IR Inten    --      4.6033                25.6172                 1.4393

                     64                     65                     66
                      A                      A                      A
 Frequencies --   1355.1554              1367.9275              1385.8926
 Red. masses --      1.3446                 1.4644                 3.8077
 Frc consts  --      1.4549                 1.6145                 4.3090
 IR Inten    --      3.0118                 5.8744                21.0500

                     67                     68                     69
                      A                      A                      A
 Frequencies --   1396.3114              1402.9225              1431.9657
 Red. masses --      1.7355                 1.9075                 3.5414
 Frc consts  --      1.9936                 2.2120                 4.2785
 IR Inten    --     21.6338                19.3497                38.9760

                     70                     71                     72
                      A                      A                      A
 Frequencies --   1466.3811              1476.0982              1483.1464
 Red. masses --      1.8968                 1.6556                 1.2015
 Frc consts  --      2.4030                 2.1254                 1.5572
 IR Inten    --      3.1649                 7.3211                 1.1243

                     73                     74                     75
                      A                      A                      A
 Frequencies --   1494.7929              1508.6896              1516.0945
 Red. masses --      2.4137                 1.1006                 1.3750
 Frc consts  --      3.1776                 1.4760                 1.8620
 IR Inten    --     50.9189                 4.0326                18.0397

                     76                     77                     78
                      A                      A                      A
 Frequencies --   1519.4265              1521.6670              1526.1936
 Red. masses --      1.2126                 1.3765                 1.1955
 Frc consts  --      1.6494                 1.8779                 1.6407
 IR Inten    --      7.7588                16.8328                 9.9062

                     79                     80                     81
                      A                      A                      A
 Frequencies --   1531.4725              1539.0286              1550.5878
 Red. masses --      1.0520                 1.1828                 1.1067
 Frc consts  --      1.4538                 1.6506                 1.5678
 IR Inten    --      2.2258                20.7227                 1.3590

                     82                     83                     84
                      A                      A                      A
 Frequencies --   1584.1503              1637.2799              1645.5024
 Red. masses --      5.2587                 6.5862                 5.4600
 Frc consts  --      7.7754                10.4023                 8.7104
 IR Inten    --     27.5043                69.6714                69.0032

                     85                     86                     87
                      A                      A                      A
 Frequencies --   2905.3325              2921.6640              2935.6089
 Red. masses --      1.0733                 1.0663                 1.0797
 Frc consts  --      5.3377                 5.3629                 5.4824
 IR Inten    --     76.2206                88.5988               125.3482

                     88                     89                     90
                      A                      A                      A
 Frequencies --   3057.6108              3072.3650              3075.0496
 Red. masses --      1.0423                 1.0768                 1.0680
 Frc consts  --      5.7410                 5.9888                 5.9504
 IR Inten    --     37.7494                13.0637                43.9144

                     91                     92                     93
                      A                      A                      A
 Frequencies --   3076.4536              3084.3234              3119.4409
 Red. masses --      1.0678                 1.0708                 1.1039
 Frc consts  --      5.9543                 6.0015                 6.3288
 IR Inten    --     41.2653                45.9908                29.1956

                     94                     95                     96
                      A                      A                      A
 Frequencies --   3125.7342              3133.6129              3145.9631
 Red. masses --      1.1047                 1.0960                 1.1005
 Frc consts  --      6.3591                 6.3409                 6.4173
 IR Inten    --     33.2715                15.0684                23.9704

                     97                     98                     99
                      A                      A                      A
 Frequencies --   3184.1695              3191.6531              3208.4538
 Red. masses --      1.1031                 1.0875                 1.0945
 Frc consts  --      6.5895                 6.5269                 6.6385
 IR Inten    --      5.4022                 8.6402                17.9606

                    100                    101                    102
                      A                      A                      A
 Frequencies --   3241.0466              3258.9339              3298.9822
 Red. masses --      1.0922                 1.0944                 1.0995
 Frc consts  --      6.7596                 6.8481                 7.0500
 IR Inten    --      9.8998                13.3457                 0.7019

 - Thermochemistry -
 -------------------
 Temperature   298.150 Kelvin.  Pressure   1.00000 Atm.
 Atom     1 has atomic number  6 and mass  12.00000

 Molecular mass:   242.15315 amu.
 Principal axes and moments of inertia in atomic units:
                           1         2         3
     Eigenvalues --  2359.032277033.260648497.04661
           X            0.99985   0.01639   0.00475
           Y           -0.01636   0.99984  -0.00726
           Z           -0.00487   0.00718   0.99996
 This molecule is an asymmetric top.
 Rotational symmetry number  1.
 Warning -- assumption of classical behavior for rotation
           may cause significant error
 Rotational temperatures (Kelvin)      0.03672     0.01231     0.01019
 Rotational constants (GHZ):           0.76503     0.25660     0.21240
 Zero-point vibrational energy     807681.9 (Joules/Mol)
                                  193.04060 (Kcal/Mol)
 Warning -- explicit consideration of  22 degrees of freedom as
           vibrations may cause significant error
 Vibrational temperatures:     33.39    40.72    49.08   123.86   140.53
          (Kelvin)            159.05   253.07   289.36   291.37   321.10
                              360.06   366.57   407.78   448.68   477.32
                              523.49   531.00   563.71   666.37   725.10
                              830.86   868.25   919.96   945.87   951.70
                              978.54  1026.25  1062.71  1102.64  1163.13
                             1174.85  1198.13  1271.12  1275.64  1290.82
                             1314.83  1349.55  1369.43  1374.67  1417.91
                             1430.80  1456.85  1484.32  1519.77  1536.07
                             1545.22  1597.17  1625.55  1641.21  1660.50
                             1664.89  1703.55  1728.73  1737.62  1757.43
                             1776.31  1806.74  1829.79  1845.80  1849.42
                             1887.76  1905.17  1918.35  1949.77  1968.14
                             1993.99  2008.98  2018.49  2060.28  2109.80
                             2123.78  2133.92  2150.67  2170.67  2181.32
                             2186.12  2189.34  2195.85  2203.45  2214.32
                             2230.95  2279.24  2355.68  2367.51  4180.13
                             4203.62  4223.69  4399.22  4420.45  4424.31
                             4426.33  4437.65  4488.18  4497.23  4508.57
                             4526.34  4581.31  4592.08  4616.25  4663.14
                             4688.88  4746.50

 Zero-point correction=                           0.307630 (Hartree/Particle)
 Thermal correction to Energy=                    0.323564
 Thermal correction to Enthalpy=                  0.324508
 Thermal correction to Gibbs Free Energy=         0.262331
 Sum of electronic and zero-point Energies=           -763.072558
 Sum of electronic and thermal Energies=              -763.056624
 Sum of electronic and thermal Enthalpies=            -763.055680
 Sum of electronic and thermal Free Energies=         -763.117857

                     E (Thermal)             CV                S
                      KCal/Mol        Cal/Mol-Kelvin    Cal/Mol-Kelvin
 Total                  203.039             61.338            130.862
 Electronic               0.000              0.000              0.000
 Translational            0.889              2.981             42.354
 Rotational               0.889              2.981             33.311
 Vibrational            201.262             55.376             55.197
 Vibration     1          0.593              1.985              6.339
 Vibration     2          0.593              1.984              5.945
 Vibration     3          0.594              1.983              5.575
 Vibration     4          0.601              1.959              3.747
 Vibration     5          0.603              1.951              3.500
 Vibration     6          0.606              1.941              3.259
 Vibration     7          0.628              1.872              2.372
 Vibration     8          0.638              1.838              2.123
 Vibration     9          0.639              1.836              2.110
 Vibration    10          0.649              1.806              1.933
 Vibration    11          0.663              1.762              1.729
 Vibration    12          0.665              1.755              1.697
 Vibration    13          0.682              1.704              1.513
 Vibration    14          0.700              1.651              1.353
 Vibration    15          0.714              1.612              1.252
 Vibration    16          0.737              1.547              1.106
 Vibration    17          0.741              1.536              1.084
 Vibration    18          0.759              1.488              0.993
 Vibration    19          0.821              1.332              0.757
 Vibration    20          0.859              1.241              0.648
 Vibration    21          0.934              1.080              0.490
 Vibration    22          0.962              1.024              0.444

 Optimization completed.
    -- Stationary point found.
 Normal termination of Gaussian 16 at Fri Dec 11 22:35:31 2020.

 ----------------------------------------------------------------------
 # B3LYP/6-311++G(d,p) empiricaldispersion=gd3bj scf=xqc pop=npa geom=c
 heck
 ----------------------------------------------------------------------

 ---------------------------------------
 CID_127246025_JID_8870_Energie_neutraal
 ---------------------------------------
 Structure from the checkpoint file:  "JID_8870.chk"
 Charge =  0 Multiplicity = 1

 SCF Done:  E(RB3LYP) =  -763.576031323     A.U. after   16 cycles
 Normal termination of Gaussian 16 at Fri Dec 11 22:41:35 2020.

 ----------------------------------------------------------------------
 # B3LYP/6-311++G(d,p) empiricaldispersion=gd3bj scf=xqc pop=npa geom=c
 heck
 ----------------------------------------------------------------------

 -------------------------------------
 CID_127246025_JID_8870_Energie_kation
 -------------------------------------
 Structure from the checkpoint file:  "JID_8870.chk"
 Charge =  1 Multiplicity = 2

 SCF Done:  E(UB3LYP) =  -763.297455493     A.U. after   26 cycles
 Normal termination of Gaussian 16 at Fri Dec 11 22:54:45 2020.
 Gaussian 16:  ES64L-G16RevA.03 25-Dec-2016

 ----------------------------------------------------------------------
 # B3LYP/6-311++G(d,p) empiricaldispersion=gd3bj scf=xqc pop=npa geom=c
 heck
 ----------------------------------------------------------------------

 ------------------------------------
 CID_127246025_JID_8870_Energie_anion
 ------------------------------------
 Structure from the checkpoint file:  "JID_8870.chk"
 Charge = -1 Multiplicity = 2

                         Standard orientation:
 ---------------------------------------------------------------------
 Center     Atomic      Atomic             Coordinates (Angstroms)
 Number     Number       Type             X           Y           Z
 ---------------------------------------------------------------------
      1          6           0       -3.622265    0.656789   -1.578463
      2          7           0       -2.978612   -0.272080   -0.677360
      3          6           0       -3.754522   -1.456468   -0.332830
      4          6           0       -2.924329   -2.073563    0.790258
      5          6           0       -2.492659   -0.838093    1.602982
      6          6           0       -2.497401    0.329381    0.577968
      7          6           0       -1.137167    0.960850    0.349962
      8          6           0       -0.987154    2.348136    0.256391
      9          6           0        0.275948    2.863262   -0.026744
     10          6           0        1.345274    1.988891   -0.186654
     11          6           0        1.117328    0.609568   -0.035372
     12          7           0       -0.109083    0.118040    0.215662
     13          6           0        2.163648   -0.408320   -0.183110
     14          6           0        2.004592   -1.733944   -0.570549
     15          6           0        3.301046   -2.273042   -0.568834
     16          7           0        4.211985   -1.370360   -0.195536
     17          7           0        3.509001   -0.237409    0.032511
     18          6           0        4.231636    0.917237    0.530920
     19          1           0       -3.893627    0.143630   -2.507199
     20          1           0       -4.541527    1.109113   -1.153212
     21          1           0       -2.931500    1.468344   -1.831954
     22          1           0       -4.773053   -1.203906    0.028918
     23          1           0       -3.864844   -2.105681   -1.209246
     24          1           0       -2.044269   -2.564102    0.363684
     25          1           0       -3.480704   -2.804271    1.384812
     26          1           0       -1.509379   -0.967269    2.058289
     27          1           0       -3.214193   -0.627058    2.399014
     28          1           0       -3.189789    1.121304    0.919812
     29          1           0       -1.844395    3.000525    0.392038
     30          1           0        0.425411    3.934054   -0.134249
     31          1           0        2.325067    2.367096   -0.449382
     32          1           0        1.065647   -2.204951   -0.816397
     33          1           0        3.618705   -3.277683   -0.814522
     34          1           0        5.165240    0.548936    0.955838
     35          1           0        4.462184    1.626901   -0.271950
     36          1           0        3.648136    1.423589    1.303213
 ---------------------------------------------------------------------

 SCF Done:  E(UB3LYP) =  -763.572908460     A.U. after   33 cycles
 SCF Done:  E(UB3LYP) =  -763.572908460     a.u. after    1 cycles

 The electronic state is 2-A.
 Alpha  occ. eigenvalues --  -14.25252 -14.19170 -14.19117 -14.14513 -10.09734
 Alpha  occ. eigenvalues --  -10.08640 -10.08299 -10.07885 -10.06926 -10.06892
 Alpha  occ. eigenvalues --  -10.06105 -10.06020 -10.05818 -10.05493 -10.04229
 Alpha  occ. eigenvalues --  -10.03873 -10.02771 -10.02334  -0.91611  -0.82816
 Alpha  occ. eigenvalues --   -0.79594  -0.71424  -0.67720  -0.67079  -0.65977
 Alpha  occ. eigenvalues --   -0.63498  -0.59243  -0.57863  -0.56648  -0.50639
 Alpha  occ. eigenvalues --   -0.49887  -0.47764  -0.46678  -0.44415  -0.43286
 Alpha  occ. eigenvalues --   -0.40402  -0.38499  -0.36666  -0.36069  -0.35464
 Alpha  occ. eigenvalues --   -0.34621  -0.33279  -0.32859  -0.31944  -0.30487
 Alpha  occ. eigenvalues --   -0.30077  -0.29130  -0.28161  -0.27916  -0.27642
 Alpha  occ. eigenvalues --   -0.26478  -0.25882  -0.25275  -0.24433  -0.23681
 Alpha  occ. eigenvalues --   -0.23191  -0.22374  -0.21418  -0.16829  -0.15968
 Alpha  occ. eigenvalues --   -0.14198  -0.12639  -0.11398  -0.10450  -0.09630
 Alpha  occ. eigenvalues --    0.05040
 Alpha virt. eigenvalues --    0.06887   0.07680   0.08138   0.08726   0.09383
 Alpha virt. eigenvalues --    0.09605   0.10392   0.10708   0.10883   0.10981
 Alpha virt. eigenvalues --    0.11401   0.12109   0.13020   0.13176   0.13337

  Beta  occ. eigenvalues --  -14.25076 -14.19175 -14.18963 -14.14115 -10.09740
  Beta  occ. eigenvalues --  -10.08630 -10.08297 -10.07861 -10.06975 -10.06908
  Beta  occ. eigenvalues --  -10.06018 -10.05867 -10.05827 -10.05491 -10.04302
  Beta  occ. eigenvalues --  -10.03661 -10.02551 -10.02246  -0.91350  -0.82778
  Beta  occ. eigenvalues --   -0.79047  -0.71230  -0.67670  -0.66823  -0.65537
  Beta  occ. eigenvalues --   -0.63340  -0.59042  -0.57798  -0.56602  -0.50158
  Beta  occ. eigenvalues --   -0.49692  -0.47748  -0.46596  -0.44187  -0.43190
  Beta  occ. eigenvalues --   -0.40288  -0.38455  -0.36573  -0.35849  -0.35162
  Beta  occ. eigenvalues --   -0.34487  -0.33176  -0.32782  -0.31915  -0.30428
  Beta  occ. eigenvalues --   -0.29993  -0.28986  -0.27963  -0.27749  -0.27344
  Beta  occ. eigenvalues --   -0.26238  -0.25584  -0.25237  -0.24054  -0.23458
  Beta  occ. eigenvalues --   -0.23107  -0.22271  -0.21326  -0.16511  -0.14538
  Beta  occ. eigenvalues --   -0.13208  -0.12081  -0.10954  -0.10382  -0.08649
  Beta virt. eigenvalues --    0.06976   0.07697   0.08212   0.08686   0.09356
  Beta virt. eigenvalues --    0.09555   0.10097   0.10452   0.10903   0.10966
  Beta virt. eigenvalues --    0.11023   0.11436   0.12102   0.12946   0.13166

 Mulliken charges and spin densities:
               1          2
     1  C    0.121408  -0.421484
     2  N    0.184080   0.060622
     3  C    0.227377  -0.340983
     4  C   -0.644676   0.124001
     5  C   -0.267971  -0.111443
     6  C   -0.403542   0.082940
     7  C    0.046888  -0.021495
     8  C   -0.048504   0.038276
     9  C   -0.547997   0.166858
    10  C   -0.266173  -0.025754
    11  C   -0.057288   0.098010
    12  N    0.222947   0.189725
    13  C   -0.468389  -0.024345
    14  C    0.140702   0.171171
    15  C   -0.312015  -0.035118
    16  N   -0.269127   0.078734
    17  N    0.270877   0.058843
    18  C   -0.257829  -0.115234
    19  H   -0.014587   0.142993
    20  H   -0.100011   0.196781
    21  H    0.056888   0.074446
    22  H   -0.045278   0.125074
    23  H    0.085972   0.057007
    24  H    0.149244  -0.016845
    25  H    0.051751   0.079670
    26  H    0.170827   0.025725
    27  H    0.094749   0.015030
    28  H    0.093694   0.057941
    29  H    0.115162  -0.002272
    30  H   -0.003505   0.134373
    31  H    0.104341  -0.016030
    32  H    0.136820  -0.000423
    33  H    0.118085   0.006431
    34  H    0.141805  -0.000813
    35  H    0.030329   0.138638
    36  H    0.142943   0.008951
 Sum of Mulliken charges =  -1.00000   1.00000

 Dipole moment (field-independent basis, Debye):
    X=             -1.5173    Y=              0.1211    Z=              1.2588  Tot=              1.9752
 Quadrupole moment (field-independent basis, Debye-Ang):
   XX=           -171.6600   YY=           -131.5501   ZZ=           -123.0550
   XY=             10.0197   XZ=             -0.2390   YZ=              0.7752

 Summary of Natural Population Analysis:

                                       Natural Population
                Natural  -----------------------------------------------
    Atom  No    Charge         Core      Valence    Rydberg      Total
 -----------------------------------------------------------------------
      C    1   -0.17526      0.99965     2.16711    0.00849     3.17526
      N    2   -0.27682      0.99970     2.76557    0.01156     3.77682
      C    3   -0.08182      0.99963     2.07054    0.01165     3.08182
      C    4   -0.19448      0.99963     2.18741    0.00744     3.19448
      C    5   -0.18974      0.99963     2.18252    0.00759     3.18974
      C    6   -0.01079      0.99956     1.99729    0.01394     3.01079
      C    7    0.09038      0.99951     1.89459    0.01552     2.90962
      C    8   -0.09446      0.99950     2.08590    0.00906     3.09446
      C    9   -0.05404      0.99957     2.04435    0.01012     3.05404
      C   10   -0.13648      0.99953     2.12827    0.00868     3.13648
      C   11    0.12331      0.99951     1.86452    0.01266     2.87669
      N   12   -0.18630      0.99965     2.67531    0.01135     3.68630
      C   13    0.08115      0.99951     1.90765    0.01169     2.91885
      C   14   -0.13604      0.99952     2.12877    0.00776     3.13604
      C   15   -0.03713      0.99965     2.02296    0.01452     3.03713
      N   16   -0.14922      0.99974     2.63692    0.01257     3.64922
      N   17   -0.08974      0.99963     2.57767    0.01244     3.58974
      C   18   -0.17449      0.99965     2.16828    0.00656     3.17449
      H   19    0.09163      0.00000     0.40752    0.00085     0.40837
      H   20    0.07520      0.00000     0.42267    0.00213     0.42480
      H   21    0.10251      0.00000     0.39644    0.00104     0.39749
      H   22    0.07300      0.00000     0.42516    0.00185     0.42700
      H   23    0.09247      0.00000     0.40648    0.00104     0.40753
      H   24    0.10426      0.00000     0.39437    0.00137     0.39574
      H   25    0.09298      0.00000     0.40596    0.00105     0.40702
      H   26    0.11289      0.00000     0.38595    0.00115     0.38711
      H   27    0.09086      0.00000     0.40809    0.00106     0.40914
      H   28    0.08136      0.00000     0.41660    0.00204     0.41864
      H   29    0.09286      0.00000     0.40616    0.00098     0.40714
      H   30    0.09024      0.00000     0.40887    0.00089     0.40976
      H   31    0.09524      0.00000     0.40320    0.00155     0.40476
      H   32    0.11054      0.00000     0.38858    0.00089     0.38946
      H   33    0.08921      0.00000     0.40986    0.00093     0.41079
      H   34    0.10357      0.00000     0.39511    0.00132     0.39643
      H   35    0.09148      0.00000     0.40665    0.00188     0.40852
      H   36    0.10167      0.00000     0.39739    0.00094     0.39833
 =======================================================================
   * Total *    0.00000     17.99277    46.79068    0.21655    65.00000

 Normal termination of Gaussian 16 at Fri Dec 11 23:12:02 2020.
