 Gaussian 16, Revision A.03,

 -----------------------------------------------------------
 # opt freq B3LYP/6-31G(d) empiricaldispersion=gd3bj scf=xqc
 -----------------------------------------------------------

 ------------------------------
 CID_138592678_JID_199_neutraal
 ------------------------------
 Symbolic Z-matrix:
 Charge =  0 Multiplicity = 1

 SCF Done:  E(RB3LYP) =  -768.027947848     A.U. after   14 cycles
 SCF Done:  E(RB3LYP) =  -768.036989324     A.U. after   13 cycles
 SCF Done:  E(RB3LYP) =  -768.039928059     A.U. after   12 cycles
 SCF Done:  E(RB3LYP) =  -768.040582374     A.U. after   12 cycles
 SCF Done:  E(RB3LYP) =  -768.040828633     A.U. after   11 cycles
 SCF Done:  E(RB3LYP) =  -768.040950019     A.U. after   12 cycles
 SCF Done:  E(RB3LYP) =  -768.040993885     A.U. after   11 cycles
 SCF Done:  E(RB3LYP) =  -768.041014934     A.U. after   10 cycles
 SCF Done:  E(RB3LYP) =  -768.041023267     A.U. after   10 cycles
 SCF Done:  E(RB3LYP) =  -768.041036127     A.U. after   10 cycles
 SCF Done:  E(RB3LYP) =  -768.041091295     A.U. after   11 cycles
 SCF Done:  E(RB3LYP) =  -768.041091726     A.U. after    9 cycles
 SCF Done:  E(RB3LYP) =  -768.041091689     A.U. after   10 cycles
 SCF Done:  E(RB3LYP) =  -768.041091886     A.U. after    9 cycles
 SCF Done:  E(RB3LYP) =  -768.041091910     A.U. after    8 cycles
 Optimization completed.
    -- Stationary point found.
 Normal termination of Gaussian 16 at Tue Dec  8 10:28:12 2020.

 --------------------------------------------------------------------
 #N Geom=AllCheck Guess=TCheck SCRF=Check GenChk RB3LYP/6-31G(d) Freq
 --------------------------------------------------------------------

 Structure from the checkpoint file:  "JID_199.chk"
 ------------------------------
 CID_138592678_JID_199_neutraal
 ------------------------------
 Charge =  0 Multiplicity = 1

 SCF Done:  E(RB3LYP) =  -768.041091910     A.U. after    1 cycles

  Exact polarizability: 134.830   5.599  98.060   6.366   0.699  95.940
 Approx polarizability: 185.700  13.572 129.240  17.140   3.353 148.764

                      1                      2                      3
                      A                      A                      A
 Frequencies --     30.3765                35.0819                59.8304
 Red. masses --      3.7817                 5.2730                 2.6118
 Frc consts  --      0.0021                 0.0038                 0.0055
 IR Inten    --      0.0742                 1.3565                 0.0305

                      4                      5                      6
                      A                      A                      A
 Frequencies --     89.6048               150.3803               185.4380
 Red. masses --      3.0301                 2.1770                 2.3509
 Frc consts  --      0.0143                 0.0290                 0.0476
 IR Inten    --      0.0324                 0.3384                 0.4601

                      7                      8                      9
                      A                      A                      A
 Frequencies --    209.5249               218.6429               241.0962
 Red. masses --      2.2968                 1.3810                 1.2117
 Frc consts  --      0.0594                 0.0389                 0.0415
 IR Inten    --      2.2710                 0.7940                 0.8545

                     10                     11                     12
                      A                      A                      A
 Frequencies --    248.7324               272.4533               315.2829
 Red. masses --      1.4265                 1.8982                 1.2196
 Frc consts  --      0.0520                 0.0830                 0.0714
 IR Inten    --      0.3979                 0.2963                34.0910

                     13                     14                     15
                      A                      A                      A
 Frequencies --    343.0505               366.9154               391.6757
 Red. masses --      2.0724                 2.7754                 2.7128
 Frc consts  --      0.1437                 0.2201                 0.2452
 IR Inten    --      1.0074                 0.4063                 2.8945

                     16                     17                     18
                      A                      A                      A
 Frequencies --    435.6313               464.4609               528.6662
 Red. masses --      2.6005                 2.8056                 2.6789
 Frc consts  --      0.2908                 0.3566                 0.4411
 IR Inten    --      1.2093                 0.4573                 0.8017

                     19                     20                     21
                      A                      A                      A
 Frequencies --    637.1336               656.4868               690.9860
 Red. masses --      4.4198                 3.9948                 1.4713
 Frc consts  --      1.0571                 1.0144                 0.4139
 IR Inten    --      5.9097                83.0735                34.6916

                     22                     23                     24
                      A                      A                      A
 Frequencies --    759.5871               799.5216               852.9622
 Red. masses --      1.8279                 2.8567                 1.5527
 Frc consts  --      0.6214                 1.0759                 0.6656
 IR Inten    --      0.9186                11.5260                10.6153

                     25                     26                     27
                      A                      A                      A
 Frequencies --    886.6935               920.7681               942.6778
 Red. masses --      2.5270                 1.4819                 1.1789
 Frc consts  --      1.1706                 0.7402                 0.6173
 IR Inten    --      3.5695                61.7219                 1.9582

                     28                     29                     30
                      A                      A                      A
 Frequencies --    954.0673               962.9701               978.5645
 Red. masses --      1.2421                 1.6969                 1.6726
 Frc consts  --      0.6661                 0.9271                 0.9437
 IR Inten    --      1.0586                 5.9298                 1.3869

                     31                     32                     33
                      A                      A                      A
 Frequencies --    987.3553              1056.6461              1094.6244
 Red. masses --      1.7005                 1.8500                 2.2056
 Frc consts  --      0.9768                 1.2169                 1.5571
 IR Inten    --      1.4151                 0.5026                 0.0802

                     34                     35                     36
                      A                      A                      A
 Frequencies --   1125.8833              1138.4639              1156.7350
 Red. masses --      1.7762                 1.0968                 1.9021
 Frc consts  --      1.3266                 0.8375                 1.4995
 IR Inten    --      4.3643                 0.1771                 1.7235

                     37                     38                     39
                      A                      A                      A
 Frequencies --   1182.4792              1202.8208              1241.5125
 Red. masses --      1.7259                 1.7528                 1.2942
 Frc consts  --      1.4219                 1.4941                 1.1753
 IR Inten    --      2.2982                 7.4458                 1.1257

                     40                     41                     42
                      A                      A                      A
 Frequencies --   1297.1161              1317.6272              1360.5978
 Red. masses --      1.3301                 1.2556                 1.2717
 Frc consts  --      1.3185                 1.2843                 1.3870
 IR Inten    --      3.6629                 0.5806                20.1049

                     43                     44                     45
                      A                      A                      A
 Frequencies --   1369.1737              1382.2210              1396.5609
 Red. masses --      1.3441                 1.3523                 1.3952
 Frc consts  --      1.4845                 1.5222                 1.6032
 IR Inten    --      5.4409                 1.5148                 1.0428

                     46                     47                     48
                      A                      A                      A
 Frequencies --   1404.9053              1427.6488              1439.9204
 Red. masses --      1.3837                 1.2612                 1.2556
 Frc consts  --      1.6091                 1.5146                 1.5338
 IR Inten    --      1.2546                 4.1964                 3.3677

                     49                     50                     51
                      A                      A                      A
 Frequencies --   1446.4911              1517.9526              1521.9430
 Red. masses --      1.2283                 1.0566                 1.0542
 Frc consts  --      1.5142                 1.4344                 1.4387
 IR Inten    --      5.0349                 2.1803                 0.9265

                     52                     53                     54
                      A                      A                      A
 Frequencies --   1527.0864              1527.9460              1534.7729
 Red. masses --      1.0468                 1.0411                 1.0516
 Frc consts  --      1.4383                 1.4321                 1.4595
 IR Inten    --      1.1305                 4.0490                 2.0771

                     55                     56                     57
                      A                      A                      A
 Frequencies --   1539.8574              1546.5660              1661.3506
 Red. masses --      1.0687                 1.0458                 1.1503
 Frc consts  --      1.4930                 1.4738                 1.8706
 IR Inten    --      2.9544                 9.0445                20.0987

                     58                     59                     60
                      A                      A                      A
 Frequencies --   1686.0245              3005.5845              3032.1800
 Red. masses --      4.9361                 1.0819                 1.0749
 Frc consts  --      8.2673                 5.7581                 5.8227
 IR Inten    --     13.2492                16.4669                 2.1336

                     61                     62                     63
                      A                      A                      A
 Frequencies --   3036.1189              3043.2965              3044.3755
 Red. masses --      1.0398                 1.0515                 1.0509
 Frc consts  --      5.6472                 5.7376                 5.7385
 IR Inten    --     18.4801                20.7083                41.3695

                     64                     65                     66
                      A                      A                      A
 Frequencies --   3046.5772              3085.8538              3096.7563
 Red. masses --      1.0477                 1.0971                 1.0999
 Frc consts  --      5.7292                 6.1553                 6.2145
 IR Inten    --     50.9218                34.6098                 0.9032

                     67                     68                     69
                      A                      A                      A
 Frequencies --   3104.5301              3107.3652              3126.8408
 Red. masses --      1.0992                 1.1011                 1.0995
 Frc consts  --      6.2417                 6.2640                 6.3335
 IR Inten    --     69.3932                49.6390                23.5164

                     70                     71                     72
                      A                      A                      A
 Frequencies --   3129.7020              3133.2900              3158.9118
 Red. masses --      1.1000                 1.1005                 1.0862
 Frc consts  --      6.3480                 6.3658                 6.3859
 IR Inten    --     32.9116                47.3981                11.1927

                     73                     74                     75
                      A                      A                      A
 Frequencies --   3196.4959              3489.9523              3587.5106
 Red. masses --      1.0943                 1.0471                 1.0978
 Frc consts  --      6.5876                 7.5140                 8.3246
 IR Inten    --      4.7940                 6.6739                10.4931

 - Thermochemistry -
 -------------------
 Temperature   298.150 Kelvin.  Pressure   1.00000 Atm.
 Atom     1 has atomic number  6 and mass  12.00000

 Molecular mass:   159.10817 amu.
 Principal axes and moments of inertia in atomic units:
                           1         2         3
     Eigenvalues --  1320.710152547.358413109.80438
           X            0.99987  -0.01301  -0.00946
           Y            0.01295   0.99990  -0.00637
           Z            0.00954   0.00624   0.99994
 This molecule is an asymmetric top.
 Rotational symmetry number  1.
 Warning -- assumption of classical behavior for rotation
           may cause significant error
 Rotational temperatures (Kelvin)      0.06558     0.03400     0.02785
 Rotational constants (GHZ):           1.36649     0.70848     0.58034
 Zero-point vibrational energy     634899.4 (Joules/Mol)
                                  151.74459 (Kcal/Mol)
 Warning -- explicit consideration of  18 degrees of freedom as
           vibrations may cause significant error
 Vibrational temperatures:     43.70    50.48    86.08   128.92   216.36
          (Kelvin)            266.80   301.46   314.58   346.88   357.87
                              392.00   453.62   493.57   527.91   563.53
                              626.78   668.26   760.63   916.69   944.54
                              994.17  1092.88  1150.33  1227.22  1275.75
                             1324.78  1356.30  1372.69  1385.50  1407.94
                             1420.58  1520.28  1574.92  1619.89  1638.00
                             1664.28  1701.32  1730.59  1786.26  1866.26
                             1895.77  1957.60  1969.94  1988.71  2009.34
                             2021.35  2054.07  2071.72  2081.18  2184.00
                             2189.74  2197.14  2198.37  2208.20  2215.51
                             2225.16  2390.31  2425.81  4324.37  4362.63
                             4368.30  4378.62  4380.18  4383.35  4439.86
                             4455.54  4466.73  4470.81  4498.83  4502.94
                             4508.11  4544.97  4599.04  5021.26  5161.63

 Zero-point correction=                           0.241820 (Hartree/Particle)
 Thermal correction to Energy=                    0.255099
 Thermal correction to Enthalpy=                  0.256043
 Thermal correction to Gibbs Free Energy=         0.201233
 Sum of electronic and zero-point Energies=           -767.799272
 Sum of electronic and thermal Energies=              -767.785993
 Sum of electronic and thermal Enthalpies=            -767.785048
 Sum of electronic and thermal Free Energies=         -767.839859

                     E (Thermal)             CV                S
                      KCal/Mol        Cal/Mol-Kelvin    Cal/Mol-Kelvin
 Total                  160.077             48.055            115.359
 Electronic               0.000              0.000              0.000
 Translational            0.889              2.981             41.102
 Rotational               0.889              2.981             30.726
 Vibrational            158.300             42.093             43.531
 Vibration     1          0.594              1.984              5.805
 Vibration     2          0.594              1.982              5.519
 Vibration     3          0.597              1.973              4.463
 Vibration     4          0.602              1.957              3.669
 Vibration     5          0.618              1.902              2.667
 Vibration     6          0.632              1.860              2.273
 Vibration     7          0.642              1.826              2.048
 Vibration     8          0.646              1.813              1.970
 Vibration     9          0.658              1.777              1.795
 Vibration    10          0.662              1.765              1.740
 Vibration    11          0.675              1.724              1.581
 Vibration    12          0.703              1.644              1.334
 Vibration    13          0.722              1.589              1.198
 Vibration    14          0.740              1.540              1.093
 Vibration    15          0.759              1.488              0.994
 Vibration    16          0.796              1.393              0.840
 Vibration    17          0.822              1.329              0.753
 Vibration    18          0.884              1.187              0.590

 Optimization completed.
    -- Stationary point found.
 Normal termination of Gaussian 16 at Tue Dec  8 10:33:51 2020.

 ----------------------------------------------------------------------
 # B3LYP/6-311++G(d,p) empiricaldispersion=gd3bj scf=xqc pop=npa geom=c
 heck
 ----------------------------------------------------------------------

 --------------------------------------
 CID_138592678_JID_199_Energie_neutraal
 --------------------------------------
 Structure from the checkpoint file:  "JID_199.chk"
 Charge =  0 Multiplicity = 1

 SCF Done:  E(RB3LYP) =  -768.181969733     A.U. after   14 cycles
 Normal termination of Gaussian 16 at Tue Dec  8 10:37:40 2020.

 ----------------------------------------------------------------------
 # B3LYP/6-311++G(d,p) empiricaldispersion=gd3bj scf=xqc pop=npa geom=c
 heck
 ----------------------------------------------------------------------

 ------------------------------------
 CID_138592678_JID_199_Energie_kation
 ------------------------------------
 Structure from the checkpoint file:  "JID_199.chk"
 Charge =  1 Multiplicity = 2

 SCF Done:  E(UB3LYP) =  -767.893327102     A.U. after   20 cycles
 Normal termination of Gaussian 16 at Tue Dec  8 10:45:27 2020.
 Gaussian 16:  ES64L-G16RevA.03 25-Dec-2016

 ----------------------------------------------------------------------
 # B3LYP/6-311++G(d,p) empiricaldispersion=gd3bj scf=xqc pop=npa geom=c
 heck
 ----------------------------------------------------------------------

 -----------------------------------
 CID_138592678_JID_199_Energie_anion
 -----------------------------------
 Structure from the checkpoint file:  "JID_199.chk"
 Charge = -1 Multiplicity = 2

                         Standard orientation:
 ---------------------------------------------------------------------
 Center     Atomic      Atomic             Coordinates (Angstroms)
 Number     Number       Type             X           Y           Z
 ---------------------------------------------------------------------
      1          6           0        0.393927    2.859748    0.205774
      2          6           0        0.893803    1.593438   -0.492199
      3          6           0        1.150367    0.412858    0.470696
      4          6           0       -0.038120    0.127890    1.371746
      5          6           0       -1.294196   -0.160709    1.012236
      6         16           0       -1.946381   -0.256298   -0.636603
      7          7           0       -3.557486   -0.785178   -0.245188
      8          6           0        1.613506   -0.877509   -0.265190
      9          6           0        2.818947   -0.628978   -1.181625
     10          6           0        1.939911   -1.992080    0.737648
     11          1           0       -0.576290    2.692054    0.682756
     12          1           0        0.284713    3.682969   -0.509009
     13          1           0        1.097622    3.183333    0.983184
     14          1           0        0.173533    1.293995   -1.265292
     15          1           0        1.826458    1.822223   -1.019233
     16          1           0        1.980970    0.715824    1.125955
     17          1           0        0.149776    0.141734    2.443574
     18          1           0       -2.069036   -0.366412    1.746541
     19          1           0       -4.230827   -0.116794   -0.611736
     20          1           0       -3.733234   -1.689623   -0.676245
     21          1           0        0.775721   -1.219938   -0.888611
     22          1           0        3.652778   -0.186832   -0.619993
     23          1           0        3.173922   -1.573367   -1.610200
     24          1           0        2.581044    0.040402   -2.013398
     25          1           0        1.079348   -2.224025    1.371870
     26          1           0        2.236334   -2.910183    0.217545
     27          1           0        2.772792   -1.696287    1.389734
 ---------------------------------------------------------------------

 SCF Done:  E(UB3LYP) =  -768.168381528     A.U. after   33 cycles
 SCF Done:  E(UB3LYP) =  -768.168381529     a.u. after    1 cycles

 The electronic state is 2-A.
 Alpha  occ. eigenvalues --  -88.75505 -14.20571 -10.08219 -10.07547 -10.07323
 Alpha  occ. eigenvalues --  -10.06427 -10.06082 -10.06016 -10.05728 -10.05631
 Alpha  occ. eigenvalues --   -7.83870  -5.80331  -5.79880  -5.79244  -0.78222
 Alpha  occ. eigenvalues --   -0.73054  -0.67486  -0.65773  -0.59673  -0.58435
 Alpha  occ. eigenvalues --   -0.55509  -0.49674  -0.46970  -0.41823  -0.38320
 Alpha  occ. eigenvalues --   -0.37832  -0.35585  -0.34715  -0.33937  -0.32583
 Alpha  occ. eigenvalues --   -0.30628  -0.29900  -0.28761  -0.27838  -0.27463
 Alpha  occ. eigenvalues --   -0.25608  -0.24843  -0.23686  -0.22476  -0.21715
 Alpha  occ. eigenvalues --   -0.20958  -0.19324  -0.15065  -0.10376   0.04711
 Alpha virt. eigenvalues --    0.06212   0.07378   0.07896   0.08919   0.09778
 Alpha virt. eigenvalues --    0.09975   0.10178   0.10680   0.10937   0.11582
 Alpha virt. eigenvalues --    0.12103   0.12681   0.13275   0.13675   0.13748

  Beta  occ. eigenvalues --  -88.75484 -14.20430 -10.08213 -10.07542 -10.07321
  Beta  occ. eigenvalues --  -10.06422 -10.06063 -10.06013 -10.05714 -10.05616
  Beta  occ. eigenvalues --   -7.83851  -5.80272  -5.79858  -5.79232  -0.77972
  Beta  occ. eigenvalues --   -0.73031  -0.67443  -0.65734  -0.59591  -0.58402
  Beta  occ. eigenvalues --   -0.55426  -0.49640  -0.46933  -0.41778  -0.38275
  Beta  occ. eigenvalues --   -0.37667  -0.35561  -0.34694  -0.33904  -0.32549
  Beta  occ. eigenvalues --   -0.30544  -0.29831  -0.28738  -0.27810  -0.27422
  Beta  occ. eigenvalues --   -0.25572  -0.24806  -0.23666  -0.22455  -0.21688
  Beta  occ. eigenvalues --   -0.20931  -0.19281  -0.14897  -0.10317
  Beta virt. eigenvalues --    0.06523   0.07668   0.08000   0.08168   0.09304
  Beta virt. eigenvalues --    0.09758   0.10115   0.10708   0.10846   0.11053
  Beta virt. eigenvalues --    0.12158   0.12438   0.12784   0.13557   0.13919

 Mulliken charges and spin densities:
               1          2
     1  C    0.017989  -0.725705
     2  C   -0.695142   0.466289
     3  C    1.141160  -0.903039
     4  C    0.409831  -0.876749
     5  C   -1.218986   0.952653
     6  S    0.987767  -0.867687
     7  N   -0.083613  -0.390846
     8  C   -0.907208   1.210342
     9  C    0.140319  -0.801768
    10  C    0.109446  -0.827208
    11  H    0.076126   0.082772
    12  H   -0.092006   0.218748
    13  H   -0.045423   0.170348
    14  H    0.149902  -0.003001
    15  H    0.038199   0.089409
    16  H    0.095214   0.084831
    17  H    0.151739   0.033334
    18  H    0.001432   0.281438
    19  H   -0.494921   0.774208
    20  H   -0.495302   0.777765
    21  H    0.034808   0.103359
    22  H   -0.142583   0.283536
    23  H   -0.077573   0.216212
    24  H   -0.006111   0.146706
    25  H    0.047752   0.106144
    26  H   -0.113019   0.246469
    27  H   -0.029795   0.151440
 Sum of Mulliken charges =  -1.00000   1.00000

 Dipole moment (field-independent basis, Debye):
    X=              6.9053    Y=              2.2148    Z=              1.7313  Tot=              7.4556
 Quadrupole moment (field-independent basis, Debye-Ang):
   XX=           -157.6537   YY=           -110.9806   ZZ=            -96.8813
   XY=             -7.4383   XZ=             -5.8486   YZ=             -1.8838

 Summary of Natural Population Analysis:

                                       Natural Population
                Natural  -----------------------------------------------
    Atom  No    Charge         Core      Valence    Rydberg      Total
 -----------------------------------------------------------------------
      C    1   -0.28440      0.99966     2.28025    0.00449     3.28440
      C    2   -0.19276      0.99962     2.18396    0.00918     3.19276
      C    3   -0.12148      0.99957     2.10951    0.01240     3.12148
      C    4   -0.12386      0.99950     2.11136    0.01300     3.12386
      C    5   -0.17288      0.99943     2.16066    0.01279     3.17288
      S    6    0.19985      4.99953     2.77420    0.02642     7.80015
      N    7   -0.47649      0.99979     2.96451    0.01218     3.97649
      C    8   -0.11504      0.99959     2.10468    0.01077     3.11504
      C    9   -0.28616      0.99965     2.28033    0.00619     3.28616
      C   10   -0.28325      0.99965     2.27876    0.00483     3.28325
      H   11    0.10397      0.00000     0.39492    0.00111     0.39603
      H   12    0.09610      0.00000     0.40295    0.00095     0.40390
      H   13    0.09232      0.00000     0.40660    0.00108     0.40768
      H   14    0.09897      0.00000     0.39904    0.00199     0.40103
      H   15    0.09545      0.00000     0.40340    0.00116     0.40455
      H   16    0.09454      0.00000     0.40381    0.00164     0.40546
      H   17    0.09938      0.00000     0.39959    0.00103     0.40062
      H   18    0.11135      0.00000     0.38740    0.00126     0.38865
      H   19    0.18855      0.00000     0.29865    0.01280     0.31145
      H   20    0.18847      0.00000     0.29914    0.01240     0.31153
      H   21    0.09868      0.00000     0.39805    0.00327     0.40132
      H   22    0.09519      0.00000     0.40382    0.00099     0.40481
      H   23    0.09865      0.00000     0.40055    0.00080     0.40135
      H   24    0.09930      0.00000     0.39975    0.00095     0.40070
      H   25    0.10554      0.00000     0.39351    0.00094     0.39446
      H   26    0.09715      0.00000     0.40196    0.00089     0.40285
      H   27    0.09286      0.00000     0.40609    0.00104     0.40714
 =======================================================================
   * Total *    0.00000     13.99599    29.84747    0.15654    44.00000

 Normal termination of Gaussian 16 at Tue Dec  8 10:56:05 2020.
