 Gaussian 16, Revision A.03,

 -----------------------------------------------------------
 # opt freq B3LYP/6-31G(d) empiricaldispersion=gd3bj scf=xqc
 -----------------------------------------------------------

 -------------------------------
 CID_152852115_JID_5626_neutraal
 -------------------------------
 Symbolic Z-matrix:
 Charge =  0 Multiplicity = 1

 SCF Done:  E(RB3LYP) =  -973.429909028     A.U. after   15 cycles
 SCF Done:  E(RB3LYP) =  -973.436564534     A.U. after   13 cycles
 SCF Done:  E(RB3LYP) =  -973.437781536     A.U. after   13 cycles
 SCF Done:  E(RB3LYP) =  -973.438518095     A.U. after   13 cycles
 SCF Done:  E(RB3LYP) =  -973.438938454     A.U. after   12 cycles
 SCF Done:  E(RB3LYP) =  -973.439406037     A.U. after   12 cycles
 SCF Done:  E(RB3LYP) =  -973.439701132     A.U. after   12 cycles
 SCF Done:  E(RB3LYP) =  -973.439747787     A.U. after   12 cycles
 SCF Done:  E(RB3LYP) =  -973.439812589     A.U. after   10 cycles
 SCF Done:  E(RB3LYP) =  -973.439893875     A.U. after   11 cycles
 SCF Done:  E(RB3LYP) =  -973.439954288     A.U. after    8 cycles
 SCF Done:  E(RB3LYP) =  -973.439954844     A.U. after    8 cycles
 SCF Done:  E(RB3LYP) =  -973.439955333     A.U. after    9 cycles
 SCF Done:  E(RB3LYP) =  -973.439955625     A.U. after    8 cycles
 SCF Done:  E(RB3LYP) =  -973.439955726     A.U. after    8 cycles
 Optimization completed.
    -- Stationary point found.
 Normal termination of Gaussian 16 at Thu Dec 10 16:37:57 2020.

 --------------------------------------------------------------------
 #N Geom=AllCheck Guess=TCheck SCRF=Check GenChk RB3LYP/6-31G(d) Freq
 --------------------------------------------------------------------

 Structure from the checkpoint file:  "JID_5626.chk"
 -------------------------------
 CID_152852115_JID_5626_neutraal
 -------------------------------
 Charge =  0 Multiplicity = 1

 SCF Done:  E(RB3LYP) =  -973.439955726     A.U. after    1 cycles

  Exact polarizability: 177.511   2.544 172.865  10.566  -0.869 109.671
 Approx polarizability: 257.913   5.272 292.841  24.176  -1.583 186.473

                      1                      2                      3
                      A                      A                      A
 Frequencies --     29.0637                61.4727                77.3158
 Red. masses --      4.2351                 3.8349                 4.2360
 Frc consts  --      0.0021                 0.0085                 0.0149
 IR Inten    --      0.3975                 3.9981                 1.9569

                      4                      5                      6
                      A                      A                      A
 Frequencies --     94.6870               107.0366               113.5839
 Red. masses --      2.9130                 1.2701                 2.5033
 Frc consts  --      0.0154                 0.0086                 0.0190
 IR Inten    --      0.9548                 0.3187                 0.0222

                      7                      8                      9
                      A                      A                      A
 Frequencies --    135.7163               181.2914               205.6968
 Red. masses --      2.2558                 2.1225                 1.3780
 Frc consts  --      0.0245                 0.0411                 0.0344
 IR Inten    --      0.0976                 0.8388                 0.4405

                     10                     11                     12
                      A                      A                      A
 Frequencies --    226.6702               250.6883               291.5691
 Red. masses --      1.9633                 2.9059                 4.5228
 Frc consts  --      0.0594                 0.1076                 0.2265
 IR Inten    --      0.3318                 0.8346                 1.3117

                     13                     14                     15
                      A                      A                      A
 Frequencies --    318.7445               342.2370               368.7800
 Red. masses --      3.5807                 3.9212                 2.6544
 Frc consts  --      0.2143                 0.2706                 0.2127
 IR Inten    --      1.0839                 0.6108                 4.2333

                     16                     17                     18
                      A                      A                      A
 Frequencies --    389.9608               414.6291               486.9075
 Red. masses --      2.8538                 3.6071                 4.1170
 Frc consts  --      0.2557                 0.3654                 0.5751
 IR Inten    --      1.5694                 0.6675                 0.3292

                     19                     20                     21
                      A                      A                      A
 Frequencies --    517.2319               530.6479               564.9721
 Red. masses --      2.4661                 2.1317                 4.5403
 Frc consts  --      0.3887                 0.3537                 0.8539
 IR Inten    --     41.8409                35.8643                 0.7177

                     22                     23                     24
                      A                      A                      A
 Frequencies --    610.7121               649.1952               679.2596
 Red. masses --      3.1794                 3.0121                 2.7057
 Frc consts  --      0.6987                 0.7479                 0.7355
 IR Inten    --      7.7929                 9.4421                 1.2030

                     25                     26                     27
                      A                      A                      A
 Frequencies --    690.6534               703.4799               721.4647
 Red. masses --      4.9933                 3.9317                 1.5628
 Frc consts  --      1.4033                 1.1464                 0.4793
 IR Inten    --      7.3662                 1.2483                33.0848

                     28                     29                     30
                      A                      A                      A
 Frequencies --    786.2064               832.0903               846.5046
 Red. masses --      1.3939                 4.8873                 2.2139
 Frc consts  --      0.5076                 1.9937                 0.9347
 IR Inten    --     15.0141                16.2476                15.7401

                     31                     32                     33
                      A                      A                      A
 Frequencies --    857.9357               883.4264               887.8269
 Red. masses --      2.5766                 2.0671                 1.6976
 Frc consts  --      1.1174                 0.9505                 0.7884
 IR Inten    --      6.7452                 2.7260                 0.5829

                     34                     35                     36
                      A                      A                      A
 Frequencies --    939.2951               957.8155               989.4945
 Red. masses --      5.4839                 2.8407                 1.3747
 Frc consts  --      2.8506                 1.5355                 0.7930
 IR Inten    --     11.0293                 5.1338                 0.4048

                     37                     38                     39
                      A                      A                      A
 Frequencies --    999.7021              1018.7528              1042.9345
 Red. masses --      1.2746                 3.3155                 1.7418
 Frc consts  --      0.7505                 2.0274                 1.1163
 IR Inten    --      2.1912                16.6443                15.0778

                     40                     41                     42
                      A                      A                      A
 Frequencies --   1073.2425              1103.4877              1110.7939
 Red. masses --      1.4779                 1.6588                 1.6265
 Frc consts  --      1.0030                 1.1901                 1.1824
 IR Inten    --      2.7639                 7.8249                 0.5815

                     43                     44                     45
                      A                      A                      A
 Frequencies --   1121.4954              1133.1815              1164.6537
 Red. masses --      1.2252                 1.6186                 2.3464
 Frc consts  --      0.9080                 1.2246                 1.8752
 IR Inten    --      0.3681                25.0454                32.9129

                     46                     47                     48
                      A                      A                      A
 Frequencies --   1221.0139              1241.2938              1263.0807
 Red. masses --      3.6093                 2.9062                 1.7805
 Frc consts  --      3.1704                 2.6383                 1.6737
 IR Inten    --     12.0364                 3.4295                 1.5030

                     49                     50                     51
                      A                      A                      A
 Frequencies --   1285.8202              1329.1351              1394.0940
 Red. masses --      1.7432                 3.7974                 5.5489
 Frc consts  --      1.6981                 3.9526                 6.3539
 IR Inten    --      0.6445                 6.7094                10.8479

                     52                     53                     54
                      A                      A                      A
 Frequencies --   1418.4471              1430.7469              1436.2754
 Red. masses --      2.6706                 2.0071                 1.5995
 Frc consts  --      3.1658                 2.4207                 1.9441
 IR Inten    --      4.2355                 9.5650                10.5903

                     55                     56                     57
                      A                      A                      A
 Frequencies --   1443.2885              1443.9293              1484.5684
 Red. masses --      1.2447                 1.3491                 3.9264
 Frc consts  --      1.5276                 1.6572                 5.0986
 IR Inten    --      1.0505                 0.6624                 5.6843

                     58                     59                     60
                      A                      A                      A
 Frequencies --   1490.7520              1508.7794              1514.3346
 Red. masses --      3.4967                 1.1129                 1.0541
 Frc consts  --      4.5785                 1.4927                 1.4242
 IR Inten    --      5.1709                 8.5786                 3.5729

                     61                     62                     63
                      A                      A                      A
 Frequencies --   1516.4719              1520.9737              1523.8267
 Red. masses --      1.1245                 1.1331                 1.1012
 Frc consts  --      1.5236                 1.5444                 1.5066
 IR Inten    --      8.2455                10.9054                 2.2178

                     64                     65                     66
                      A                      A                      A
 Frequencies --   1533.3746              1596.2934              1608.2532
 Red. masses --      1.0617                 3.8985                 5.5247
 Frc consts  --      1.4708                 5.8529                 8.4191
 IR Inten    --      7.0024                12.4414                 2.7251

                     67                     68                     69
                      A                      A                      A
 Frequencies --   1692.3965              3010.4189              3028.5413
 Red. masses --      6.6868                 1.0527                 1.0425
 Frc consts  --     11.2842                 5.6207                 5.6338
 IR Inten    --      0.1075                36.5627                54.1211

                     70                     71                     72
                      A                      A                      A
 Frequencies --   3048.1713              3069.0074              3076.3780
 Red. masses --      1.0385                 1.0996                 1.0855
 Frc consts  --      5.6852                 6.1024                 6.0530
 IR Inten    --     25.4662                19.8252                25.2918

                     73                     74                     75
                      A                      A                      A
 Frequencies --   3104.6197              3134.6737              3141.5466
 Red. masses --      1.0994                 1.1009                 1.0974
 Frc consts  --      6.2435                 6.3734                 6.3815
 IR Inten    --     19.1121                15.8350                12.9362

                     76                     77                     78
                      A                      A                      A
 Frequencies --   3160.8164              3211.6486              3264.5469
 Red. masses --      1.0955                 1.0910                 1.0952
 Frc consts  --      6.4486                 6.6301                 6.8771
 IR Inten    --     11.1518                10.9296                 6.5124

                     79                     80                     81
                      A                      A                      A
 Frequencies --   3268.1841              3270.6495              3666.9556
 Red. masses --      1.0965                 1.0981                 1.0807
 Frc consts  --      6.9001                 6.9207                 8.5616
 IR Inten    --      0.9811                 2.5937                31.9903

 - Thermochemistry -
 -------------------
 Temperature   298.150 Kelvin.  Pressure   1.00000 Atm.
 Atom     1 has atomic number  6 and mass  12.00000

 Molecular mass:   218.08777 amu.
 Principal axes and moments of inertia in atomic units:
                           1         2         3
     Eigenvalues --  2388.195313917.713125191.28605
           X            0.99913   0.04166  -0.00267
           Y           -0.04168   0.99910  -0.00746
           Z            0.00235   0.00757   0.99997
 This molecule is an asymmetric top.
 Rotational symmetry number  1.
 Warning -- assumption of classical behavior for rotation
           may cause significant error
 Rotational temperatures (Kelvin)      0.03627     0.02211     0.01668
 Rotational constants (GHZ):           0.75569     0.46066     0.34765
 Zero-point vibrational energy     621255.5 (Joules/Mol)
                                  148.48364 (Kcal/Mol)
 Warning -- explicit consideration of  22 degrees of freedom as
           vibrations may cause significant error
 Vibrational temperatures:     41.82    88.45   111.24   136.23   154.00
          (Kelvin)            163.42   195.27   260.84   295.95   326.13
                              360.68   419.50   458.60   492.40   530.59
                              561.07   596.56   700.55   744.18   763.48
                              812.87   878.68   934.05   977.30   993.70
                             1012.15  1038.03  1131.18  1197.19  1217.93
                             1234.38  1271.05  1277.38  1351.44  1378.08
                             1423.66  1438.35  1465.76  1500.55  1544.16
                             1587.67  1598.18  1613.58  1630.40  1675.68
                             1756.77  1785.94  1817.29  1850.01  1912.33
                             2005.79  2040.83  2058.53  2066.48  2076.57
                             2077.49  2135.96  2144.86  2170.80  2178.79
                             2181.86  2188.34  2192.45  2206.18  2296.71
                             2313.92  2434.98  4331.32  4357.40  4385.64
                             4415.62  4426.22  4466.86  4510.10  4519.98
                             4547.71  4620.85  4696.95  4702.19  4705.74
                             5275.93

 Zero-point correction=                           0.236624 (Hartree/Particle)
 Thermal correction to Energy=                    0.251558
 Thermal correction to Enthalpy=                  0.252503
 Thermal correction to Gibbs Free Energy=         0.193922
 Sum of electronic and zero-point Energies=           -973.203332
 Sum of electronic and thermal Energies=              -973.188397
 Sum of electronic and thermal Enthalpies=            -973.187453
 Sum of electronic and thermal Free Energies=         -973.246034

                     E (Thermal)             CV                S
                      KCal/Mol        Cal/Mol-Kelvin    Cal/Mol-Kelvin
 Total                  157.855             55.827            123.293
 Electronic               0.000              0.000              0.000
 Translational            0.889              2.981             42.042
 Rotational               0.889              2.981             32.252
 Vibrational            156.078             49.865             48.999
 Vibration     1          0.593              1.984              5.892
 Vibration     2          0.597              1.973              4.409
 Vibration     3          0.599              1.964              3.958
 Vibration     4          0.603              1.953              3.561
 Vibration     5          0.606              1.944              3.322
 Vibration     6          0.607              1.938              3.207
 Vibration     7          0.614              1.918              2.863
 Vibration     8          0.630              1.865              2.315
 Vibration     9          0.640              1.832              2.082
 Vibration    10          0.650              1.800              1.905
 Vibration    11          0.663              1.762              1.726
 Vibration    12          0.687              1.689              1.465
 Vibration    13          0.705              1.638              1.317
 Vibration    14          0.721              1.591              1.202
 Vibration    15          0.741              1.536              1.085
 Vibration    16          0.758              1.492              1.000
 Vibration    17          0.778              1.438              0.910
 Vibration    18          0.843              1.279              0.692
 Vibration    19          0.872              1.212              0.616
 Vibration    20          0.886              1.182              0.586
 Vibration    21          0.921              1.107              0.514
 Vibration    22          0.970              1.009              0.432

                           ! Non-Optimized Parameters !
 Normal termination of Gaussian 16 at Thu Dec 10 16:48:40 2020.

 ----------------------------------------------------------------------
 # B3LYP/6-311++G(d,p) empiricaldispersion=gd3bj scf=xqc pop=npa geom=c
 heck
 ----------------------------------------------------------------------

 ---------------------------------------
 CID_152852115_JID_5626_Energie_neutraal
 ---------------------------------------
 Structure from the checkpoint file:  "JID_5626.chk"
 Charge =  0 Multiplicity = 1

 SCF Done:  E(RB3LYP) =  -973.619675972     A.U. after   16 cycles
 Normal termination of Gaussian 16 at Thu Dec 10 16:55:08 2020.

 ----------------------------------------------------------------------
 # B3LYP/6-311++G(d,p) empiricaldispersion=gd3bj scf=xqc pop=npa geom=c
 heck
 ----------------------------------------------------------------------

 -------------------------------------
 CID_152852115_JID_5626_Energie_kation
 -------------------------------------
 Structure from the checkpoint file:  "JID_5626.chk"
 Charge =  1 Multiplicity = 2

 SCF Done:  E(UB3LYP) =  -973.352749666     A.U. after   25 cycles
 Normal termination of Gaussian 16 at Thu Dec 10 17:08:04 2020.
 Gaussian 16:  ES64L-G16RevA.03 25-Dec-2016

 ----------------------------------------------------------------------
 # B3LYP/6-311++G(d,p) empiricaldispersion=gd3bj scf=xqc pop=npa geom=c
 heck
 ----------------------------------------------------------------------

 ------------------------------------
 CID_152852115_JID_5626_Energie_anion
 ------------------------------------
 Structure from the checkpoint file:  "JID_5626.chk"
 Charge = -1 Multiplicity = 2

                         Standard orientation:
 ---------------------------------------------------------------------
 Center     Atomic      Atomic             Coordinates (Angstroms)
 Number     Number       Type             X           Y           Z
 ---------------------------------------------------------------------
      1          6           0       -0.607281   -1.651894    1.938389
      2          6           0       -1.430215   -1.035845    0.840840
      3          6           0       -0.998719   -0.003024    0.037355
      4         16           0       -2.211733    0.415490   -1.156685
      5          6           0       -3.300305   -0.786360   -0.546773
      6          6           0       -2.752937   -1.468944    0.502949
      7          6           0        0.327522    0.657845    0.025223
      8          6           0        0.467594    1.994099    0.226207
      9          6           0        1.768753    2.735154    0.036598
     10          6           0       -0.674714    2.874489    0.662659
     11          6           0        1.429121   -0.270396   -0.240573
     12          6           0        1.441966   -1.481843   -0.910506
     13          7           0        2.684016   -2.068907   -0.866023
     14          6           0        3.433026   -1.241409   -0.165289
     15          7           0        2.730855   -0.138998    0.231908
     16          1           0       -1.241044   -1.962111    2.776291
     17          1           0       -0.068626   -2.537614    1.579155
     18          1           0        0.140550   -0.949418    2.316152
     19          1           0       -4.277818   -0.914558   -0.991532
     20          1           0       -3.270145   -2.261107    1.034691
     21          1           0        1.572935    3.717287   -0.410924
     22          1           0        2.270427    2.937488    0.995955
     23          1           0        2.467022    2.206660   -0.616667
     24          1           0       -0.999307    3.539149   -0.149858
     25          1           0       -1.540345    2.302209    0.998963
     26          1           0       -0.348045    3.526161    1.484945
     27          1           0        0.611351   -1.948845   -1.420673
     28          1           0        4.477107   -1.381911    0.080313
     29          1           0        3.066692    0.602878    0.826483
 ---------------------------------------------------------------------

 SCF Done:  E(UB3LYP) =  -973.613538704     A.U. after   33 cycles
 SCF Done:  E(UB3LYP) =  -973.613538704     a.u. after    1 cycles

 The electronic state is 2-A.
 Alpha  occ. eigenvalues --  -88.75684 -14.24546 -14.17997 -10.10764 -10.08725
 Alpha  occ. eigenvalues --  -10.08426 -10.08103 -10.06565 -10.06495 -10.06165
 Alpha  occ. eigenvalues --  -10.06121 -10.05813 -10.05663 -10.05121 -10.05047
 Alpha  occ. eigenvalues --   -7.84321  -5.80608  -5.80245  -5.79930  -0.89711
 Alpha  occ. eigenvalues --   -0.77110  -0.75613  -0.70568  -0.65733  -0.64389
 Alpha  occ. eigenvalues --   -0.61652  -0.57935  -0.57387  -0.54975  -0.49747
 Alpha  occ. eigenvalues --   -0.47530  -0.46304  -0.44568  -0.42774  -0.38462
 Alpha  occ. eigenvalues --   -0.36311  -0.34739  -0.32947  -0.32917  -0.31718
 Alpha  occ. eigenvalues --   -0.31504  -0.31229  -0.30304  -0.29299  -0.27772
 Alpha  occ. eigenvalues --   -0.27586  -0.26849  -0.26258  -0.25536  -0.24873
 Alpha  occ. eigenvalues --   -0.23189  -0.22565  -0.17736  -0.16418  -0.15592
 Alpha  occ. eigenvalues --   -0.13733  -0.12434  -0.08874   0.04608
 Alpha virt. eigenvalues --    0.07016   0.07424   0.08354   0.08496   0.09271
 Alpha virt. eigenvalues --    0.09970   0.10125   0.10841   0.11359   0.11848
 Alpha virt. eigenvalues --    0.12099   0.12852   0.12903   0.13707   0.14008

  Beta  occ. eigenvalues --  -88.75661 -14.24467 -14.18008 -10.10738 -10.08717
  Beta  occ. eigenvalues --  -10.08337 -10.08039 -10.06575 -10.06452 -10.06140
  Beta  occ. eigenvalues --  -10.06083 -10.05801 -10.05395 -10.05130 -10.05029
  Beta  occ. eigenvalues --   -7.84301  -5.80587  -5.80232  -5.79870  -0.89648
  Beta  occ. eigenvalues --   -0.76988  -0.75534  -0.70270  -0.65594  -0.64227
  Beta  occ. eigenvalues --   -0.61559  -0.57860  -0.57303  -0.54868  -0.49640
  Beta  occ. eigenvalues --   -0.47447  -0.46108  -0.44430  -0.42634  -0.38372
  Beta  occ. eigenvalues --   -0.36146  -0.34626  -0.32868  -0.32661  -0.31581
  Beta  occ. eigenvalues --   -0.31382  -0.31091  -0.30206  -0.29268  -0.27685
  Beta  occ. eigenvalues --   -0.27497  -0.26785  -0.26179  -0.25373  -0.24724
  Beta  occ. eigenvalues --   -0.23049  -0.22438  -0.17529  -0.16340  -0.15276
  Beta  occ. eigenvalues --   -0.13480  -0.12078  -0.08211
  Beta virt. eigenvalues --    0.07240   0.07880   0.08152   0.08607   0.08814
  Beta virt. eigenvalues --    0.09773   0.10125   0.10707   0.11017   0.11424
  Beta virt. eigenvalues --    0.11917   0.12384   0.12942   0.13002   0.13699

 Mulliken charges and spin densities:
               1          2
     1  C   -0.268155  -0.558599
     2  C   -0.447657   0.302979
     3  C    0.342965   0.056023
     4  S   -0.398544   0.015512
     5  C   -0.289714   0.090324
     6  C    0.093749  -0.112939
     7  C    0.446315   0.215429
     8  C   -0.643660   0.995971
     9  C    0.731535  -1.584559
    10  C   -0.252611  -0.139268
    11  C    0.361129  -0.388272
    12  C   -0.271076  -0.540268
    13  N   -0.131291   0.016150
    14  C    0.130951  -0.046857
    15  N   -0.131085   0.042291
    16  H    0.032861   0.113801
    17  H    0.190513  -0.002850
    18  H    0.067162   0.091178
    19  H    0.199429  -0.001893
    20  H    0.107472   0.025809
    21  H    0.100128   0.030583
    22  H   -0.619220   0.817894
    23  H   -0.017478   0.184245
    24  H    0.186325  -0.045325
    25  H    0.088674   0.043479
    26  H   -0.115736   0.276108
    27  H    0.130655  -0.000324
    28  H   -0.390554   0.543708
    29  H   -0.233082   0.559668
 Sum of Mulliken charges =  -1.00000   1.00000

 Dipole moment (field-independent basis, Debye):
    X=             -7.0451    Y=             -1.3559    Z=             -2.1742  Tot=              7.4966
 Quadrupole moment (field-independent basis, Debye-Ang):
   XX=           -148.8440   YY=           -135.7868   ZZ=           -124.8928
   XY=             -1.2152   XZ=             -6.2246   YZ=            -12.6223

 Summary of Natural Population Analysis:

                                       Natural Population
                Natural  -----------------------------------------------
    Atom  No    Charge         Core      Valence    Rydberg      Total
 -----------------------------------------------------------------------
      C    1   -0.29276      0.99963     2.28772    0.00540     3.29276
      C    2   -0.03715      0.99942     2.02689    0.01085     3.03715
      C    3   -0.08148      0.99940     2.06821    0.01388     3.08148
      S    4    0.20970      4.99941     2.77100    0.01989     7.79030
      C    5   -0.18759      0.99955     2.17749    0.01055     3.18759
      C    6   -0.13097      0.99950     2.12208    0.00940     3.13097
      C    7   -0.07324      0.99937     2.06039    0.01348     3.07324
      C    8    0.06365      0.99949     1.92814    0.00872     2.93635
      C    9   -0.30551      0.99963     2.29967    0.00621     3.30551
      C   10   -0.30071      0.99963     2.29509    0.00599     3.30071
      C   11    0.05521      0.99950     1.93151    0.01378     2.94479
      C   12   -0.02708      0.99952     2.01513    0.01244     3.02708
      N   13   -0.26348      0.99973     2.75376    0.00999     3.76348
      C   14    0.09765      0.99966     1.88363    0.01906     2.90235
      N   15   -0.26761      0.99966     2.75718    0.01078     3.76761
      H   16    0.09740      0.00000     0.40183    0.00077     0.40260
      H   17    0.10642      0.00000     0.39267    0.00091     0.39358
      H   18    0.11059      0.00000     0.38843    0.00098     0.38941
      H   19    0.10228      0.00000     0.39689    0.00083     0.39772
      H   20    0.10000      0.00000     0.39906    0.00095     0.40000
      H   21    0.09913      0.00000     0.39993    0.00094     0.40087
      H   22    0.11188      0.00000     0.38097    0.00716     0.38812
      H   23    0.10356      0.00000     0.39545    0.00099     0.39644
      H   24    0.09949      0.00000     0.39966    0.00085     0.40051
      H   25    0.10703      0.00000     0.39205    0.00091     0.39297
      H   26    0.10260      0.00000     0.39642    0.00098     0.39740
      H   27    0.09814      0.00000     0.40073    0.00114     0.40186
      H   28    0.09062      0.00000     0.40809    0.00130     0.40938
      H   29    0.21227      0.00000     0.27941    0.00833     0.28773
 =======================================================================
   * Total *   -0.00000     18.99308    38.80948    0.19744    58.00000

 Normal termination of Gaussian 16 at Thu Dec 10 17:25:39 2020.
