 Gaussian 16, Revision A.03,

 -----------------------------------------------------------
 # opt freq B3LYP/6-31G(d) empiricaldispersion=gd3bj scf=xqc
 -----------------------------------------------------------

 ------------------------------
 CID_82158576_JID_6876_neutraal
 ------------------------------
 Symbolic Z-matrix:
 Charge =  0 Multiplicity = 1

 SCF Done:  E(RB3LYP) =  -675.002722711     A.U. after   15 cycles
 SCF Done:  E(RB3LYP) =  -675.007101540     A.U. after   12 cycles
 SCF Done:  E(RB3LYP) =  -675.007480823     A.U. after   11 cycles
 SCF Done:  E(RB3LYP) =  -675.007505351     A.U. after   11 cycles
 SCF Done:  E(RB3LYP) =  -675.007561712     A.U. after    9 cycles
 SCF Done:  E(RB3LYP) =  -675.007568064     A.U. after    9 cycles
 SCF Done:  E(RB3LYP) =  -675.007571838     A.U. after    9 cycles
 SCF Done:  E(RB3LYP) =  -675.007573113     A.U. after    8 cycles
 SCF Done:  E(RB3LYP) =  -675.007574078     A.U. after    8 cycles
 SCF Done:  E(RB3LYP) =  -675.007574250     A.U. after    7 cycles
 SCF Done:  E(RB3LYP) =  -675.007574307     A.U. after    7 cycles
 Optimization completed.
    -- Stationary point found.
 Normal termination of Gaussian 16 at Fri Dec 11 00:53:48 2020.

 --------------------------------------------------------------------
 #N Geom=AllCheck Guess=TCheck SCRF=Check GenChk RB3LYP/6-31G(d) Freq
 --------------------------------------------------------------------

 Structure from the checkpoint file:  "JID_6876.chk"
 ------------------------------
 CID_82158576_JID_6876_neutraal
 ------------------------------
 Charge =  0 Multiplicity = 1

 SCF Done:  E(RB3LYP) =  -675.007574307     A.U. after    1 cycles

  Exact polarizability: 212.256   6.022 125.940  -4.693  15.157 119.467
 Approx polarizability: 270.349  20.387 202.811 -11.482  38.035 188.891

                      1                      2                      3
                      A                      A                      A
 Frequencies --     18.2720                41.1425                45.8792
 Red. masses --      3.8919                 3.4711                 3.6608
 Frc consts  --      0.0008                 0.0035                 0.0045
 IR Inten    --      0.8283                 0.2781                 0.2485

                      4                      5                      6
                      A                      A                      A
 Frequencies --     56.4399                79.2515               112.6162
 Red. masses --      5.6137                 3.2422                 2.5494
 Frc consts  --      0.0105                 0.0120                 0.0190
 IR Inten    --      1.2390                 0.0954                 0.1954

                      7                      8                      9
                      A                      A                      A
 Frequencies --    148.8836               161.6598               194.2857
 Red. masses --      2.4590                 2.1668                 2.6017
 Frc consts  --      0.0321                 0.0334                 0.0579
 IR Inten    --      0.4925                 0.8149                 1.3601

                     10                     11                     12
                      A                      A                      A
 Frequencies --    243.9673               246.5073               289.2826
 Red. masses --      1.9279                 3.2983                 3.1379
 Frc consts  --      0.0676                 0.1181                 0.1547
 IR Inten    --      0.6528                 1.2233                 0.0202

                     13                     14                     15
                      A                      A                      A
 Frequencies --    336.2544               375.4882               404.6659
 Red. masses --      2.5609                 2.5637                 2.5270
 Frc consts  --      0.1706                 0.2130                 0.2438
 IR Inten    --      0.4106                 0.6199                 1.6164

                     16                     17                     18
                      A                      A                      A
 Frequencies --    419.8063               456.1190               499.2198
 Red. masses --      2.9705                 3.0010                 2.5245
 Frc consts  --      0.3084                 0.3679                 0.3707
 IR Inten    --      1.0005                 6.2956                15.3227

                     19                     20                     21
                      A                      A                      A
 Frequencies --    504.8650               549.8656               571.4850
 Red. masses --      1.4245                 3.0257                 2.4014
 Frc consts  --      0.2139                 0.5390                 0.4621
 IR Inten    --     61.2665                18.1550                47.3195

                     22                     23                     24
                      A                      A                      A
 Frequencies --    596.6731               630.3701               655.5450
 Red. masses --      2.7246                 3.0284                 6.3774
 Frc consts  --      0.5715                 0.7090                 1.6147
 IR Inten    --      7.5843                15.4425                 4.3343

                     25                     26                     27
                      A                      A                      A
 Frequencies --    696.9653               741.9943               753.0277
 Red. masses --      3.9385                 1.6709                 3.5630
 Frc consts  --      1.1272                 0.5420                 1.1904
 IR Inten    --      8.6251                 5.7478                 1.5838

                     28                     29                     30
                      A                      A                      A
 Frequencies --    786.4590               812.4669               831.1991
 Red. masses --      1.9707                 1.9753                 2.1489
 Frc consts  --      0.7181                 0.7682                 0.8747
 IR Inten    --      6.7254                 7.9786                 2.9388

                     31                     32                     33
                      A                      A                      A
 Frequencies --    845.4584               857.8896               863.7633
 Red. masses --      2.6801                 1.5901                 1.5407
 Frc consts  --      1.1287                 0.6895                 0.6773
 IR Inten    --      9.4319                 6.2575                 9.4084

                     34                     35                     36
                      A                      A                      A
 Frequencies --    908.0472               914.3504               946.0252
 Red. masses --      1.5772                 2.9506                 2.2129
 Frc consts  --      0.7662                 1.4534                 1.1669
 IR Inten    --      2.4655                 3.2325                 2.9682

                     37                     38                     39
                      A                      A                      A
 Frequencies --    954.8053               964.2486               975.8637
 Red. masses --      1.8361                 1.4191                 1.3626
 Frc consts  --      0.9862                 0.7774                 0.7646
 IR Inten    --      2.8198                 0.2288                 0.8433

                     40                     41                     42
                      A                      A                      A
 Frequencies --    983.2825              1003.1020              1043.2508
 Red. masses --      1.5746                 2.0080                 2.7875
 Frc consts  --      0.8970                 1.1904                 1.7875
 IR Inten    --      2.7619                 2.6978                 4.7535

                     43                     44                     45
                      A                      A                      A
 Frequencies --   1062.3203              1078.5927              1101.2163
 Red. masses --      2.0481                 1.9712                 1.6605
 Frc consts  --      1.3618                 1.3511                 1.1864
 IR Inten    --      6.1751                 1.4599                 5.2774

                     46                     47                     48
                      A                      A                      A
 Frequencies --   1112.4472              1132.3744              1153.3640
 Red. masses --      2.2170                 1.8404                 1.4227
 Frc consts  --      1.6165                 1.3904                 1.1151
 IR Inten    --      6.6286                 0.7219                 5.9622

                     49                     50                     51
                      A                      A                      A
 Frequencies --   1173.6062              1215.7106              1216.8134
 Red. masses --      1.4167                 1.2112                 1.2890
 Frc consts  --      1.1497                 1.0547                 1.1245
 IR Inten    --     23.9849                 1.6719                 2.1370

                     52                     53                     54
                      A                      A                      A
 Frequencies --   1229.3181              1237.6392              1247.8130
 Red. masses --      1.5809                 2.6180                 2.0530
 Frc consts  --      1.4076                 2.3627                 1.8834
 IR Inten    --     22.7142                 4.2043                 0.4346

                     55                     56                     57
                      A                      A                      A
 Frequencies --   1275.5440              1277.7015              1309.7167
 Red. masses --      1.3281                 1.8472                 1.4840
 Frc consts  --      1.2731                 1.7767                 1.4999
 IR Inten    --      1.0788               100.1975                 4.3641

                     58                     59                     60
                      A                      A                      A
 Frequencies --   1330.2857              1333.7411              1348.8821
 Red. masses --      1.7202                 1.2337                 1.2699
 Frc consts  --      1.7936                 1.2930                 1.3614
 IR Inten    --     49.7023                 1.5260                 7.9312

                     61                     62                     63
                      A                      A                      A
 Frequencies --   1355.8428              1357.7912              1380.3731
 Red. masses --      1.7244                 2.0880                 1.5704
 Frc consts  --      1.8677                 2.2681                 1.7630
 IR Inten    --     33.6642                 9.7430                 2.7375

                     64                     65                     66
                      A                      A                      A
 Frequencies --   1399.3410              1410.8248              1413.4153
 Red. masses --      1.3689                 1.4627                 1.6601
 Frc consts  --      1.5793                 1.7154                 1.9540
 IR Inten    --      8.4133                 6.6194                 9.5265

                     67                     68                     69
                      A                      A                      A
 Frequencies --   1438.3540              1442.8571              1475.2195
 Red. masses --      2.0622                 1.2671                 2.3221
 Frc consts  --      2.5137                 1.5542                 2.9775
 IR Inten    --     85.9519                 5.3149                17.2800

                     70                     71                     72
                      A                      A                      A
 Frequencies --   1499.0123              1510.8271              1520.6775
 Red. masses --      1.0858                 1.0796                 1.0639
 Frc consts  --      1.4375                 1.4519                 1.4495
 IR Inten    --      2.0035                 1.7819                 0.8763

                     73                     74                     75
                      A                      A                      A
 Frequencies --   1524.0730              1526.9254              1533.2961
 Red. masses --      1.0933                 1.1030                 1.0667
 Frc consts  --      1.4962                 1.5152                 1.4775
 IR Inten    --      4.7934                 5.1417                 7.9737

                     76                     77                     78
                      A                      A                      A
 Frequencies --   1540.6344              1566.1191              1636.8638
 Red. masses --      1.0635                 2.5149                 6.0556
 Frc consts  --      1.4872                 3.6344                 9.5594
 IR Inten    --      2.6458                15.1035                 0.5575

                     79                     80                     81
                      A                      A                      A
 Frequencies --   1678.1863              1838.7251              2993.7359
 Red. masses --      5.8506                10.4248                 1.0841
 Frc consts  --      9.7081                20.7660                 5.7247
 IR Inten    --      0.4588               539.4802                43.8826

                     82                     83                     84
                      A                      A                      A
 Frequencies --   3029.5640              3041.7209              3045.3148
 Red. masses --      1.0613                 1.0618                 1.0425
 Frc consts  --      5.7392                 5.7883                 5.6963
 IR Inten    --     22.7868                29.3915                24.5537

                     85                     86                     87
                      A                      A                      A
 Frequencies --   3049.3307              3063.7588              3066.4407
 Red. masses --      1.0589                 1.0692                 1.1011
 Frc consts  --      5.8009                 5.9132                 6.1000
 IR Inten    --     30.7100                17.2659                23.0039

                     88                     89                     90
                      A                      A                      A
 Frequencies --   3077.5830              3081.5742              3092.2923
 Red. masses --      1.1010                 1.0622                 1.1002
 Frc consts  --      6.1439                 5.9432                 6.1985
 IR Inten    --     30.2428                19.3996                53.0775

                     91                     92                     93
                      A                      A                      A
 Frequencies --   3110.6607              3118.4548              3130.1160
 Red. masses --      1.1013                 1.1014                 1.0989
 Frc consts  --      6.2783                 6.3106                 6.3435
 IR Inten    --     50.4912                57.8721                14.9109

                     94                     95                     96
                      A                      A                      A
 Frequencies --   3139.0306              3172.5499              3176.5001
 Red. masses --      1.1015                 1.0870                 1.0876
 Frc consts  --      6.3948                 6.4459                 6.4660
 IR Inten    --     18.9388                17.9530                10.7860

                     97                     98                     99
                      A                      A                      A
 Frequencies --   3191.5337              3200.1160              3622.9376
 Red. masses --      1.0936                 1.0930                 1.0776
 Frc consts  --      6.5632                 6.5949                 8.3337
 IR Inten    --     27.0395                 6.9189                21.7150

 - Thermochemistry -
 -------------------
 Temperature   298.150 Kelvin.  Pressure   1.00000 Atm.
 Atom     1 has atomic number  6 and mass  12.00000

 Molecular mass:   217.14666 amu.
 Principal axes and moments of inertia in atomic units:
                           1         2         3
     Eigenvalues --  1277.601578868.887189025.44582
           X            0.99989  -0.01329   0.00593
           Y            0.01264   0.99509   0.09815
           Z           -0.00721  -0.09806   0.99515
 This molecule is an asymmetric top.
 Rotational symmetry number  1.
 Warning -- assumption of classical behavior for rotation
           may cause significant error
 Rotational temperatures (Kelvin)      0.06779     0.00977     0.00960
 Rotational constants (GHZ):           1.41260     0.20349     0.19996
 Zero-point vibrational energy     806345.3 (Joules/Mol)
                                  192.72115 (Kcal/Mol)
 Warning -- explicit consideration of  22 degrees of freedom as
           vibrations may cause significant error
 Vibrational temperatures:     26.29    59.19    66.01    81.20   114.03
          (Kelvin)            162.03   214.21   232.59   279.53   351.01
                              354.67   416.21   483.80   540.24   582.22
                              604.01   656.25   718.27   726.39   791.13
                              822.24   858.48   906.96   943.18  1002.78
                             1067.56  1083.44  1131.54  1168.96  1195.91
                             1216.43  1234.31  1242.76  1306.48  1315.55
                             1361.12  1373.75  1387.34  1404.05  1414.72
                             1443.24  1501.01  1528.44  1551.85  1584.40
                             1600.56  1629.23  1659.43  1688.56  1749.14
                             1750.72  1768.71  1780.69  1795.32  1835.22
                             1838.33  1884.39  1913.98  1918.96  1940.74
                             1950.76  1953.56  1986.05  2013.34  2029.86
                             2033.59  2069.47  2075.95  2122.51  2156.74
                             2173.74  2187.92  2192.80  2196.91  2206.07
                             2216.63  2253.30  2355.08  2414.54  2645.52
                             4307.32  4358.87  4376.36  4381.53  4387.31
                             4408.07  4411.92  4427.96  4433.70  4449.12
                             4475.55  4486.76  4503.54  4516.36  4564.59
                             4570.28  4591.91  4604.25  5212.60

 Zero-point correction=                           0.307121 (Hartree/Particle)
 Thermal correction to Energy=                    0.322449
 Thermal correction to Enthalpy=                  0.323393
 Thermal correction to Gibbs Free Energy=         0.262326
 Sum of electronic and zero-point Energies=           -674.700454
 Sum of electronic and thermal Energies=              -674.685126
 Sum of electronic and thermal Enthalpies=            -674.684182
 Sum of electronic and thermal Free Energies=         -674.745248

                     E (Thermal)             CV                S
                      KCal/Mol        Cal/Mol-Kelvin    Cal/Mol-Kelvin
 Total                  202.340             58.594            128.525
 Electronic               0.000              0.000              0.000
 Translational            0.889              2.981             42.029
 Rotational               0.889              2.981             32.992
 Vibrational            200.562             52.633             53.505
 Vibration     1          0.593              1.986              6.814
 Vibration     2          0.594              1.981              5.203
 Vibration     3          0.595              1.979              4.988
 Vibration     4          0.596              1.975              4.578
 Vibration     5          0.600              1.963              3.909
 Vibration     6          0.607              1.939              3.223
 Vibration     7          0.618              1.904              2.686
 Vibration     8          0.622              1.889              2.530
 Vibration     9          0.635              1.848              2.187
 Vibration    10          0.659              1.773              1.774
 Vibration    11          0.661              1.769              1.755
 Vibration    12          0.686              1.694              1.478
 Vibration    13          0.717              1.603              1.230
 Vibration    14          0.746              1.522              1.057
 Vibration    15          0.770              1.460              0.946
 Vibration    16          0.782              1.427              0.893
 Vibration    17          0.814              1.347              0.777
 Vibration    18          0.855              1.252              0.660
 Vibration    19          0.860              1.239              0.646
 Vibration    20          0.905              1.140              0.544
 Vibration    21          0.928              1.093              0.501
 Vibration    22          0.955              1.039              0.455

                           ! Non-Optimized Parameters !
 Normal termination of Gaussian 16 at Fri Dec 11 01:03:50 2020.

 ----------------------------------------------------------------------
 # B3LYP/6-311++G(d,p) empiricaldispersion=gd3bj scf=xqc pop=npa geom=c
 heck
 ----------------------------------------------------------------------

 --------------------------------------
 CID_82158576_JID_6876_Energie_neutraal
 --------------------------------------
 Structure from the checkpoint file:  "JID_6876.chk"
 Charge =  0 Multiplicity = 1

 SCF Done:  E(RB3LYP) =  -675.193004447     A.U. after   15 cycles
 Normal termination of Gaussian 16 at Fri Dec 11 01:08:21 2020.

 ----------------------------------------------------------------------
 # B3LYP/6-311++G(d,p) empiricaldispersion=gd3bj scf=xqc pop=npa geom=c
 heck
 ----------------------------------------------------------------------

 ------------------------------------
 CID_82158576_JID_6876_Energie_kation
 ------------------------------------
 Structure from the checkpoint file:  "JID_6876.chk"
 Charge =  1 Multiplicity = 2

 SCF Done:  E(UB3LYP) =  -674.888725350     A.U. after   25 cycles
 Normal termination of Gaussian 16 at Fri Dec 11 01:18:31 2020.
 Gaussian 16:  ES64L-G16RevA.03 25-Dec-2016

 ----------------------------------------------------------------------
 # B3LYP/6-311++G(d,p) empiricaldispersion=gd3bj scf=xqc pop=npa geom=c
 heck
 ----------------------------------------------------------------------

 -----------------------------------
 CID_82158576_JID_6876_Energie_anion
 -----------------------------------
 Structure from the checkpoint file:  "JID_6876.chk"
 Charge = -1 Multiplicity = 2

                         Standard orientation:
 ---------------------------------------------------------------------
 Center     Atomic      Atomic             Coordinates (Angstroms)
 Number     Number       Type             X           Y           Z
 ---------------------------------------------------------------------
      1          6           0       -4.965373   -0.031131   -1.516635
      2          6           0       -4.168578    1.072711   -0.815302
      3          6           0       -4.113378    0.929090    0.711428
      4          6           0       -3.391566   -0.339583    1.213596
      5          6           0       -1.950008   -0.412932    0.766143
      6          6           0       -1.543042   -1.286144   -0.247200
      7          6           0       -0.218677   -1.311922   -0.685599
      8          6           0        0.738040   -0.470986   -0.114782
      9          6           0        0.338231    0.404812    0.902584
     10          6           0       -0.984563    0.432548    1.332082
     11          6           0        2.181349   -0.543137   -0.556508
     12          6           0        3.112662   -1.282577    0.444733
     13          6           0        4.483507   -0.622628    0.245221
     14          6           0        4.154875    0.780049   -0.275615
     15          8           0        4.908897    1.730695   -0.376479
     16          7           0        2.829406    0.760797   -0.634769
     17          1           0       -4.499753   -1.014170   -1.386662
     18          1           0       -5.035390    0.157199   -2.593603
     19          1           0       -5.986734   -0.093825   -1.120769
     20          1           0       -3.146265    1.096101   -1.213327
     21          1           0       -4.615464    2.046022   -1.055864
     22          1           0       -3.609018    1.808068    1.133874
     23          1           0       -5.135096    0.931913    1.115736
     24          1           0       -3.436801   -0.352517    2.310144
     25          1           0       -3.927812   -1.231961    0.871659
     26          1           0       -2.272121   -1.951126   -0.703205
     27          1           0        0.073485   -1.994636   -1.480482
     28          1           0        1.072381    1.068704    1.350597
     29          1           0       -1.276867    1.120664    2.122095
     30          1           0        2.221624   -1.049998   -1.533416
     31          1           0        3.104056   -2.362099    0.275123
     32          1           0        2.746628   -1.098416    1.459833
     33          1           0        5.079488   -1.132491   -0.522367
     34          1           0        5.094367   -0.563575    1.149032
     35          1           0        2.431407    1.535979   -1.148055
 ---------------------------------------------------------------------

 SCF Done:  E(UB3LYP) =  -675.182434403     A.U. after   33 cycles
 SCF Done:  E(UB3LYP) =  -675.182434403     a.u. after    1 cycles

 The electronic state is 2-A.
 Alpha  occ. eigenvalues --  -19.00322 -14.24880 -10.18465 -10.13254 -10.09305
 Alpha  occ. eigenvalues --  -10.09162 -10.09071 -10.08863 -10.08432 -10.08369
 Alpha  occ. eigenvalues --  -10.08284 -10.08082 -10.07913 -10.07601 -10.07323
 Alpha  occ. eigenvalues --  -10.06761  -0.95234  -0.85598  -0.77235  -0.71819
 Alpha  occ. eigenvalues --   -0.69846  -0.68110  -0.65740  -0.63994  -0.60248
 Alpha  occ. eigenvalues --   -0.55653  -0.52868  -0.52152  -0.50326  -0.49595
 Alpha  occ. eigenvalues --   -0.47017  -0.42511  -0.42287  -0.38456  -0.37821
 Alpha  occ. eigenvalues --   -0.36813  -0.36401  -0.35614  -0.34669  -0.33187
 Alpha  occ. eigenvalues --   -0.32924  -0.32302  -0.31375  -0.31105  -0.30485
 Alpha  occ. eigenvalues --   -0.30432  -0.29078  -0.28924  -0.26225  -0.25922
 Alpha  occ. eigenvalues --   -0.25430  -0.24960  -0.23895  -0.23487  -0.23060
 Alpha  occ. eigenvalues --   -0.17788  -0.17046  -0.16616  -0.14905   0.03914
 Alpha virt. eigenvalues --    0.05486   0.06439   0.06991   0.07239   0.07506
 Alpha virt. eigenvalues --    0.07741   0.07901   0.08519   0.09200   0.09462
 Alpha virt. eigenvalues --    0.09847   0.09893   0.10558   0.10819   0.11829

  Beta  occ. eigenvalues --  -19.00320 -14.24862 -10.18466 -10.13239 -10.09286
  Beta  occ. eigenvalues --  -10.09143 -10.09049 -10.08842 -10.08421 -10.08357
  Beta  occ. eigenvalues --  -10.08274 -10.08062 -10.07901 -10.07582 -10.07312
  Beta  occ. eigenvalues --  -10.06735  -0.95229  -0.85572  -0.77196  -0.71778
  Beta  occ. eigenvalues --   -0.69808  -0.68069  -0.65702  -0.63956  -0.60203
  Beta  occ. eigenvalues --   -0.55604  -0.52817  -0.52108  -0.50283  -0.49540
  Beta  occ. eigenvalues --   -0.46966  -0.42473  -0.42247  -0.38424  -0.37780
  Beta  occ. eigenvalues --   -0.36787  -0.36358  -0.35582  -0.34640  -0.33155
  Beta  occ. eigenvalues --   -0.32887  -0.32266  -0.31352  -0.31058  -0.30442
  Beta  occ. eigenvalues --   -0.30391  -0.29045  -0.28876  -0.26181  -0.25884
  Beta  occ. eigenvalues --   -0.25396  -0.24931  -0.23866  -0.23450  -0.23025
  Beta  occ. eigenvalues --   -0.17754  -0.17021  -0.16565  -0.14798
  Beta virt. eigenvalues --    0.05932   0.06457   0.06843   0.07218   0.07409
  Beta virt. eigenvalues --    0.07928   0.08051   0.08347   0.08893   0.09483
  Beta virt. eigenvalues --    0.09725   0.10086   0.10220   0.10863   0.11099

 Mulliken charges and spin densities:
               1          2
     1  C    0.422105  -1.008454
     2  C   -0.710111   0.484341
     3  C    0.636954  -0.864595
     4  C    0.523733  -0.778668
     5  C    0.631100   0.168519
     6  C   -0.362278  -0.197292
     7  C    0.444913  -0.909136
     8  C    0.503669   0.030707
     9  C   -1.070338   0.668700
    10  C   -0.969926   0.494912
    11  C    0.728190  -0.719477
    12  C    0.242164  -0.762668
    13  C    0.469450  -0.861379
    14  C    0.120582  -0.036358
    15  O   -0.395777   0.017790
    16  N   -0.090942  -0.060283
    17  H   -0.017726   0.150721
    18  H   -0.108295   0.239101
    19  H   -0.125520   0.258520
    20  H    0.168154  -0.039736
    21  H   -0.086259   0.238152
    22  H   -0.028778   0.157981
    23  H   -0.260298   0.408659
    24  H   -0.092516   0.269764
    25  H   -0.120003   0.282933
    26  H   -0.127144   0.269051
    27  H   -0.697058   0.878527
    28  H    0.059979   0.128919
    29  H   -0.255998   0.417488
    30  H   -0.307515   0.547363
    31  H   -0.299265   0.477802
    32  H    0.059871   0.105239
    33  H   -0.105575   0.282526
    34  H    0.022895   0.151212
    35  H    0.197561   0.109118
 Sum of Mulliken charges =  -1.00000   1.00000

 Dipole moment (field-independent basis, Debye):
    X=              0.4450    Y=              1.3220    Z=              1.3826  Tot=              1.9640
 Quadrupole moment (field-independent basis, Debye-Ang):
   XX=           -215.5362   YY=           -141.7482   ZZ=           -133.6574
   XY=             -2.6931   XZ=              5.8687   YZ=             -4.9973

 Summary of Natural Population Analysis:

                                       Natural Population
                Natural  -----------------------------------------------
    Atom  No    Charge         Core      Valence    Rydberg      Total
 -----------------------------------------------------------------------
      C    1   -0.28532      0.99967     2.28134    0.00431     3.28532
      C    2   -0.19273      0.99964     2.18640    0.00670     3.19273
      C    3   -0.18365      0.99962     2.17502    0.00901     3.18365
      C    4   -0.19954      0.99959     2.19015    0.00979     3.19954
      C    5   -0.01186      0.99951     2.00089    0.01146     3.01186
      C    6   -0.09538      0.99951     2.08614    0.00974     3.09538
      C    7   -0.09286      0.99951     2.08307    0.01028     3.09286
      C    8   -0.02673      0.99949     2.01564    0.01160     3.02673
      C    9   -0.09683      0.99951     2.08890    0.00842     3.09683
      C   10   -0.09673      0.99951     2.08882    0.00840     3.09673
      C   11   -0.01087      0.99956     1.99789    0.01342     3.01087
      C   12   -0.18545      0.99962     2.17741    0.00842     3.18545
      C   13   -0.23486      0.99960     2.22727    0.00799     3.23486
      C   14    0.34638      0.99968     1.63093    0.02301     2.65362
      O   15   -0.32091      0.99987     3.31521    0.00583     4.32091
      N   16   -0.32064      0.99966     2.81205    0.00892     3.82064
      H   17    0.09607      0.00000     0.40262    0.00130     0.40393
      H   18    0.09807      0.00000     0.40089    0.00104     0.40193
      H   19    0.09503      0.00000     0.40365    0.00132     0.40497
      H   20    0.09807      0.00000     0.40046    0.00147     0.40193
      H   21    0.09439      0.00000     0.40448    0.00113     0.40561
      H   22    0.09569      0.00000     0.40302    0.00129     0.40431
      H   23    0.09628      0.00000     0.40231    0.00141     0.40372
      H   24    0.10407      0.00000     0.39461    0.00132     0.39593
      H   25    0.10050      0.00000     0.39806    0.00143     0.39950
      H   26    0.10058      0.00000     0.39757    0.00185     0.39942
      H   27    0.10318      0.00000     0.39515    0.00167     0.39682
      H   28    0.10366      0.00000     0.39506    0.00128     0.39634
      H   29    0.09929      0.00000     0.39937    0.00134     0.40071
      H   30    0.09479      0.00000     0.40266    0.00256     0.40521
      H   31    0.10749      0.00000     0.39090    0.00161     0.39251
      H   32    0.10071      0.00000     0.39791    0.00138     0.39929
      H   33    0.11139      0.00000     0.38729    0.00133     0.38861
      H   34    0.11008      0.00000     0.38901    0.00090     0.38992
      H   35    0.19865      0.00000     0.29929    0.00207     0.30135
 =======================================================================
   * Total *    0.00000     15.99355    42.82144    0.18501    59.00000

 Normal termination of Gaussian 16 at Fri Dec 11 01:31:49 2020.
