 Gaussian 16, Revision A.03,

 -----------------------------------------------------------
 # opt freq B3LYP/6-31G(d) empiricaldispersion=gd3bj scf=xqc
 -----------------------------------------------------------

 ------------------------------
 CID_64043983_JID_8191_neutraal
 ------------------------------
 Symbolic Z-matrix:
 Charge =  0 Multiplicity = 1

 SCF Done:  E(RB3LYP) =  -809.273793704     A.U. after   14 cycles
 SCF Done:  E(RB3LYP) =  -809.276240914     A.U. after   13 cycles
 SCF Done:  E(RB3LYP) =  -809.278156177     A.U. after   13 cycles
 SCF Done:  E(RB3LYP) =  -809.279885784     A.U. after   15 cycles
 SCF Done:  E(RB3LYP) =  -809.283159058     A.U. after   13 cycles
 SCF Done:  E(RB3LYP) =  -809.281823190     A.U. after   14 cycles
 SCF Done:  E(RB3LYP) =  -809.284936879     A.U. after   12 cycles
 SCF Done:  E(RB3LYP) =  -809.285326755     A.U. after   12 cycles
 SCF Done:  E(RB3LYP) =  -809.285351056     A.U. after   13 cycles
 SCF Done:  E(RB3LYP) =  -809.285835536     A.U. after   12 cycles
 SCF Done:  E(RB3LYP) =  -809.288834193     A.U. after    8 cycles
 SCF Done:  E(RB3LYP) =  -809.288834148     A.U. after    8 cycles
 SCF Done:  E(RB3LYP) =  -809.288834142     A.U. after    7 cycles
 SCF Done:  E(RB3LYP) =  -809.288834114     A.U. after    7 cycles
 Optimization completed.
    -- Stationary point found.
 Normal termination of Gaussian 16 at Fri Dec 11 20:02:21 2020.

 --------------------------------------------------------------------
 #N Geom=AllCheck Guess=TCheck SCRF=Check GenChk RB3LYP/6-31G(d) Freq
 --------------------------------------------------------------------

 Structure from the checkpoint file:  "JID_8191.chk"
 ------------------------------
 CID_64043983_JID_8191_neutraal
 ------------------------------
 Charge =  0 Multiplicity = 1

 SCF Done:  E(RB3LYP) =  -809.288834114     A.U. after    1 cycles

  Exact polarizability: 218.985  10.709 166.787  -4.275  13.666 115.082
 Approx polarizability: 334.978  34.270 248.730 -10.284  29.365 171.243

                      1                      2                      3
                      A                      A                      A
 Frequencies --     19.1169                40.8527                59.6999
 Red. masses --      3.9901                 4.2629                 3.9640
 Frc consts  --      0.0009                 0.0042                 0.0083
 IR Inten    --      0.0840                 0.0653                 0.0096

                      4                      5                      6
                      A                      A                      A
 Frequencies --     68.5693                76.8031                90.2988
 Red. masses --      3.9169                 4.4236                 3.8376
 Frc consts  --      0.0109                 0.0154                 0.0184
 IR Inten    --      0.2493                 0.0743                 0.7743

                      7                      8                      9
                      A                      A                      A
 Frequencies --    108.1689               123.8141               146.2044
 Red. masses --      4.9061                 3.1145                 3.4426
 Frc consts  --      0.0338                 0.0281                 0.0434
 IR Inten    --      2.0590                 0.7372                 1.2046

                     10                     11                     12
                      A                      A                      A
 Frequencies --    155.0862               182.1515               209.8848
 Red. masses --      1.8983                 3.5647                 2.9460
 Frc consts  --      0.0269                 0.0697                 0.0765
 IR Inten    --      5.9664                 1.3103                 1.2869

                     13                     14                     15
                      A                      A                      A
 Frequencies --    217.7116               245.6397               260.5103
 Red. masses --      3.0047                 1.6072                 1.1374
 Frc consts  --      0.0839                 0.0571                 0.0455
 IR Inten    --      2.3185                 7.0879                 1.8162

                     16                     17                     18
                      A                      A                      A
 Frequencies --    274.2415               305.1176               339.6699
 Red. masses --      2.8643                 2.5174                 3.0005
 Frc consts  --      0.1269                 0.1381                 0.2040
 IR Inten    --      6.6092                 2.1938                 2.8263

                     19                     20                     21
                      A                      A                      A
 Frequencies --    351.6046               368.3821               387.4806
 Red. masses --      2.3872                 1.8970                 2.3065
 Frc consts  --      0.1739                 0.1517                 0.2040
 IR Inten    --     17.3905                49.4918                41.3126

                     22                     23                     24
                      A                      A                      A
 Frequencies --    402.0662               407.8763               433.1138
 Red. masses --      3.6125                 3.2317                 3.6761
 Frc consts  --      0.3441                 0.3168                 0.4063
 IR Inten    --      6.0907                19.9972                 3.0793

                     25                     26                     27
                      A                      A                      A
 Frequencies --    458.1616               476.7666               548.1433
 Red. masses --      2.9799                 3.6795                 3.7538
 Frc consts  --      0.3685                 0.4928                 0.6645
 IR Inten    --      6.9320                 7.2518                 2.4015

                     28                     29                     30
                      A                      A                      A
 Frequencies --    567.5394               585.9141               615.2637
 Red. masses --      5.2290                 4.3940                 5.3270
 Frc consts  --      0.9923                 0.8887                 1.1881
 IR Inten    --      0.8130                 4.7505                 5.5835

                     31                     32                     33
                      A                      A                      A
 Frequencies --    688.5440               703.8348               741.1165
 Red. masses --      2.6720                 3.8234                 3.5827
 Frc consts  --      0.7464                 1.1159                 1.1594
 IR Inten    --      2.3841                 3.2146                 4.3842

                     34                     35                     36
                      A                      A                      A
 Frequencies --    777.0505               800.6196               824.6981
 Red. masses --      1.3910                 3.2168                 4.2979
 Frc consts  --      0.4949                 1.2148                 1.7222
 IR Inten    --     37.8208                15.7884                 2.1231

                     37                     38                     39
                      A                      A                      A
 Frequencies --    868.1507               890.5932               896.6354
 Red. masses --      2.4297                 1.3609                 2.0268
 Frc consts  --      1.0789                 0.6360                 0.9600
 IR Inten    --      8.0113                 0.3175                 4.1874

                     40                     41                     42
                      A                      A                      A
 Frequencies --    924.2999               938.5012               956.4420
 Red. masses --      2.5157                 1.7068                 1.3690
 Frc consts  --      1.2663                 0.8857                 0.7378
 IR Inten    --     14.3866                 7.2594                 4.7940

                     43                     44                     45
                      A                      A                      A
 Frequencies --    972.3574               989.8408              1015.1346
 Red. masses --      2.0392                 1.2612                 3.3168
 Frc consts  --      1.1360                 0.7280                 2.0138
 IR Inten    --      7.5018                 1.1121                 4.3747

                     46                     47                     48
                      A                      A                      A
 Frequencies --   1032.5380              1069.5965              1072.9317
 Red. masses --      2.1289                 2.4908                 2.3663
 Frc consts  --      1.3372                 1.6789                 1.6049
 IR Inten    --      7.1240                37.9742                59.4094

                     49                     50                     51
                      A                      A                      A
 Frequencies --   1076.4511              1096.0163              1108.0330
 Red. masses --      2.0624                 2.8549                 2.1461
 Frc consts  --      1.4080                 2.0206                 1.5524
 IR Inten    --      8.5592                24.3345                71.3002

                     52                     53                     54
                      A                      A                      A
 Frequencies --   1134.3363              1145.3902              1166.6669
 Red. masses --      2.0369                 2.3677                 2.6516
 Frc consts  --      1.5442                 1.8302                 2.1264
 IR Inten    --     11.5772                31.1881                66.8268

                     55                     56                     57
                      A                      A                      A
 Frequencies --   1194.4329              1196.5211              1201.4083
 Red. masses --      1.1827                 2.0542                 1.4931
 Frc consts  --      0.9942                 1.7327                 1.2697
 IR Inten    --     12.9686                53.7135                17.6168

                     58                     59                     60
                      A                      A                      A
 Frequencies --   1209.3562              1221.5063              1242.3857
 Red. masses --      1.1664                 2.0886                 1.7394
 Frc consts  --      1.0051                 1.8361                 1.5819
 IR Inten    --     13.6238                 7.7973                22.0274

                     61                     62                     63
                      A                      A                      A
 Frequencies --   1244.9729              1285.6244              1298.9848
 Red. masses --      1.1999                 2.4426                 1.1206
 Frc consts  --      1.0958                 2.3786                 1.1141
 IR Inten    --      5.0101                 4.8955                26.3347

                     64                     65                     66
                      A                      A                      A
 Frequencies --   1308.9428              1318.4531              1346.1644
 Red. masses --      1.7550                 1.5323                 2.6701
 Frc consts  --      1.7716                 1.5694                 2.8508
 IR Inten    --      2.4199                 8.2399                 2.7537

                     67                     68                     69
                      A                      A                      A
 Frequencies --   1365.3897              1378.5619              1395.2502
 Red. masses --      1.5729                 1.4821                 1.2089
 Frc consts  --      1.7277                 1.6595                 1.3866
 IR Inten    --     18.1365                10.0859                 8.3730

                     70                     71                     72
                      A                      A                      A
 Frequencies --   1408.9384              1418.6136              1427.4846
 Red. masses --      1.2681                 1.3304                 1.3234
 Frc consts  --      1.4832                 1.5775                 1.5889
 IR Inten    --      9.5672                 9.7387                 6.9357

                     73                     74                     75
                      A                      A                      A
 Frequencies --   1437.5549              1447.6443              1493.1671
 Red. masses --      1.2458                 1.2899                 1.1964
 Frc consts  --      1.5168                 1.5926                 1.5716
 IR Inten    --     45.2114                25.5671                 7.6460

                     76                     77                     78
                      A                      A                      A
 Frequencies --   1494.8377              1499.8085              1505.6247
 Red. masses --      1.8163                 1.1761                 1.1331
 Frc consts  --      2.3912                 1.5587                 1.5133
 IR Inten    --      4.4337                 1.4649                 4.1156

                     79                     80                     81
                      A                      A                      A
 Frequencies --   1514.0658              1520.4913              1527.0675
 Red. masses --      1.0526                 1.0735                 1.0650
 Frc consts  --      1.4217                 1.4622                 1.4632
 IR Inten    --      9.8048                 7.1123                 3.2494

                     82                     83                     84
                      A                      A                      A
 Frequencies --   1531.3188              1535.2238              1539.7554
 Red. masses --      2.1025                 1.1102                 1.0945
 Frc consts  --      2.9047                 1.5416                 1.5289
 IR Inten    --     12.1094                 0.5069                 1.8862

                     85                     86                     87
                      A                      A                      A
 Frequencies --   1548.9713              1625.2494              1660.7206
 Red. masses --      1.0924                 5.6852                 5.7607
 Frc consts  --      1.5442                 8.8478                 9.3610
 IR Inten    --      4.6911                 0.2118                 0.6818

                     88                     89                     90
                      A                      A                      A
 Frequencies --   2340.2299              2976.0933              2999.6053
 Red. masses --     11.8874                 1.0634                 1.0417
 Frc consts  --     38.3580                 5.5494                 5.5224
 IR Inten    --      1.4974                48.5036                78.6287

                     91                     92                     93
                      A                      A                      A
 Frequencies --   3029.0115              3035.4457              3036.8019
 Red. masses --      1.0681                 1.0950                 1.0593
 Frc consts  --      5.7740                 5.9441                 5.7557
 IR Inten    --     35.1010                46.3691                34.1817

                     94                     95                     96
                      A                      A                      A
 Frequencies --   3044.3002              3052.2519              3061.4805
 Red. masses --      1.0700                 1.1025                 1.0652
 Frc consts  --      5.8425                 6.0514                 5.8823
 IR Inten    --     38.2648                42.8758                18.9048

                     97                     98                     99
                      A                      A                      A
 Frequencies --   3067.2470              3075.4797              3112.1524
 Red. masses --      1.0589                 1.1012                 1.0990
 Frc consts  --      5.8695                 6.1371                 6.2715
 IR Inten    --     43.2368                21.1412                63.1345

                    100                    101                    102
                      A                      A                      A
 Frequencies --   3129.4741              3136.2487              3152.2575
 Red. masses --      1.0995                 1.0915                 1.0967
 Frc consts  --      6.3446                 6.3255                 6.4208
 IR Inten    --     24.6229                20.4893                20.1691

                    103                    104                    105
                      A                      A                      A
 Frequencies --   3160.3718              3187.0183              3199.9066
 Red. masses --      1.1000                 1.0856                 1.0899
 Frc consts  --      6.4732                 6.4965                 6.5753
 IR Inten    --     13.2645                 1.0363                15.2871

                    106                    107                    108
                      A                      A                      A
 Frequencies --   3211.8047              3217.4088              3729.1433
 Red. masses --      1.0933                 1.0958                 1.0652
 Frc consts  --      6.6451                 6.6834                 8.7275
 IR Inten    --     18.2593                16.7288                41.5531

 - Thermochemistry -
 -------------------
 Temperature   298.150 Kelvin.  Pressure   1.00000 Atm.
 Atom     1 has atomic number  6 and mass  12.00000

 Molecular mass:   248.14124 amu.
 Principal axes and moments of inertia in atomic units:
                           1         2         3
     Eigenvalues --  3554.625104914.223986671.20551
           X            0.99999   0.00472  -0.00186
           Y           -0.00471   0.99998   0.00381
           Z            0.00188  -0.00381   0.99999
 This molecule is an asymmetric top.
 Rotational symmetry number  1.
 Warning -- assumption of classical behavior for rotation
           may cause significant error
 Rotational temperatures (Kelvin)      0.02437     0.01763     0.01298
 Rotational constants (GHZ):           0.50772     0.36725     0.27053
 Zero-point vibrational energy     853618.4 (Joules/Mol)
                                  204.01970 (Kcal/Mol)
 Warning -- explicit consideration of  30 degrees of freedom as
           vibrations may cause significant error
 Vibrational temperatures:     27.50    58.78    85.89    98.66   110.50
          (Kelvin)            129.92   155.63   178.14   210.36   223.13
                              262.08   301.98   313.24   353.42   374.82
                              394.57   439.00   488.71   505.88   530.02
                              557.50   578.48   586.84   623.15   659.19
                              685.96   788.66   816.56   843.00   885.23
                              990.66  1012.66  1066.30  1118.00  1151.91
                             1186.56  1249.08  1281.36  1290.06  1329.86
                             1350.29  1376.11  1399.01  1424.16  1460.55
                             1485.59  1538.91  1543.71  1548.77  1576.92
                             1594.21  1632.06  1647.96  1678.57  1718.52
                             1721.53  1728.56  1739.99  1757.48  1787.52
                             1791.24  1849.73  1868.95  1883.28  1896.96
                             1936.83  1964.49  1983.44  2007.45  2027.15
                             2041.07  2053.83  2068.32  2082.84  2148.33
                             2150.74  2157.89  2166.26  2178.40  2187.65
                             2197.11  2203.23  2208.84  2215.36  2228.62
                             2338.37  2389.41  3367.07  4281.93  4315.76
                             4358.07  4367.33  4369.28  4380.07  4391.51
                             4404.79  4413.08  4424.93  4477.69  4502.62
                             4512.36  4535.40  4547.07  4585.41  4603.95
                             4621.07  4629.13  5365.41

 Zero-point correction=                           0.325126 (Hartree/Particle)
 Thermal correction to Energy=                    0.344013
 Thermal correction to Enthalpy=                  0.344957
 Thermal correction to Gibbs Free Energy=         0.277182
 Sum of electronic and zero-point Energies=           -808.963708
 Sum of electronic and thermal Energies=              -808.944821
 Sum of electronic and thermal Enthalpies=            -808.943877
 Sum of electronic and thermal Free Energies=         -809.011652

                     E (Thermal)             CV                S
                      KCal/Mol        Cal/Mol-Kelvin    Cal/Mol-Kelvin
 Total                  215.871             70.085            142.646
 Electronic               0.000              0.000              0.000
 Translational            0.889              2.981             42.427
 Rotational               0.889              2.981             33.121
 Vibrational            214.094             64.124             67.097
 Vibration     1          0.593              1.986              6.724
 Vibration     2          0.594              1.981              5.217
 Vibration     3          0.597              1.974              4.467
 Vibration     4          0.598              1.969              4.194
 Vibration     5          0.599              1.965              3.971
 Vibration     6          0.602              1.956              3.654
 Vibration     7          0.606              1.943              3.302
 Vibration     8          0.610              1.929              3.040
 Vibration     9          0.617              1.907              2.721
 Vibration    10          0.620              1.897              2.609
 Vibration    11          0.630              1.864              2.306
 Vibration    12          0.642              1.826              2.045
 Vibration    13          0.646              1.814              1.978
 Vibration    14          0.660              1.770              1.762
 Vibration    15          0.669              1.745              1.658
 Vibration    16          0.677              1.721              1.569
 Vibration    17          0.696              1.664              1.389
 Vibration    18          0.720              1.596              1.214
 Vibration    19          0.728              1.572              1.159
 Vibration    20          0.741              1.537              1.087
 Vibration    21          0.756              1.497              1.010
 Vibration    22          0.768              1.466              0.955
 Vibration    23          0.772              1.453              0.934
 Vibration    24          0.794              1.398              0.849
 Vibration    25          0.816              1.343              0.771
 Vibration    26          0.833              1.302              0.719
 Vibration    27          0.903              1.144              0.548
 Vibration    28          0.923              1.101              0.509
 Vibration    29          0.943              1.062              0.475
 Vibration    30          0.975              1.000              0.424

 Optimization completed.
    -- Stationary point found.
 Normal termination of Gaussian 16 at Fri Dec 11 20:21:37 2020.

 ----------------------------------------------------------------------
 # B3LYP/6-311++G(d,p) empiricaldispersion=gd3bj scf=xqc pop=npa geom=c
 heck
 ----------------------------------------------------------------------

 --------------------------------------
 CID_64043983_JID_8191_Energie_neutraal
 --------------------------------------
 Structure from the checkpoint file:  "JID_8191.chk"
 Charge =  0 Multiplicity = 1

 SCF Done:  E(RB3LYP) =  -809.521842467     A.U. after   14 cycles
 Normal termination of Gaussian 16 at Fri Dec 11 20:29:52 2020.

 ----------------------------------------------------------------------
 # B3LYP/6-311++G(d,p) empiricaldispersion=gd3bj scf=xqc pop=npa geom=c
 heck
 ----------------------------------------------------------------------

 ------------------------------------
 CID_64043983_JID_8191_Energie_kation
 ------------------------------------
 Structure from the checkpoint file:  "JID_8191.chk"
 Charge =  1 Multiplicity = 2

 SCF Done:  E(UB3LYP) =  -809.224354400     A.U. after   33 cycles
 SCF Done:  E(UB3LYP) =  -809.224354405     a.u. after    2 cycles
 Normal termination of Gaussian 16 at Fri Dec 11 21:18:15 2020.
 Gaussian 16:  ES64L-G16RevA.03 25-Dec-2016

 ----------------------------------------------------------------------
 # B3LYP/6-311++G(d,p) empiricaldispersion=gd3bj scf=xqc pop=npa geom=c
 heck
 ----------------------------------------------------------------------

 -----------------------------------
 CID_64043983_JID_8191_Energie_anion
 -----------------------------------
 Structure from the checkpoint file:  "JID_8191.chk"
 Charge = -1 Multiplicity = 2

                         Standard orientation:
 ---------------------------------------------------------------------
 Center     Atomic      Atomic             Coordinates (Angstroms)
 Number     Number       Type             X           Y           Z
 ---------------------------------------------------------------------
      1          6           0        1.597384   -2.914327   -0.265103
      2          6           0        0.097818   -2.749897   -0.009839
      3          6           0       -0.203043   -2.030789    1.305218
      4          8           0        0.536001   -0.826568    1.386096
      5          6           0        0.157738   -0.031009    2.489779
      6          8           0       -0.582500   -2.196602   -1.144008
      7          6           0       -0.376537   -0.816240   -1.409290
      8          6           0       -1.445465    0.071012   -0.803113
      9          6           0       -2.759789   -0.390952   -0.717800
     10          6           0       -3.774711    0.412399   -0.200309
     11          6           0       -3.483178    1.705288    0.240143
     12          6           0       -2.178634    2.181565    0.168545
     13          6           0       -1.147302    1.374380   -0.347083
     14          6           0        0.197307    1.855708   -0.342198
     15          6           0        1.347618    2.235283   -0.276528
     16          6           0        2.780573    2.489344   -0.139368
     17          6           0        3.526386    1.161376    0.109979
     18          8           0        3.400436    0.269868   -0.983557
     19          1           0        2.120628   -1.957273   -0.327011
     20          1           0        1.753282   -3.462466   -1.198846
     21          1           0        2.056027   -3.481972    0.552631
     22          1           0       -0.352665   -3.745717    0.078836
     23          1           0       -1.281934   -1.824427    1.369082
     24          1           0        0.065008   -2.695809    2.144687
     25          1           0       -0.905508    0.245537    2.435641
     26          1           0        0.342231   -0.552151    3.442583
     27          1           0        0.759954    0.878536    2.447708
     28          1           0        0.604408   -0.487251   -1.064076
     29          1           0       -0.398746   -0.714925   -2.502231
     30          1           0       -2.971127   -1.401496   -1.052462
     31          1           0       -4.790546    0.031724   -0.141952
     32          1           0       -4.268567    2.338056    0.643327
     33          1           0       -1.934252    3.178409    0.521856
     34          1           0        3.182415    2.956067   -1.048102
     35          1           0        2.971101    3.181801    0.691969
     36          1           0        4.596918    1.357557    0.222887
     37          1           0        3.154184    0.705885    1.038824
     38          1           0        2.448718    0.157478   -1.141798
 ---------------------------------------------------------------------

 SCF Done:  E(UB3LYP) =  -809.512991791     A.U. after   33 cycles
 SCF Done:  E(UB3LYP) =  -809.512991791     a.u. after    1 cycles

 The electronic state is 2-A.
 Alpha  occ. eigenvalues --  -19.02268 -19.01983 -19.01805 -10.12450 -10.11491
 Alpha  occ. eigenvalues --  -10.11278 -10.10963 -10.10340 -10.08721 -10.06801
 Alpha  occ. eigenvalues --  -10.06251 -10.05957 -10.05782 -10.05748 -10.05375
 Alpha  occ. eigenvalues --  -10.05005 -10.04822 -10.04503  -0.94157  -0.92442
 Alpha  occ. eigenvalues --   -0.92281  -0.74728  -0.68713  -0.68511  -0.65717
 Alpha  occ. eigenvalues --   -0.64391  -0.60613  -0.60012  -0.57869  -0.54708
 Alpha  occ. eigenvalues --   -0.53512  -0.50079  -0.49097  -0.45774  -0.41989
 Alpha  occ. eigenvalues --   -0.41019  -0.40456  -0.39123  -0.38075  -0.37761
 Alpha  occ. eigenvalues --   -0.36153  -0.35680  -0.35081  -0.33651  -0.33133
 Alpha  occ. eigenvalues --   -0.32590  -0.31414  -0.30579  -0.30012  -0.29785
 Alpha  occ. eigenvalues --   -0.29720  -0.29612  -0.27341  -0.26274  -0.25002
 Alpha  occ. eigenvalues --   -0.24289  -0.23922  -0.23695  -0.22320  -0.20253
 Alpha  occ. eigenvalues --   -0.19230  -0.17909  -0.16518  -0.15706  -0.14756
 Alpha  occ. eigenvalues --   -0.13783  -0.11543   0.04612
 Alpha virt. eigenvalues --    0.06595   0.06954   0.07646   0.08043   0.09007
 Alpha virt. eigenvalues --    0.09194   0.09372   0.09797   0.10014   0.10614
 Alpha virt. eigenvalues --    0.11259   0.11692   0.12242   0.12738   0.13065

  Beta  occ. eigenvalues --  -19.02264 -19.01980 -19.01799 -10.12445 -10.11458
  Beta  occ. eigenvalues --  -10.11260 -10.10969 -10.10321 -10.08725 -10.06618
  Beta  occ. eigenvalues --  -10.06177 -10.05983 -10.05770 -10.05678 -10.05387
  Beta  occ. eigenvalues --  -10.04820 -10.04778 -10.04363  -0.94147  -0.92431
  Beta  occ. eigenvalues --   -0.92277  -0.74479  -0.68583  -0.68405  -0.65466
  Beta  occ. eigenvalues --   -0.64214  -0.60560  -0.59860  -0.57805  -0.54649
  Beta  occ. eigenvalues --   -0.53412  -0.49824  -0.48930  -0.45713  -0.41881
  Beta  occ. eigenvalues --   -0.40967  -0.40404  -0.39083  -0.37991  -0.37680
  Beta  occ. eigenvalues --   -0.36067  -0.35600  -0.35004  -0.33557  -0.33083
  Beta  occ. eigenvalues --   -0.32521  -0.31334  -0.30506  -0.29919  -0.29687
  Beta  occ. eigenvalues --   -0.29670  -0.29558  -0.27273  -0.26058  -0.24628
  Beta  occ. eigenvalues --   -0.24200  -0.23840  -0.23651  -0.22285  -0.20223
  Beta  occ. eigenvalues --   -0.18613  -0.17754  -0.16455  -0.15675  -0.14662
  Beta  occ. eigenvalues --   -0.13352  -0.10589
  Beta virt. eigenvalues --    0.06804   0.07447   0.07655   0.08316   0.08744
  Beta virt. eigenvalues --    0.09058   0.09351   0.09454   0.10073   0.10117
  Beta virt. eigenvalues --    0.10798   0.11275   0.11709   0.12316   0.12825

 Mulliken charges and spin densities:
               1          2
     1  C    0.127023  -0.580117
     2  C   -0.628424   0.326907
     3  C   -0.051351  -0.243057
     4  O   -0.046127   0.021902
     5  C    0.252016  -0.565079
     6  O   -0.028465  -0.013656
     7  C    0.072944  -0.319194
     8  C   -0.089849   0.223165
     9  C    0.082463  -0.194058
    10  C   -0.588041   0.255742
    11  C   -0.253432  -0.171011
    12  C   -0.432020   0.089086
    13  C    0.157056   0.299272
    14  C    0.262260  -0.064477
    15  C   -0.019901   0.205913
    16  C   -0.359161  -0.275120
    17  C    0.294082  -0.490045
    18  O   -0.232995   0.003856
    19  H    0.154732  -0.026759
    20  H    0.085233   0.060414
    21  H   -0.081209   0.210841
    22  H   -0.107637   0.295984
    23  H    0.214705  -0.061745
    24  H   -0.256477   0.404816
    25  H    0.047921   0.101374
    26  H   -0.170718   0.296783
    27  H    0.016574   0.115412
    28  H    0.241079  -0.260682
    29  H    0.143276   0.071512
    30  H    0.116077   0.043451
    31  H    0.086373   0.028737
    32  H    0.086052   0.042951
    33  H    0.094182   0.050172
    34  H    0.072905   0.120314
    35  H   -0.079423   0.227347
    36  H   -0.517145   0.682958
    37  H    0.097235   0.040855
    38  H    0.238187   0.045233
 Sum of Mulliken charges =  -1.00000   1.00000

 Dipole moment (field-independent basis, Debye):
    X=             -3.2683    Y=             -0.5370    Z=             -0.5738  Tot=              3.3615
 Quadrupole moment (field-independent basis, Debye-Ang):
   XX=           -167.7236   YY=           -147.7706   ZZ=           -139.8177
   XY=             -1.9674   XZ=             -2.3698   YZ=              3.5914

 Summary of Natural Population Analysis:

                                       Natural Population
                Natural  -----------------------------------------------
    Atom  No    Charge         Core      Valence    Rydberg      Total
 -----------------------------------------------------------------------
      C    1   -0.30261      0.99963     2.29646    0.00652     3.30261
      C    2    0.05870      0.99954     1.92630    0.01546     2.94130
      C    3   -0.02368      0.99955     2.01173    0.01240     3.02368
      O    4   -0.30349      0.99988     3.29194    0.01166     4.30349
      C    5   -0.09974      0.99961     2.09007    0.01006     3.09974
      O    6   -0.30588      0.99989     3.29686    0.00913     4.30588
      C    7   -0.01909      0.99951     2.00703    0.01255     3.01909
      C    8    0.00000      0.99947     1.99041    0.01011     3.00000
      C    9   -0.11022      0.99951     2.10162    0.00909     3.11022
      C   10   -0.06601      0.99957     2.05622    0.01022     3.06601
      C   11   -0.11774      0.99957     2.10850    0.00968     3.11774
      C   12   -0.07379      0.99954     2.06400    0.01025     3.07379
      C   13   -0.03848      0.99942     2.02969    0.00937     3.03848
      C   14   -0.03909      0.99933     2.02618    0.01358     3.03909
      C   15    0.05319      0.99925     1.93918    0.00838     2.94681
      C   16   -0.24841      0.99961     2.23578    0.01302     3.24841
      C   17   -0.00248      0.99962     1.98912    0.01374     3.00248
      O   18   -0.36970      0.99990     3.36342    0.00639     4.36970
      H   19    0.10826      0.00000     0.39006    0.00169     0.39174
      H   20    0.09935      0.00000     0.39975    0.00090     0.40065
      H   21    0.10085      0.00000     0.39825    0.00091     0.39915
      H   22    0.09021      0.00000     0.40859    0.00120     0.40979
      H   23    0.09060      0.00000     0.40787    0.00153     0.40940
      H   24    0.08231      0.00000     0.41607    0.00162     0.41769
      H   25    0.08497      0.00000     0.41379    0.00123     0.41503
      H   26    0.07564      0.00000     0.42317    0.00119     0.42436
      H   27    0.09564      0.00000     0.40317    0.00120     0.40436
      H   28    0.08819      0.00000     0.40911    0.00270     0.41181
      H   29    0.09153      0.00000     0.40739    0.00108     0.40847
      H   30    0.10295      0.00000     0.39580    0.00125     0.39705
      H   31    0.09141      0.00000     0.40774    0.00085     0.40859
      H   32    0.09494      0.00000     0.40424    0.00082     0.40506
      H   33    0.09829      0.00000     0.40090    0.00081     0.40171
      H   34    0.11028      0.00000     0.38810    0.00162     0.38972
      H   35    0.10894      0.00000     0.38967    0.00139     0.39106
      H   36    0.08458      0.00000     0.41344    0.00198     0.41542
      H   37    0.08038      0.00000     0.41779    0.00182     0.41962
      H   38    0.23117      0.00000     0.26548    0.00336     0.26883
 =======================================================================
   * Total *    0.00196     17.99240    48.78485    0.22078    66.99804

 Normal termination of Gaussian 16 at Fri Dec 11 21:46:18 2020.
