 Gaussian 16, Revision A.03,

 -----------------------------------------------------------
 # opt freq B3LYP/6-31G(d) empiricaldispersion=gd3bj scf=xqc
 -----------------------------------------------------------

 ------------------------------
 CID_61193627_JID_5421_neutraal
 ------------------------------
 Symbolic Z-matrix:
 Charge =  0 Multiplicity = 1

 SCF Done:  E(RB3LYP) =  -725.892575029     A.U. after   15 cycles
 SCF Done:  E(RB3LYP) =  -725.897999734     A.U. after   12 cycles
 SCF Done:  E(RB3LYP) =  -725.898252132     A.U. after   12 cycles
 SCF Done:  E(RB3LYP) =  -725.898821599     A.U. after   12 cycles
 SCF Done:  E(RB3LYP) =  -725.898615035     A.U. after   12 cycles
 SCF Done:  E(RB3LYP) =  -725.899058267     A.U. after   11 cycles
 SCF Done:  E(RB3LYP) =  -725.899130818     A.U. after   12 cycles
 SCF Done:  E(RB3LYP) =  -725.899132209     A.U. after   11 cycles
 SCF Done:  E(RB3LYP) =  -725.899166534     A.U. after   10 cycles
 SCF Done:  E(RB3LYP) =  -725.899171766     A.U. after    9 cycles
 SCF Done:  E(RB3LYP) =  -725.899173126     A.U. after    9 cycles
 SCF Done:  E(RB3LYP) =  -725.899173551     A.U. after    8 cycles
 SCF Done:  E(RB3LYP) =  -725.899173758     A.U. after    8 cycles
 Optimization completed.
    -- Stationary point found.
 Normal termination of Gaussian 16 at Thu Dec 10 16:06:07 2020.

 --------------------------------------------------------------------
 #N Geom=AllCheck Guess=TCheck SCRF=Check GenChk RB3LYP/6-31G(d) Freq
 --------------------------------------------------------------------

 Structure from the checkpoint file:  "JID_5421.chk"
 ------------------------------
 CID_61193627_JID_5421_neutraal
 ------------------------------
 Charge =  0 Multiplicity = 1

 SCF Done:  E(RB3LYP) =  -725.899173758     A.U. after    1 cycles

  Exact polarizability: 127.704  13.470 136.426  -2.376  -5.423 106.848
 Approx polarizability: 168.144  27.310 204.079  -6.804 -18.377 159.222

                      1                      2                      3
                      A                      A                      A
 Frequencies --     24.2910                33.1712                36.0478
 Red. masses --      3.6857                 4.5123                 4.4554
 Frc consts  --      0.0013                 0.0029                 0.0034
 IR Inten    --      0.7135                 0.1045                 0.6076

                      4                      5                      6
                      A                      A                      A
 Frequencies --     53.6073                59.7420                74.7217
 Red. masses --      7.5667                 4.3164                 3.9488
 Frc consts  --      0.0128                 0.0091                 0.0130
 IR Inten    --      0.8725                 0.2110                 0.5678

                      7                      8                      9
                      A                      A                      A
 Frequencies --     83.2479                90.4902               141.8145
 Red. masses --      2.8518                 4.8971                 2.3072
 Frc consts  --      0.0116                 0.0236                 0.0273
 IR Inten    --      0.0551                 1.8319                 1.0323

                     10                     11                     12
                      A                      A                      A
 Frequencies --    171.4369               222.7335               236.8869
 Red. masses --      3.5997                 1.1194                 4.1160
 Frc consts  --      0.0623                 0.0327                 0.1361
 IR Inten    --      0.1380                 0.0736                 5.2319

                     13                     14                     15
                      A                      A                      A
 Frequencies --    254.1245               285.0985               325.6262
 Red. masses --      2.8229                 2.4742                 3.4857
 Frc consts  --      0.1074                 0.1185                 0.2178
 IR Inten    --      0.6372                 2.3091                 5.0919

                     16                     17                     18
                      A                      A                      A
 Frequencies --    344.4428               366.2531               391.7878
 Red. masses --      3.2777                 2.9318                 3.2597
 Frc consts  --      0.2291                 0.2317                 0.2948
 IR Inten    --      3.8945                 4.2098                14.1509

                     19                     20                     21
                      A                      A                      A
 Frequencies --    420.4669               441.3831               466.9890
 Red. masses --      2.3397                 4.3430                 1.9137
 Frc consts  --      0.2437                 0.4985                 0.2459
 IR Inten    --      2.6402                16.0188                 2.5784

                     22                     23                     24
                      A                      A                      A
 Frequencies --    538.7929               584.2145               615.1121
 Red. masses --      2.5891                 2.3241                 1.5567
 Frc consts  --      0.4428                 0.4674                 0.3470
 IR Inten    --     19.3113                22.9583                59.2644

                     25                     26                     27
                      A                      A                      A
 Frequencies --    629.5068               666.5658               702.1081
 Red. masses --      1.9637                 2.6074                 2.0577
 Frc consts  --      0.4585                 0.6826                 0.5976
 IR Inten    --     59.9505                 2.8400                28.4027

                     28                     29                     30
                      A                      A                      A
 Frequencies --    745.1324               763.8678               825.1891
 Red. masses --      3.5145                 3.7039                 3.7584
 Frc consts  --      1.1497                 1.2734                 1.5078
 IR Inten    --     17.2243                34.1970                26.1803

                     31                     32                     33
                      A                      A                      A
 Frequencies --    832.3174               863.4922               917.1660
 Red. masses --      2.9309                 1.8274                 1.4586
 Frc consts  --      1.1963                 0.8028                 0.7229
 IR Inten    --     32.3270                51.8223                 9.3700

                     34                     35                     36
                      A                      A                      A
 Frequencies --    932.6805               950.2269               952.4375
 Red. masses --      1.5385                 1.5638                 1.5366
 Frc consts  --      0.7885                 0.8319                 0.8212
 IR Inten    --      9.2420                16.5757                23.7876

                     37                     38                     39
                      A                      A                      A
 Frequencies --    953.7775               966.5335               977.3859
 Red. masses --      1.3594                 2.3436                 2.3259
 Frc consts  --      0.7286                 1.2899                 1.3091
 IR Inten    --     37.0514                12.9271                23.8879

                     40                     41                     42
                      A                      A                      A
 Frequencies --   1023.9794              1031.2109              1082.9787
 Red. masses --      1.1052                 1.1051                 2.2298
 Frc consts  --      0.6828                 0.6924                 1.5408
 IR Inten    --     13.1815                13.6810                11.3324

                     43                     44                     45
                      A                      A                      A
 Frequencies --   1107.1943              1120.8951              1145.1080
 Red. masses --      1.6901                 2.3936                 1.9416
 Frc consts  --      1.2207                 1.7719                 1.5000
 IR Inten    --     16.1512                12.3585                12.3337

                     46                     47                     48
                      A                      A                      A
 Frequencies --   1163.8317              1190.4960              1205.3485
 Red. masses --      3.0858                 2.7195                 2.3336
 Frc consts  --      2.4626                 2.2709                 1.9975
 IR Inten    --    231.8958                34.7786                56.8279

                     49                     50                     51
                      A                      A                      A
 Frequencies --   1232.4538              1296.3933              1311.7653
 Red. masses --      2.8054                 1.4879                 1.3504
 Frc consts  --      2.5106                 1.4733                 1.3690
 IR Inten    --     32.6061               121.1861                 4.3370

                     52                     53                     54
                      A                      A                      A
 Frequencies --   1329.8064              1335.9202              1340.2572
 Red. masses --      1.2661                 1.3353                 1.4673
 Frc consts  --      1.3191                 1.4041                 1.5529
 IR Inten    --      0.9256                23.4551                68.5367

                     55                     56                     57
                      A                      A                      A
 Frequencies --   1355.1078              1379.8594              1388.7831
 Red. masses --      1.2679                 1.4321                 1.4798
 Frc consts  --      1.3718                 1.6065                 1.6816
 IR Inten    --      1.3531               108.1503                65.9292

                     58                     59                     60
                      A                      A                      A
 Frequencies --   1400.3699              1436.2794              1449.5160
 Red. masses --      1.5769                 1.3132                 2.0340
 Frc consts  --      1.8219                 1.5960                 2.5179
 IR Inten    --     39.1477                28.6260               181.6133

                     61                     62                     63
                      A                      A                      A
 Frequencies --   1473.2655              1479.5279              1499.9425
 Red. masses --      1.1861                 1.2489                 1.3097
 Frc consts  --      1.5168                 1.6108                 1.7361
 IR Inten    --     18.4781                11.1707                 2.8732

                     64                     65                     66
                      A                      A                      A
 Frequencies --   1508.1954              1518.9326              1522.2159
 Red. masses --      1.1302                 1.0535                 1.1036
 Frc consts  --      1.5147                 1.4320                 1.5066
 IR Inten    --     38.2583                 9.9305                17.1032

                     67                     68                     69
                      A                      A                      A
 Frequencies --   1536.5764              1733.2966              1736.2051
 Red. masses --      1.1301                 4.4848                 4.5079
 Frc consts  --      1.5720                 7.9385                 8.0061
 IR Inten    --     10.5917                 2.6029                 4.7030

                     70                     71                     72
                      A                      A                      A
 Frequencies --   1784.3778              1850.9121              3019.0243
 Red. masses --      7.4986                 9.8876                 1.0732
 Frc consts  --     14.0670                19.9578                 5.7630
 IR Inten    --    311.5056               247.1155                37.2966

                     73                     74                     75
                      A                      A                      A
 Frequencies --   3065.3646              3072.8540              3128.9126
 Red. masses --      1.0345                 1.0619                 1.0907
 Frc consts  --      5.7270                 5.9074                 6.2912
 IR Inten    --     14.2419                30.8940                 1.8581

                     76                     77                     78
                      A                      A                      A
 Frequencies --   3131.0835              3133.3723              3145.5486
 Red. masses --      1.0982                 1.0901                 1.0964
 Frc consts  --      6.3436                 6.3059                 6.3916
 IR Inten    --      4.9386                 5.0942                17.1985

                     79                     80                     81
                      A                      A                      A
 Frequencies --   3147.4963              3153.7105              3154.7353
 Red. masses --      1.1026                 1.0716                 1.0718
 Frc consts  --      6.4356                 6.2796                 6.2848
 IR Inten    --     25.1602                22.9964                16.9370

                     82                     83                     84
                      A                      A                      A
 Frequencies --   3162.6510              3167.6360              3241.1922
 Red. masses --      1.0825                 1.0773                 1.1154
 Frc consts  --      6.3791                 6.3686                 6.9041
 IR Inten    --      3.2509                 8.7066                13.6491

                     85                     86                     87
                      A                      A                      A
 Frequencies --   3244.7682              3530.0504              3677.6953
 Red. masses --      1.1166                 1.0735                 1.0640
 Frc consts  --      6.9267                 7.8818                 8.4792
 IR Inten    --     14.9515                46.8221                50.8011

 - Thermochemistry -
 -------------------
 Temperature   298.150 Kelvin.  Pressure   1.00000 Atm.
 Atom     1 has atomic number  6 and mass  12.00000

 Molecular mass:   212.11609 amu.
 Principal axes and moments of inertia in atomic units:
                           1         2         3
     Eigenvalues --  2590.850704217.484365222.69435
           X            0.99983  -0.01576  -0.00970
           Y            0.01601   0.99951   0.02706
           Z            0.00926  -0.02721   0.99959
 This molecule is an asymmetric top.
 Rotational symmetry number  1.
 Warning -- assumption of classical behavior for rotation
           may cause significant error
 Rotational temperatures (Kelvin)      0.03343     0.02054     0.01658
 Rotational constants (GHZ):           0.69658     0.42792     0.34556
 Zero-point vibrational energy     682397.6 (Joules/Mol)
                                  163.09694 (Kcal/Mol)
 Warning -- explicit consideration of  24 degrees of freedom as
           vibrations may cause significant error
 Vibrational temperatures:     34.95    47.73    51.86    77.13    85.96
          (Kelvin)            107.51   119.78   130.20   204.04   246.66
                              320.46   340.83   365.63   410.19   468.50
                              495.58   526.96   563.70   604.96   635.05
                              671.89   775.20   840.55   885.01   905.72
                              959.04  1010.18  1072.08  1099.04  1187.26
                             1197.52  1242.37  1319.60  1341.92  1367.16
                             1370.35  1372.27  1390.63  1406.24  1473.28
                             1483.68  1558.16  1593.01  1612.72  1647.55
                             1674.49  1712.86  1734.23  1773.23  1865.22
                             1887.34  1913.29  1922.09  1928.33  1949.70
                             1985.31  1998.15  2014.82  2066.49  2085.53
                             2119.70  2128.71  2158.08  2169.96  2185.41
                             2190.13  2210.79  2493.83  2498.01  2567.32
                             2663.05  4343.70  4410.38  4421.15  4501.81
                             4504.93  4508.22  4525.74  4528.55  4537.49
                             4538.96  4550.35  4557.52  4663.35  4668.50
                             5078.96  5291.38

 Zero-point correction=                           0.259912 (Hartree/Particle)
 Thermal correction to Energy=                    0.276726
 Thermal correction to Enthalpy=                  0.277670
 Thermal correction to Gibbs Free Energy=         0.212678
 Sum of electronic and zero-point Energies=           -725.639262
 Sum of electronic and thermal Energies=              -725.622447
 Sum of electronic and thermal Enthalpies=            -725.621503
 Sum of electronic and thermal Free Energies=         -725.686496

                     E (Thermal)             CV                S
                      KCal/Mol        Cal/Mol-Kelvin    Cal/Mol-Kelvin
 Total                  173.648             59.687            136.788
 Electronic               0.000              0.000              0.000
 Translational            0.889              2.981             41.959
 Rotational               0.889              2.981             32.412
 Vibrational            171.871             53.725             62.416
 Vibration     1          0.593              1.985              6.248
 Vibration     2          0.594              1.983              5.630
 Vibration     3          0.594              1.982              5.465
 Vibration     4          0.596              1.976              4.680
 Vibration     5          0.597              1.973              4.466
 Vibration     6          0.599              1.966              4.025
 Vibration     7          0.600              1.961              3.813
 Vibration     8          0.602              1.956              3.649
 Vibration     9          0.615              1.911              2.779
 Vibration    10          0.626              1.878              2.420
 Vibration    11          0.648              1.806              1.937
 Vibration    12          0.656              1.784              1.826
 Vibration    13          0.665              1.756              1.702
 Vibration    14          0.683              1.701              1.503
 Vibration    15          0.710              1.624              1.282
 Vibration    16          0.723              1.587              1.191
 Vibration    17          0.739              1.542              1.095
 Vibration    18          0.759              1.488              0.993
 Vibration    19          0.783              1.426              0.890
 Vibration    20          0.801              1.380              0.822
 Vibration    21          0.824              1.323              0.746
 Vibration    22          0.894              1.164              0.568
 Vibration    23          0.941              1.065              0.478
 Vibration    24          0.975              1.000              0.424

                           ! Non-Optimized Parameters !
 Normal termination of Gaussian 16 at Thu Dec 10 16:16:02 2020.

 ----------------------------------------------------------------------
 # B3LYP/6-311++G(d,p) empiricaldispersion=gd3bj scf=xqc pop=npa geom=c
 heck
 ----------------------------------------------------------------------

 --------------------------------------
 CID_61193627_JID_5421_Energie_neutraal
 --------------------------------------
 Structure from the checkpoint file:  "JID_5421.chk"
 Charge =  0 Multiplicity = 1

 SCF Done:  E(RB3LYP) =  -726.125290754     A.U. after   14 cycles
 Normal termination of Gaussian 16 at Thu Dec 10 16:20:27 2020.

 ----------------------------------------------------------------------
 # B3LYP/6-311++G(d,p) empiricaldispersion=gd3bj scf=xqc pop=npa geom=c
 heck
 ----------------------------------------------------------------------

 ------------------------------------
 CID_61193627_JID_5421_Energie_kation
 ------------------------------------
 Structure from the checkpoint file:  "JID_5421.chk"
 Charge =  1 Multiplicity = 2

 SCF Done:  E(UB3LYP) =  -725.811560647     A.U. after   27 cycles
 Normal termination of Gaussian 16 at Thu Dec 10 16:35:57 2020.
 Gaussian 16:  ES64L-G16RevA.03 25-Dec-2016

 ----------------------------------------------------------------------
 # B3LYP/6-311++G(d,p) empiricaldispersion=gd3bj scf=xqc pop=npa geom=c
 heck
 ----------------------------------------------------------------------

 -----------------------------------
 CID_61193627_JID_5421_Energie_anion
 -----------------------------------
 Structure from the checkpoint file:  "JID_5421.chk"
 Charge = -1 Multiplicity = 2

                         Standard orientation:
 ---------------------------------------------------------------------
 Center     Atomic      Atomic             Coordinates (Angstroms)
 Number     Number       Type             X           Y           Z
 ---------------------------------------------------------------------
      1          6           0        2.283554   -1.944285   -0.455328
      2          6           0        1.627851   -0.601451   -0.093294
      3          6           0        2.677105    0.296547    0.557289
      4          8           0        3.270190    1.187653   -0.006853
      5          8           0        2.913012   -0.058221    1.840190
      6          7           0        1.066511    0.073152   -1.263452
      7          6           0       -0.148321    0.774587   -1.154694
      8          8           0       -0.249269    1.940432   -1.513928
      9          7           0       -1.213136    0.055292   -0.639626
     10          6           0       -1.367124   -1.390212   -0.802162
     11          6           0       -1.643563   -2.092944    0.499832
     12          6           0       -2.749179   -2.793517    0.749530
     13          6           0       -2.423079    0.828511   -0.324024
     14          6           0       -2.342123    1.426625    1.054895
     15          6           0       -2.180858    2.728606    1.284792
     16          1           0        3.077598   -1.789020   -1.192823
     17          1           0        1.541375   -2.618689   -0.890736
     18          1           0        2.714601   -2.418731    0.431384
     19          1           0        0.835713   -0.764356    0.639405
     20          1           0        3.620754    0.530924    2.164356
     21          1           0        1.751462    0.709600   -1.665510
     22          1           0       -2.191547   -1.589885   -1.502606
     23          1           0       -0.456830   -1.770552   -1.270255
     24          1           0       -0.883143   -1.989817    1.273770
     25          1           0       -2.913758   -3.288544    1.702244
     26          1           0       -3.532043   -2.903446    0.001669
     27          1           0       -2.545959    1.612219   -1.075086
     28          1           0       -3.272760    0.141098   -0.391242
     29          1           0       -2.384059    0.718832    1.882753
     30          1           0       -2.105342    3.128612    2.292551
     31          1           0       -2.106726    3.438935    0.465386
 ---------------------------------------------------------------------

 SCF Done:  E(UB3LYP) =  -726.114511508     A.U. after   33 cycles
 SCF Done:  E(UB3LYP) =  -726.114511508     a.u. after    1 cycles

 The electronic state is 2-A.
 Alpha  occ. eigenvalues --  -19.07896 -19.03062 -18.99669 -14.25171 -14.23619
 Alpha  occ. eigenvalues --  -10.21826 -10.20498 -10.14037 -10.12736 -10.11766
 Alpha  occ. eigenvalues --  -10.09188 -10.08838 -10.08257 -10.08168 -10.07972
 Alpha  occ. eigenvalues --   -1.02231  -0.96247  -0.93582  -0.85540  -0.82941
 Alpha  occ. eigenvalues --   -0.71179  -0.69773  -0.68291  -0.61705  -0.59919
 Alpha  occ. eigenvalues --   -0.58334  -0.51747  -0.50213  -0.47919  -0.46650
 Alpha  occ. eigenvalues --   -0.44322  -0.42565  -0.40593  -0.40383  -0.38700
 Alpha  occ. eigenvalues --   -0.37579  -0.37016  -0.36680  -0.34884  -0.34225
 Alpha  occ. eigenvalues --   -0.34094  -0.32959  -0.32075  -0.30851  -0.29714
 Alpha  occ. eigenvalues --   -0.29350  -0.28627  -0.28210  -0.27224  -0.26608
 Alpha  occ. eigenvalues --   -0.23882  -0.20729  -0.19909  -0.18675  -0.18150
 Alpha  occ. eigenvalues --   -0.16285  -0.15700   0.04182
 Alpha virt. eigenvalues --    0.05835   0.07012   0.07188   0.07521   0.07853
 Alpha virt. eigenvalues --    0.08354   0.08479   0.09721   0.09821   0.10119
 Alpha virt. eigenvalues --    0.10435   0.11264   0.11357   0.11753   0.12776

  Beta  occ. eigenvalues --  -19.07825 -19.03039 -18.99667 -14.25163 -14.23613
  Beta  occ. eigenvalues --  -10.21819 -10.20497 -10.14025 -10.12725 -10.11759
  Beta  occ. eigenvalues --  -10.09172 -10.08832 -10.08219 -10.08122 -10.07967
  Beta  occ. eigenvalues --   -1.02148  -0.96242  -0.93503  -0.85527  -0.82925
  Beta  occ. eigenvalues --   -0.71152  -0.69743  -0.68254  -0.61672  -0.59889
  Beta  occ. eigenvalues --   -0.58234  -0.51651  -0.50175  -0.47842  -0.46627
  Beta  occ. eigenvalues --   -0.44298  -0.42513  -0.40556  -0.40346  -0.38667
  Beta  occ. eigenvalues --   -0.37529  -0.36979  -0.36640  -0.34850  -0.34207
  Beta  occ. eigenvalues --   -0.34067  -0.32911  -0.32042  -0.30812  -0.29677
  Beta  occ. eigenvalues --   -0.29312  -0.28610  -0.28179  -0.27188  -0.26581
  Beta  occ. eigenvalues --   -0.23803  -0.20695  -0.19854  -0.18630  -0.18119
  Beta  occ. eigenvalues --   -0.16267  -0.15680
  Beta virt. eigenvalues --    0.06481   0.07181   0.07269   0.07572   0.08021
  Beta virt. eigenvalues --    0.08111   0.08605   0.08852   0.09961   0.10062
  Beta virt. eigenvalues --    0.10332   0.10646   0.11429   0.11837   0.12066

 Mulliken charges and spin densities:
               1          2
     1  C    0.241604  -0.780126
     2  C    0.000825  -0.227590
     3  C    0.073515   0.019617
     4  O   -0.279574   0.011479
     5  O   -0.172100   0.072532
     6  N   -0.079431   0.025983
     7  C    0.189683  -0.121587
     8  O   -0.332850   0.005535
     9  N    0.089251   0.094947
    10  C    0.994037  -1.955175
    11  C   -2.114920   2.721888
    12  C    1.737525  -2.373258
    13  C   -0.188128  -0.176556
    14  C   -0.034105   0.255400
    15  C   -0.085874  -0.447148
    16  H    0.028027   0.133291
    17  H   -0.405409   0.534738
    18  H   -0.243457   0.412432
    19  H    0.559551  -0.378551
    20  H   -0.576368   0.877694
    21  H    0.324431  -0.013089
    22  H   -0.058689   0.249784
    23  H    0.417003  -0.254653
    24  H   -0.475734   0.669236
    25  H   -0.434476   0.580432
    26  H   -0.350872   0.477241
    27  H    0.131972   0.069540
    28  H    0.018733   0.125719
    29  H   -0.104800   0.268374
    30  H   -0.001601   0.123175
    31  H    0.132232  -0.001304
 Sum of Mulliken charges =  -1.00000   1.00000

 Dipole moment (field-independent basis, Debye):
    X=             -2.8576    Y=              1.9380    Z=             -4.8377  Tot=              5.9435
 Quadrupole moment (field-independent basis, Debye-Ang):
   XX=           -162.0463   YY=           -142.1299   ZZ=           -132.6826
   XY=            -12.0718   XZ=             -7.5521   YZ=              8.9990

 Summary of Natural Population Analysis:

                                       Natural Population
                Natural  -----------------------------------------------
    Atom  No    Charge         Core      Valence    Rydberg      Total
 -----------------------------------------------------------------------
      C    1   -0.28215      0.99964     2.27655    0.00597     3.28215
      C    2   -0.06259      0.99955     2.05009    0.01295     3.06259
      C    3    0.40798      0.99969     1.56625    0.02608     2.59202
      O    4   -0.30609      0.99987     3.29984    0.00638     4.30609
      O    5   -0.33870      0.99988     3.33173    0.00710     4.33870
      N    6   -0.34279      0.99968     2.83371    0.00939     3.84279
      C    7    0.41741      0.99966     1.56003    0.02289     2.58259
      O    8   -0.32847      0.99987     3.32372    0.00488     4.32847
      N    9   -0.26773      0.99963     2.75783    0.01026     3.76773
      C   10   -0.10284      0.99957     2.09150    0.01177     3.10284
      C   11   -0.09663      0.99955     2.08609    0.01099     3.09663
      C   12   -0.17703      0.99955     2.16970    0.00778     3.17703
      C   13   -0.10489      0.99959     2.09286    0.01244     3.10489
      C   14   -0.09070      0.99956     2.08118    0.00996     3.09070
      C   15   -0.18277      0.99956     2.17674    0.00648     3.18277
      H   16    0.10114      0.00000     0.39775    0.00111     0.39886
      H   17    0.10279      0.00000     0.39604    0.00117     0.39721
      H   18    0.10984      0.00000     0.38878    0.00138     0.39016
      H   19    0.11086      0.00000     0.38455    0.00459     0.38914
      H   20    0.24719      0.00000     0.22466    0.02815     0.25281
      H   21    0.20123      0.00000     0.29640    0.00237     0.29877
      H   22    0.09346      0.00000     0.40535    0.00119     0.40654
      H   23    0.11154      0.00000     0.38649    0.00197     0.38846
      H   24    0.09599      0.00000     0.40197    0.00204     0.40401
      H   25    0.09940      0.00000     0.39892    0.00168     0.40060
      H   26    0.09032      0.00000     0.40808    0.00161     0.40968
      H   27    0.10823      0.00000     0.39059    0.00119     0.39177
      H   28    0.10153      0.00000     0.39711    0.00136     0.39847
      H   29    0.09680      0.00000     0.40185    0.00135     0.40320
      H   30    0.09313      0.00000     0.40597    0.00090     0.40687
      H   31    0.09456      0.00000     0.40438    0.00106     0.40544
 =======================================================================
   * Total *    0.00000     14.99486    41.78669    0.21845    57.00000

 Normal termination of Gaussian 16 at Thu Dec 10 16:54:05 2020.
