 Gaussian 16, Revision A.03,

 -----------------------------------------------------------
 # opt freq B3LYP/6-31G(d) empiricaldispersion=gd3bj scf=xqc
 -----------------------------------------------------------

 -------------------------------
 CID_113300137_JID_8492_neutraal
 -------------------------------
 Symbolic Z-matrix:
 Charge =  0 Multiplicity = 1

 SCF Done:  E(RB3LYP) =  -1143.35334818     A.U. after   14 cycles
 SCF Done:  E(RB3LYP) =  -1143.36248007     A.U. after   13 cycles
 SCF Done:  E(RB3LYP) =  -1143.36377369     A.U. after   12 cycles
 SCF Done:  E(RB3LYP) =  -1143.36412359     A.U. after   12 cycles
 SCF Done:  E(RB3LYP) =  -1143.36430625     A.U. after   11 cycles
 SCF Done:  E(RB3LYP) =  -1143.36435812     A.U. after   11 cycles
 SCF Done:  E(RB3LYP) =  -1143.36437967     A.U. after   10 cycles
 SCF Done:  E(RB3LYP) =  -1143.36438600     A.U. after   10 cycles
 SCF Done:  E(RB3LYP) =  -1143.36438817     A.U. after    9 cycles
 SCF Done:  E(RB3LYP) =  -1143.36438875     A.U. after    8 cycles
 SCF Done:  E(RB3LYP) =  -1143.36438901     A.U. after    7 cycles
 SCF Done:  E(RB3LYP) =  -1143.36438911     A.U. after    7 cycles
 Optimization completed.
    -- Stationary point found.
 Normal termination of Gaussian 16 at Fri Dec 11 20:49:39 2020.

 --------------------------------------------------------------------
 #N Geom=AllCheck Guess=TCheck SCRF=Check GenChk RB3LYP/6-31G(d) Freq
 --------------------------------------------------------------------

 Structure from the checkpoint file:  "JID_8492.chk"
 -------------------------------
 CID_113300137_JID_8492_neutraal
 -------------------------------
 Charge =  0 Multiplicity = 1

 SCF Done:  E(RB3LYP) =  -1143.36438911     A.U. after    1 cycles

  Exact polarizability: 217.248  13.220 151.200  11.659   1.443 147.865
 Approx polarizability: 287.368  20.757 253.084  22.096   1.887 255.138

                      1                      2                      3
                      A                      A                      A
 Frequencies --     25.3063                36.7972                44.8807
 Red. masses --      4.4625                 4.1888                 4.9968
 Frc consts  --      0.0017                 0.0033                 0.0059
 IR Inten    --      0.5074                 0.2624                 0.7898

                      4                      5                      6
                      A                      A                      A
 Frequencies --     80.3066                89.7413               103.5398
 Red. masses --      2.9860                 3.8315                 4.7397
 Frc consts  --      0.0113                 0.0182                 0.0299
 IR Inten    --      1.7851                 1.1453                 1.3492

                      7                      8                      9
                      A                      A                      A
 Frequencies --    146.7024               167.5525               195.2853
 Red. masses --      4.3917                 3.5417                 3.5555
 Frc consts  --      0.0557                 0.0586                 0.0799
 IR Inten    --      0.6737                 0.2581                 1.6708

                     10                     11                     12
                      A                      A                      A
 Frequencies --    200.2319               228.1805               240.6832
 Red. masses --      4.5132                 1.1691                 1.4034
 Frc consts  --      0.1066                 0.0359                 0.0479
 IR Inten    --      2.8220                 0.3666                 0.3671

                     13                     14                     15
                      A                      A                      A
 Frequencies --    244.6331               266.5604               303.7337
 Red. masses --      1.3538                 1.6235                 6.4292
 Frc consts  --      0.0477                 0.0680                 0.3495
 IR Inten    --      0.4785                 0.9613                 0.5789

                     16                     17                     18
                      A                      A                      A
 Frequencies --    317.7714               351.4115               355.3013
 Red. masses --      2.7780                 3.7403                 3.4479
 Frc consts  --      0.1653                 0.2721                 0.2564
 IR Inten    --      0.8636                 2.6632                 2.7337

                     19                     20                     21
                      A                      A                      A
 Frequencies --    401.6995               426.5983               431.5313
 Red. masses --      2.9373                 3.2006                 3.2626
 Frc consts  --      0.2793                 0.3432                 0.3580
 IR Inten    --      1.9400                 0.3882                 4.2496

                     22                     23                     24
                      A                      A                      A
 Frequencies --    454.7835               485.2171               518.9898
 Red. masses --      4.4277                 4.5305                 1.6167
 Frc consts  --      0.5396                 0.6284                 0.2566
 IR Inten    --      3.9690                 6.5876                46.5940

                     25                     26                     27
                      A                      A                      A
 Frequencies --    525.5324               560.7777               575.9065
 Red. masses --      2.5067                 4.1331                 3.6419
 Frc consts  --      0.4079                 0.7658                 0.7117
 IR Inten    --     14.2794                27.6747                31.6862

                     28                     29                     30
                      A                      A                      A
 Frequencies --    640.6358               655.2708               683.1815
 Red. masses --      3.5027                 5.5543                 4.0144
 Frc consts  --      0.8470                 1.4051                 1.1039
 IR Inten    --      5.3790                 2.0206                 8.0926

                     31                     32                     33
                      A                      A                      A
 Frequencies --    703.4803               715.9433               773.7921
 Red. masses --      6.7165                 3.8681                 4.2928
 Frc consts  --      1.9584                 1.1682                 1.5144
 IR Inten    --      0.7645                 2.0975                10.8093

                     34                     35                     36
                      A                      A                      A
 Frequencies --    803.0945               827.9756               850.1058
 Red. masses --      3.4690                 1.4147                 2.4346
 Frc consts  --      1.3182                 0.5714                 1.0366
 IR Inten    --     26.4358                 4.6388                14.1873

                     37                     38                     39
                      A                      A                      A
 Frequencies --    861.4743               901.7537               935.9458
 Red. masses --      2.6233                 2.4876                 1.4030
 Frc consts  --      1.1470                 1.1918                 0.7241
 IR Inten    --     13.6616                 2.3751                 0.2626

                     40                     41                     42
                      A                      A                      A
 Frequencies --    952.9601               957.2263               970.4589
 Red. masses --      1.1624                 1.6800                 1.5017
 Frc consts  --      0.6219                 0.9070                 0.8333
 IR Inten    --      5.7867                 1.2349                 0.2712

                     43                     44                     45
                      A                      A                      A
 Frequencies --    974.7660              1009.3748              1035.4321
 Red. masses --      1.3665                 4.3981                 2.7850
 Frc consts  --      0.7650                 2.6401                 1.7592
 IR Inten    --      0.5425                 5.1342                 1.0114

                     46                     47                     48
                      A                      A                      A
 Frequencies --   1081.6272              1107.5452              1145.4435
 Red. masses --      6.3007                 2.7928                 1.5528
 Frc consts  --      4.3430                 2.0185                 1.2003
 IR Inten    --     60.7704                48.2463                10.1392

                     49                     50                     51
                      A                      A                      A
 Frequencies --   1151.1738              1172.4914              1185.6638
 Red. masses --      2.0312                 2.2218                 2.9123
 Frc consts  --      1.5860                 1.7996                 2.4122
 IR Inten    --      1.5946                 6.2586                38.1832

                     52                     53                     54
                      A                      A                      A
 Frequencies --   1186.5008              1212.8367              1213.2004
 Red. masses --      1.2713                 1.3518                 1.1823
 Frc consts  --      1.0545                 1.1715                 1.0253
 IR Inten    --      0.7030                 2.1337                29.6676

                     55                     56                     57
                      A                      A                      A
 Frequencies --   1220.1057              1228.7533              1236.7227
 Red. masses --      1.3752                 2.6654                 2.5285
 Frc consts  --      1.2062                 2.3711                 2.2785
 IR Inten    --      9.9854                 1.6649                 7.5077

                     58                     59                     60
                      A                      A                      A
 Frequencies --   1267.8660              1303.4948              1320.7111
 Red. masses --      2.1390                 4.2240                 4.0300
 Frc consts  --      2.0258                 4.2285                 4.1417
 IR Inten    --    102.4295               290.8141                70.6083

                     61                     62                     63
                      A                      A                      A
 Frequencies --   1336.4526              1354.4440              1367.9873
 Red. masses --      1.7321                 1.9200                 1.3561
 Frc consts  --      1.8228                 2.0753                 1.4952
 IR Inten    --     33.7351                35.6153                 1.3112

                     64                     65                     66
                      A                      A                      A
 Frequencies --   1383.7702              1427.8588              1432.8138
 Red. masses --      2.8084                 1.2700                 2.0453
 Frc consts  --      3.1683                 1.5256                 2.4740
 IR Inten    --     21.9155                12.4372                54.2550

                     67                     68                     69
                      A                      A                      A
 Frequencies --   1441.1596              1456.0366              1475.5872
 Red. masses --      1.8934                 1.3946                 2.8563
 Frc consts  --      2.3169                 1.7420                 3.6642
 IR Inten    --      3.7769                19.6126                 4.0998

                     70                     71                     72
                      A                      A                      A
 Frequencies --   1500.0850              1502.5989              1508.9381
 Red. masses --      1.1987                 1.1043                 1.5568
 Frc consts  --      1.5893                 1.4691                 2.0885
 IR Inten    --     21.9128                 3.0904               197.5127

                     73                     74                     75
                      A                      A                      A
 Frequencies --   1510.6758              1521.5290              1528.5451
 Red. masses --      1.1584                 1.0477                 1.1306
 Frc consts  --      1.5576                 1.4291                 1.5563
 IR Inten    --     58.1159                 6.8922                14.6839

                     76                     77                     78
                      A                      A                      A
 Frequencies --   1530.0381              1535.0700              1550.6018
 Red. masses --      1.0787                 1.0642                 1.0975
 Frc consts  --      1.4878                 1.4775                 1.5547
 IR Inten    --      3.0797                43.3324                14.1701

                     79                     80                     81
                      A                      A                      A
 Frequencies --   1569.4063              1629.2079              1639.1974
 Red. masses --      2.4357                 7.7050                 6.3678
 Frc consts  --      3.5346                12.0496                10.0810
 IR Inten    --    116.8003                36.7370                15.5188

                     82                     83                     84
                      A                      A                      A
 Frequencies --   1679.5937              3027.3540              3057.8784
 Red. masses --      5.7799                 1.0349                 1.0612
 Frc consts  --      9.6068                 5.5881                 5.8466
 IR Inten    --     59.7906                54.5157                14.2816

                     85                     86                     87
                      A                      A                      A
 Frequencies --   3060.6571              3066.6991              3086.7263
 Red. masses --      1.0374                 1.0368                 1.1067
 Frc consts  --      5.7258                 5.7448                 6.2128
 IR Inten    --     24.3691                15.4327                41.2751

                     88                     89                     90
                      A                      A                      A
 Frequencies --   3100.1661              3121.9537              3125.2342
 Red. masses --      1.1017                 1.0854                 1.1023
 Frc consts  --      6.2388                 6.2329                 6.3432
 IR Inten    --      4.9780                10.0435                20.9597

                     91                     92                     93
                      A                      A                      A
 Frequencies --   3134.8608              3162.0886              3163.5658
 Red. masses --      1.1020                 1.1025                 1.0997
 Frc consts  --      6.3805                 6.4951                 6.4847
 IR Inten    --     21.2751                 3.3020                25.9163

                     94                     95                     96
                      A                      A                      A
 Frequencies --   3169.5432              3176.5338              3192.2155
 Red. masses --      1.0998                 1.0895                 1.0890
 Frc consts  --      6.5094                 6.4770                 6.5382
 IR Inten    --      8.2048                13.7371                 5.4109

                     97                     98                     99
                      A                      A                      A
 Frequencies --   3219.9121              3231.1720              3676.3543
 Red. masses --      1.0934                 1.0911                 1.0821
 Frc consts  --      6.6789                 6.7115                 8.6171
 IR Inten    --      4.7707                10.7445               101.4494

 - Thermochemistry -
 -------------------
 Temperature   298.150 Kelvin.  Pressure   1.00000 Atm.
 Atom     1 has atomic number  6 and mass  12.00000

 Molecular mass:   263.10923 amu.
 Principal axes and moments of inertia in atomic units:
                           1         2         3
     Eigenvalues --  2434.843098898.687329481.22481
           X            0.99997   0.00562  -0.00493
           Y           -0.00533   0.99836   0.05703
           Z            0.00524  -0.05700   0.99836
 This molecule is an asymmetric top.
 Rotational symmetry number  1.
 Warning -- assumption of classical behavior for rotation
           may cause significant error
 Rotational temperatures (Kelvin)      0.03557     0.00973     0.00914
 Rotational constants (GHZ):           0.74121     0.20281     0.19035
 Zero-point vibrational energy     763942.3 (Joules/Mol)
                                  182.58659 (Kcal/Mol)
 Warning -- explicit consideration of  27 degrees of freedom as
           vibrations may cause significant error
 Vibrational temperatures:     36.41    52.94    64.57   115.54   129.12
          (Kelvin)            148.97   211.07   241.07   280.97   288.09
                              328.30   346.29   351.97   383.52   437.01
                              457.20   505.60   511.20   577.96   613.78
                              620.88   654.33   698.12   746.71   756.12
                              806.83   828.60   921.73   942.79   982.95
                             1012.15  1030.08  1113.31  1155.47  1191.27
                             1223.11  1239.47  1297.42  1346.62  1371.10
                             1377.24  1396.27  1402.47  1452.27  1489.76
                             1556.22  1593.51  1648.04  1656.28  1686.95
                             1705.91  1707.11  1745.00  1745.52  1755.46
                             1767.90  1779.37  1824.18  1875.44  1900.21
                             1922.86  1948.74  1968.23  1990.94  2054.37
                             2061.50  2073.51  2094.91  2123.04  2158.29
                             2161.90  2171.03  2173.53  2189.14  2199.24
                             2201.38  2208.62  2230.97  2258.03  2344.07
                             2358.44  2416.56  4355.69  4399.60  4403.60
                             4412.30  4441.11  4460.45  4491.80  4496.51
                             4510.37  4549.54  4551.67  4560.27  4570.32
                             4592.89  4632.74  4648.94  5289.45

 Zero-point correction=                           0.290970 (Hartree/Particle)
 Thermal correction to Energy=                    0.308373
 Thermal correction to Enthalpy=                  0.309317
 Thermal correction to Gibbs Free Energy=         0.244598
 Sum of electronic and zero-point Energies=          -1143.073419
 Sum of electronic and thermal Energies=             -1143.056016
 Sum of electronic and thermal Enthalpies=           -1143.055072
 Sum of electronic and thermal Free Energies=        -1143.119791

                     E (Thermal)             CV                S
                      KCal/Mol        Cal/Mol-Kelvin    Cal/Mol-Kelvin
 Total                  193.507             65.903            136.212
 Electronic               0.000              0.000              0.000
 Translational            0.889              2.981             42.602
 Rotational               0.889              2.981             33.685
 Vibrational            191.729             59.941             59.926
 Vibration     1          0.593              1.985              6.167
 Vibration     2          0.594              1.982              5.424
 Vibration     3          0.595              1.979              5.031
 Vibration     4          0.600              1.963              3.883
 Vibration     5          0.602              1.956              3.666
 Vibration     6          0.605              1.946              3.387
 Vibration     7          0.617              1.906              2.715
 Vibration     8          0.624              1.882              2.463
 Vibration     9          0.636              1.846              2.177
 Vibration    10          0.638              1.840              2.131
 Vibration    11          0.651              1.798              1.893
 Vibration    12          0.658              1.778              1.798
 Vibration    13          0.660              1.772              1.769
 Vibration    14          0.672              1.734              1.618
 Vibration    15          0.695              1.667              1.396
 Vibration    16          0.704              1.640              1.322
 Vibration    17          0.728              1.572              1.160
 Vibration    18          0.731              1.564              1.143
 Vibration    19          0.767              1.466              0.956
 Vibration    20          0.788              1.412              0.870
 Vibration    21          0.793              1.402              0.854
 Vibration    22          0.813              1.350              0.781
 Vibration    23          0.841              1.283              0.696
 Vibration    24          0.874              1.208              0.612
 Vibration    25          0.880              1.193              0.597
 Vibration    26          0.916              1.116              0.522
 Vibration    27          0.932              1.083              0.493

                           ! Non-Optimized Parameters !
 Normal termination of Gaussian 16 at Fri Dec 11 21:05:18 2020.

 ----------------------------------------------------------------------
 # B3LYP/6-311++G(d,p) empiricaldispersion=gd3bj scf=xqc pop=npa geom=c
 heck
 ----------------------------------------------------------------------

 ---------------------------------------
 CID_113300137_JID_8492_Energie_neutraal
 ---------------------------------------
 Structure from the checkpoint file:  "JID_8492.chk"
 Charge =  0 Multiplicity = 1

 SCF Done:  E(RB3LYP) =  -1143.58941807     A.U. after   15 cycles
 Normal termination of Gaussian 16 at Fri Dec 11 21:11:07 2020.

 ----------------------------------------------------------------------
 # B3LYP/6-311++G(d,p) empiricaldispersion=gd3bj scf=xqc pop=npa geom=c
 heck
 ----------------------------------------------------------------------

 -------------------------------------
 CID_113300137_JID_8492_Energie_kation
 -------------------------------------
 Structure from the checkpoint file:  "JID_8492.chk"
 Charge =  1 Multiplicity = 2

 SCF Done:  E(UB3LYP) =  -1143.31635239     A.U. after   30 cycles
 Normal termination of Gaussian 16 at Fri Dec 11 21:26:46 2020.
 Gaussian 16:  ES64L-G16RevA.03 25-Dec-2016

 ----------------------------------------------------------------------
 # B3LYP/6-311++G(d,p) empiricaldispersion=gd3bj scf=xqc pop=npa geom=c
 heck
 ----------------------------------------------------------------------

 ------------------------------------
 CID_113300137_JID_8492_Energie_anion
 ------------------------------------
 Structure from the checkpoint file:  "JID_8492.chk"
 Charge = -1 Multiplicity = 2

                         Standard orientation:
 ---------------------------------------------------------------------
 Center     Atomic      Atomic             Coordinates (Angstroms)
 Number     Number       Type             X           Y           Z
 ---------------------------------------------------------------------
      1          6           0       -0.637851    2.009816   -0.304672
      2          6           0       -1.250452    1.195519    0.836425
      3          6           0       -2.242339    1.981361    1.696027
      4          7           0       -1.855462   -0.052912    0.321916
      5          6           0       -1.380612   -1.330846    0.566744
      6          7           0       -2.100070   -2.234666   -0.042709
      7          7           0       -3.059482   -1.502050   -0.688259
      8          6           0       -2.958191   -0.156714   -0.514297
      9         16           0       -3.953347    1.011125   -1.187847
     10          6           0       -0.154566   -1.656690    1.359193
     11          6           0        1.114739   -1.115031    0.723134
     12          6           0        1.371036   -1.324253   -0.640554
     13          6           0        2.514801   -0.816374   -1.238237
     14          6           0        3.438695   -0.079924   -0.480759
     15          6           0        3.199593    0.134554    0.879957
     16          6           0        2.040651   -0.384004    1.464507
     17          8           0        4.526014    0.381168   -1.159605
     18          6           0        5.485152    1.140396   -0.441560
     19          1           0       -1.410065    2.339300   -1.003234
     20          1           0        0.103854    1.412192   -0.843131
     21          1           0       -0.136260    2.890677    0.109682
     22          1           0       -0.436100    0.856514    1.478745
     23          1           0       -3.078523    2.346051    1.097088
     24          1           0       -2.636875    1.354854    2.503076
     25          1           0       -1.726203    2.836972    2.144353
     26          1           0       -3.765145   -1.953157   -1.250672
     27          1           0       -0.249596   -1.274860    2.382678
     28          1           0       -0.124152   -2.749480    1.429699
     29          1           0        0.657612   -1.885847   -1.237844
     30          1           0        2.717348   -0.972232   -2.292731
     31          1           0        3.894809    0.700346    1.488310
     32          1           0        1.861071   -0.206164    2.522471
     33          1           0        5.043211    2.055259   -0.025574
     34          1           0        5.934058    0.554963    0.371507
     35          1           0        6.257554    1.407794   -1.164123
 ---------------------------------------------------------------------

 SCF Done:  E(UB3LYP) =  -1143.58283004     A.U. after   33 cycles
 SCF Done:  E(UB3LYP) =  -1143.58283004     a.u. after    1 cycles

 The electronic state is 2-A.
 Alpha  occ. eigenvalues --  -88.71029 -19.06777 -14.31662 -14.30402 -14.27374
 Alpha  occ. eigenvalues --  -10.20682 -10.17721 -10.15044 -10.14266 -10.13038
 Alpha  occ. eigenvalues --  -10.11475 -10.09951 -10.09432 -10.09083 -10.08974
 Alpha  occ. eigenvalues --  -10.08667 -10.07703 -10.07504  -7.79790  -5.76255
 Alpha  occ. eigenvalues --   -5.75558  -5.75324  -1.01585  -0.98434  -0.87280
 Alpha  occ. eigenvalues --   -0.79687  -0.77462  -0.71563  -0.70424  -0.66926
 Alpha  occ. eigenvalues --   -0.64837  -0.64217  -0.60936  -0.60169  -0.57693
 Alpha  occ. eigenvalues --   -0.53971  -0.53341  -0.50244  -0.49745  -0.47291
 Alpha  occ. eigenvalues --   -0.45073  -0.41953  -0.40541  -0.39939  -0.38700
 Alpha  occ. eigenvalues --   -0.38179  -0.36974  -0.36667  -0.36209  -0.34546
 Alpha  occ. eigenvalues --   -0.34141  -0.33836  -0.31777  -0.31384  -0.30785
 Alpha  occ. eigenvalues --   -0.29745  -0.29288  -0.28982  -0.27747  -0.27543
 Alpha  occ. eigenvalues --   -0.26688  -0.25005  -0.24475  -0.23714  -0.23475
 Alpha  occ. eigenvalues --   -0.22486  -0.17462  -0.14030  -0.13510  -0.12920
 Alpha  occ. eigenvalues --    0.03748
 Alpha virt. eigenvalues --    0.05828   0.06213   0.06426   0.06809   0.07177
 Alpha virt. eigenvalues --    0.07876   0.08029   0.08140   0.08797   0.09321
 Alpha virt. eigenvalues --    0.09669   0.10073   0.10115   0.10695   0.11441

  Beta  occ. eigenvalues --  -88.71029 -19.06766 -14.31661 -14.30396 -14.27364
  Beta  occ. eigenvalues --  -10.20680 -10.17711 -10.15045 -10.14259 -10.12985
  Beta  occ. eigenvalues --  -10.11454 -10.09953 -10.09423 -10.09054 -10.08973
  Beta  occ. eigenvalues --  -10.08646 -10.07679 -10.07494  -7.79789  -5.76254
  Beta  occ. eigenvalues --   -5.75558  -5.75324  -1.01576  -0.98409  -0.87267
  Beta  occ. eigenvalues --   -0.79668  -0.77444  -0.71543  -0.70400  -0.66890
  Beta  occ. eigenvalues --   -0.64803  -0.64202  -0.60903  -0.60113  -0.57676
  Beta  occ. eigenvalues --   -0.53945  -0.53299  -0.50214  -0.49717  -0.47272
  Beta  occ. eigenvalues --   -0.45020  -0.41919  -0.40510  -0.39923  -0.38664
  Beta  occ. eigenvalues --   -0.38146  -0.36947  -0.36637  -0.36173  -0.34495
  Beta  occ. eigenvalues --   -0.34097  -0.33813  -0.31739  -0.31362  -0.30765
  Beta  occ. eigenvalues --   -0.29729  -0.29258  -0.28951  -0.27725  -0.27507
  Beta  occ. eigenvalues --   -0.26666  -0.24985  -0.24431  -0.23691  -0.23447
  Beta  occ. eigenvalues --   -0.22454  -0.17446  -0.14021  -0.13505  -0.12907
  Beta virt. eigenvalues --    0.06024   0.06248   0.06615   0.06740   0.07076
  Beta virt. eigenvalues --    0.07322   0.07982   0.08393   0.08898   0.08907
  Beta virt. eigenvalues --    0.09708   0.09966   0.10326   0.10664   0.10940

 Mulliken charges and spin densities:
               1          2
     1  C   -0.146767  -0.511188
     2  C   -0.993926   0.915407
     3  C    0.474194  -0.843968
     4  N    0.252240   0.016091
     5  C    0.199937  -0.080820
     6  N   -0.007113   0.023695
     7  N   -0.048883  -0.018703
     8  C    0.314378   0.056373
     9  S   -0.903481  -0.011601
    10  C    1.514321  -2.360717
    11  C    0.941917   0.091400
    12  C   -1.231503   0.730317
    13  C   -1.017482   0.744059
    14  C   -0.411928  -0.393594
    15  C    0.466704  -0.461120
    16  C    0.666617  -0.732398
    17  O   -0.190754   0.050850
    18  C    0.957899  -1.287971
    19  H    0.168462  -0.009058
    20  H    0.314776  -0.117263
    21  H   -0.079884   0.224356
    22  H    0.369358  -0.206557
    23  H    0.136164   0.009811
    24  H   -0.109825   0.270952
    25  H   -0.125530   0.285024
    26  H    0.332947   0.030698
    27  H   -0.178381   0.398879
    28  H    0.120262   0.106549
    29  H    0.083661   0.096510
    30  H    0.063175   0.123631
    31  H   -0.595256   0.825950
    32  H   -1.348242   1.547373
    33  H   -0.292199   0.458947
    34  H   -0.272194   0.433294
    35  H   -0.423663   0.594791
 Sum of Mulliken charges =  -1.00000   1.00000

 Dipole moment (field-independent basis, Debye):
    X=             -6.7905    Y=             -4.3506    Z=             -5.0977  Tot=              9.5407
 Quadrupole moment (field-independent basis, Debye-Ang):
   XX=           -224.6859   YY=           -152.5906   ZZ=           -166.6336
   XY=             -4.9774   XZ=            -12.4742   YZ=              0.3570

 Summary of Natural Population Analysis:

                                       Natural Population
                Natural  -----------------------------------------------
    Atom  No    Charge         Core      Valence    Rydberg      Total
 -----------------------------------------------------------------------
      C    1   -0.29210      0.99963     2.28695    0.00552     3.29210
      C    2   -0.00781      0.99959     1.99612    0.01210     3.00781
      C    3   -0.29159      0.99964     2.28612    0.00583     3.29159
      N    4   -0.22753      0.99956     2.71446    0.01351     3.72753
      C    5    0.21645      0.99960     1.76651    0.01744     2.78355
      N    6   -0.15644      0.99967     2.64643    0.01034     3.65644
      N    7   -0.19623      0.99963     2.68380    0.01280     3.69623
      C    8    0.12326      0.99962     1.85688    0.02024     2.87674
      S    9   -0.14630      4.99960     3.13318    0.01352     8.14630
      C   10   -0.22209      0.99956     2.21208    0.01044     3.22209
      C   11   -0.03941      0.99949     2.02865    0.01127     3.03941
      C   12   -0.09626      0.99951     2.08883    0.00793     3.09626
      C   13   -0.11663      0.99952     2.10791    0.00920     3.11663
      C   14    0.16169      0.99938     1.82457    0.01435     2.83831
      C   15   -0.13649      0.99951     2.12688    0.01010     3.13649
      C   16   -0.08727      0.99951     2.07567    0.01209     3.08727
      O   17   -0.27200      0.99986     3.26248    0.00966     4.27200
      C   18   -0.10133      0.99960     2.09274    0.00899     3.10133
      H   19    0.10967      0.00000     0.38943    0.00090     0.39033
      H   20    0.10648      0.00000     0.39246    0.00105     0.39352
      H   21    0.10460      0.00000     0.39468    0.00071     0.39540
      H   22    0.10700      0.00000     0.38965    0.00335     0.39300
      H   23    0.11178      0.00000     0.38724    0.00098     0.38822
      H   24    0.10196      0.00000     0.39709    0.00094     0.39804
      H   25    0.10478      0.00000     0.39441    0.00080     0.39522
      H   26    0.20429      0.00000     0.29382    0.00190     0.29571
      H   27    0.11828      0.00000     0.37956    0.00216     0.38172
      H   28    0.11999      0.00000     0.37874    0.00127     0.38001
      H   29    0.10297      0.00000     0.39579    0.00124     0.39703
      H   30    0.10581      0.00000     0.39319    0.00100     0.39419
      H   31    0.11326      0.00000     0.38369    0.00305     0.38674
      H   32    0.10740      0.00000     0.38831    0.00430     0.39260
      H   33    0.08862      0.00000     0.40934    0.00205     0.41138
      H   34    0.08723      0.00000     0.41086    0.00191     0.41277
      H   35    0.09393      0.00000     0.40477    0.00130     0.40607
 =======================================================================
   * Total *    0.00000     21.99249    47.77328    0.23423    70.00000

 Normal termination of Gaussian 16 at Fri Dec 11 21:44:34 2020.
