 Gaussian 16, Revision A.03,

 -----------------------------------------------------------
 # opt freq B3LYP/6-31G(d) empiricaldispersion=gd3bj scf=xqc
 -----------------------------------------------------------

 -------------------------------
 CID_103358068_JID_5652_neutraal
 -------------------------------
 Symbolic Z-matrix:
 Charge =  0 Multiplicity = 1

 SCF Done:  E(RB3LYP) =  -670.124694430     A.U. after   14 cycles
 SCF Done:  E(RB3LYP) =  -670.127307370     A.U. after   12 cycles
 SCF Done:  E(RB3LYP) =  -670.127805588     A.U. after   11 cycles
 SCF Done:  E(RB3LYP) =  -670.128172762     A.U. after   11 cycles
 SCF Done:  E(RB3LYP) =  -670.128332182     A.U. after   10 cycles
 SCF Done:  E(RB3LYP) =  -670.128386652     A.U. after   10 cycles
 SCF Done:  E(RB3LYP) =  -670.128409715     A.U. after   10 cycles
 SCF Done:  E(RB3LYP) =  -670.128419136     A.U. after   10 cycles
 SCF Done:  E(RB3LYP) =  -670.128424359     A.U. after    9 cycles
 SCF Done:  E(RB3LYP) =  -670.128436833     A.U. after   10 cycles
 SCF Done:  E(RB3LYP) =  -670.116370540     A.U. after   12 cycles
 SCF Done:  E(RB3LYP) =  -670.128543017     A.U. after    9 cycles
 SCF Done:  E(RB3LYP) =  -670.128543767     A.U. after    9 cycles
 SCF Done:  E(RB3LYP) =  -670.128544394     A.U. after    8 cycles
 SCF Done:  E(RB3LYP) =  -670.128544623     A.U. after    8 cycles
 SCF Done:  E(RB3LYP) =  -670.128544653     A.U. after    7 cycles
 Optimization completed.
    -- Stationary point found.
 Normal termination of Gaussian 16 at Thu Dec 10 16:56:08 2020.

 --------------------------------------------------------------------
 #N Geom=AllCheck Guess=TCheck SCRF=Check GenChk RB3LYP/6-31G(d) Freq
 --------------------------------------------------------------------

 Structure from the checkpoint file:  "JID_5652.chk"
 -------------------------------
 CID_103358068_JID_5652_neutraal
 -------------------------------
 Charge =  0 Multiplicity = 1

 SCF Done:  E(RB3LYP) =  -670.128544653     A.U. after    1 cycles

  Exact polarizability: 147.110   3.191 132.970  12.491   4.200 112.618
 Approx polarizability: 183.874  -2.398 209.593  28.172   5.297 176.272

                      1                      2                      3
                      A                      A                      A
 Frequencies --     16.0112                43.8184                74.5169
 Red. masses --      3.4782                 3.6291                 2.6975
 Frc consts  --      0.0005                 0.0041                 0.0088
 IR Inten    --      0.5845                 2.4641                 0.2098

                      4                      5                      6
                      A                      A                      A
 Frequencies --     78.3608                92.2454               132.5123
 Red. masses --      3.9153                 3.1783                 3.8603
 Frc consts  --      0.0142                 0.0159                 0.0399
 IR Inten    --      0.5238                 2.1007                 0.5747

                      7                      8                      9
                      A                      A                      A
 Frequencies --    164.5811               185.9874               234.3746
 Red. masses --      3.0132                 1.9124                 1.4105
 Frc consts  --      0.0481                 0.0390                 0.0457
 IR Inten    --      0.1691                 0.4052                 0.3778

                     10                     11                     12
                      A                      A                      A
 Frequencies --    264.3746               289.0153               318.2490
 Red. masses --      3.7528                 1.0938                 1.1888
 Frc consts  --      0.1545                 0.0538                 0.0709
 IR Inten    --      2.2489                 0.2389                74.3159

                     13                     14                     15
                      A                      A                      A
 Frequencies --    335.1333               350.2954               364.1400
 Red. masses --      1.8412                 2.1073                 2.6814
 Frc consts  --      0.1218                 0.1524                 0.2095
 IR Inten    --      0.8437                22.1657                26.1053

                     16                     17                     18
                      A                      A                      A
 Frequencies --    394.4422               403.9930               424.1680
 Red. masses --      2.2651                 2.8970                 2.4764
 Frc consts  --      0.2076                 0.2786                 0.2625
 IR Inten    --      4.5609                 2.6493                 2.4101

                     19                     20                     21
                      A                      A                      A
 Frequencies --    458.1355               472.1864               587.3373
 Red. masses --      3.1410                 2.8287                 3.9112
 Frc consts  --      0.3884                 0.3716                 0.7949
 IR Inten    --     12.9328                 9.4249                 2.2957

                     22                     23                     24
                      A                      A                      A
 Frequencies --    614.4864               648.7029               676.8181
 Red. masses --      3.6022                 3.6257                 3.8817
 Frc consts  --      0.8014                 0.8989                 1.0477
 IR Inten    --      1.3804                 5.8544                13.6392

                     25                     26                     27
                      A                      A                      A
 Frequencies --    685.3309               763.3128               778.2961
 Red. masses --      3.6210                 2.9053                 2.1172
 Frc consts  --      1.0020                 0.9973                 0.7556
 IR Inten    --      3.5907                 9.8567                 0.4219

                     28                     29                     30
                      A                      A                      A
 Frequencies --    796.6983               804.3112               847.5684
 Red. masses --      1.4640                 1.2112                 1.5672
 Frc consts  --      0.5475                 0.4616                 0.6633
 IR Inten    --     16.1210                 3.4987                10.7446

                     31                     32                     33
                      A                      A                      A
 Frequencies --    848.3455               910.8785               925.8856
 Red. masses --      3.0926                 2.3657                 2.4560
 Frc consts  --      1.3113                 1.1564                 1.2405
 IR Inten    --     15.2416                 5.7657                 0.2061

                     34                     35                     36
                      A                      A                      A
 Frequencies --    941.2802               958.1633               963.2332
 Red. masses --      3.2376                 2.2451                 1.8161
 Frc consts  --      1.6901                 1.2144                 0.9928
 IR Inten    --     24.1335                33.6772                 3.8022

                     37                     38                     39
                      A                      A                      A
 Frequencies --    973.6491               982.6821              1016.2810
 Red. masses --      1.7666                 2.1005                 1.9231
 Frc consts  --      0.9867                 1.1951                 1.1703
 IR Inten    --      0.6119                 3.1260                 1.4955

                     40                     41                     42
                      A                      A                      A
 Frequencies --   1066.4104              1105.8654              1112.2729
 Red. masses --      1.5427                 2.0406                 1.9212
 Frc consts  --      1.0337                 1.4703                 1.4003
 IR Inten    --      2.4548                 3.7357                41.7516

                     43                     44                     45
                      A                      A                      A
 Frequencies --   1122.1176              1139.6231              1158.0700
 Red. masses --      1.7213                 2.2979                 1.8856
 Frc consts  --      1.2770                 1.7584                 1.4900
 IR Inten    --      3.0112                15.6025                12.1557

                     46                     47                     48
                      A                      A                      A
 Frequencies --   1161.0647              1165.1696              1191.4853
 Red. masses --      1.7781                 1.9467                 2.0346
 Frc consts  --      1.4123                 1.5572                 1.7018
 IR Inten    --     77.5473                31.5764                 7.4269

                     49                     50                     51
                      A                      A                      A
 Frequencies --   1218.3234              1251.6619              1262.6153
 Red. masses --      3.1738                 1.6236                 1.4242
 Frc consts  --      2.7756                 1.4987                 1.3377
 IR Inten    --      8.6995                33.5867                10.6860

                     52                     53                     54
                      A                      A                      A
 Frequencies --   1272.5623              1293.3183              1305.1961
 Red. masses --      1.6145                 1.8741                 1.6711
 Frc consts  --      1.5405                 1.8470                 1.6773
 IR Inten    --     11.7230                 4.9158                20.8791

                     55                     56                     57
                      A                      A                      A
 Frequencies --   1306.6953              1339.1456              1343.2912
 Red. masses --      2.3096                 1.4264                 1.4065
 Frc consts  --      2.3234                 1.5071                 1.4953
 IR Inten    --     25.3189                 3.8879                25.1801

                     58                     59                     60
                      A                      A                      A
 Frequencies --   1377.2597              1387.9181              1394.9385
 Red. masses --      1.5436                 1.2991                 1.6529
 Frc consts  --      1.7251                 1.4744                 1.8950
 IR Inten    --     11.5650                32.7950                 5.6554

                     61                     62                     63
                      A                      A                      A
 Frequencies --   1406.6941              1413.9803              1428.6506
 Red. masses --      1.3190                 3.0497                 1.5920
 Frc consts  --      1.5378                 3.5925                 1.9144
 IR Inten    --     21.6957                14.0835                 6.4008

                     64                     65                     66
                      A                      A                      A
 Frequencies --   1433.4173              1437.6665              1443.2253
 Red. masses --      2.2781                 1.2640                 1.4150
 Frc consts  --      2.7578                 1.5392                 1.7365
 IR Inten    --      2.3938                 6.0059                 8.2168

                     67                     68                     69
                      A                      A                      A
 Frequencies --   1493.8466              1510.9266              1513.5298
 Red. masses --      1.1074                 1.0854                 1.6941
 Frc consts  --      1.4560                 1.4599                 2.2865
 IR Inten    --      8.4699                 4.3123                26.8998

                     70                     71                     72
                      A                      A                      A
 Frequencies --   1519.2955              1523.7854              1526.3902
 Red. masses --      1.0494                 1.0530                 1.0703
 Frc consts  --      1.4272                 1.4406                 1.4692
 IR Inten    --      6.7002                 1.0387                 1.7930

                     73                     74                     75
                      A                      A                      A
 Frequencies --   1528.6998              1532.6084              1541.9598
 Red. masses --      1.2947                 1.0879                 1.2681
 Frc consts  --      1.7826                 1.5056                 1.7764
 IR Inten    --     14.5699                 3.0108                19.3316

                     76                     77                     78
                      A                      A                      A
 Frequencies --   1552.8921              1592.6357              2934.6967
 Red. masses --      1.1012                 5.0460                 1.0721
 Frc consts  --      1.5646                 7.5411                 5.4404
 IR Inten    --      7.8968                10.4893                52.7229

                     79                     80                     81
                      A                      A                      A
 Frequencies --   2967.3518              3037.6437              3049.7079
 Red. masses --      1.0697                 1.0399                 1.0609
 Frc consts  --      5.5493                 5.6534                 5.8137
 IR Inten    --     38.2827                25.7526                33.3246

                     82                     83                     84
                      A                      A                      A
 Frequencies --   3060.1402              3066.0030              3069.9424
 Red. masses --      1.0353                 1.0870                 1.0912
 Frc consts  --      5.7121                 6.0205                 6.0593
 IR Inten    --     21.6891                49.2977                33.7613

                     85                     86                     87
                      A                      A                      A
 Frequencies --   3084.6781              3087.8758              3092.9047
 Red. masses --      1.0637                 1.0633                 1.1031
 Frc consts  --      5.9636                 5.9735                 6.2171
 IR Inten    --     12.3762                24.5198                26.0222

                     88                     89                     90
                      A                      A                      A
 Frequencies --   3103.5263              3123.3278              3130.9125
 Red. masses --      1.0959                 1.1020                 1.1033
 Frc consts  --      6.2190                 6.3336                 6.3722
 IR Inten    --     28.8306                 0.3383                27.0796

                     91                     92                     93
                      A                      A                      A
 Frequencies --   3132.8785              3139.3600              3145.7559
 Red. masses --      1.1016                 1.1060                 1.1045
 Frc consts  --      6.3702                 6.4223                 6.4398
 IR Inten    --     32.0301                16.6734                30.0749

                     94                     95                     96
                      A                      A                      A
 Frequencies --   3248.3242              3252.3178              3728.3484
 Red. masses --      1.0939                 1.0985                 1.0658
 Frc consts  --      6.8005                 6.8461                 8.7290
 IR Inten    --     13.0699                 0.0873                 6.6465

 - Thermochemistry -
 -------------------
 Temperature   298.150 Kelvin.  Pressure   1.00000 Atm.
 Atom     1 has atomic number  6 and mass  12.00000

 Molecular mass:   209.15281 amu.
 Principal axes and moments of inertia in atomic units:
                           1         2         3
     Eigenvalues --  1603.738555202.613365837.40786
           X            0.99944   0.03283  -0.00592
           Y           -0.03275   0.99938   0.01301
           Z            0.00634  -0.01281   0.99990
 This molecule is an asymmetric top.
 Rotational symmetry number  1.
 Warning -- assumption of classical behavior for rotation
           may cause significant error
 Rotational temperatures (Kelvin)      0.05401     0.01665     0.01484
 Rotational constants (GHZ):           1.12533     0.34689     0.30917
 Zero-point vibrational energy     787446.1 (Joules/Mol)
                                  188.20413 (Kcal/Mol)
 Warning -- explicit consideration of  22 degrees of freedom as
           vibrations may cause significant error
 Vibrational temperatures:     23.04    63.04   107.21   112.74   132.72
          (Kelvin)            190.66   236.80   267.59   337.21   380.38
                              415.83   457.89   482.18   504.00   523.92
                              567.51   581.26   610.28   659.15   679.37
                              845.05   884.11   933.34   973.79   986.04
                             1098.24  1119.79  1146.27  1157.22  1219.46
                             1220.58  1310.55  1332.14  1354.29  1378.58
                             1385.88  1400.86  1413.86  1462.20  1534.33
                             1591.09  1600.31  1614.48  1639.66  1666.20
                             1670.51  1676.42  1714.28  1752.90  1800.86
                             1816.62  1830.93  1860.80  1877.89  1880.04
                             1926.73  1932.70  1981.57  1996.90  2007.01
                             2023.92  2034.40  2055.51  2062.37  2068.48
                             2076.48  2149.31  2173.89  2177.63  2185.93
                             2192.39  2196.13  2199.46  2205.08  2218.54
                             2234.27  2291.45  4222.37  4269.36  4370.49
                             4387.85  4402.86  4411.29  4416.96  4438.16
                             4442.76  4450.00  4465.28  4493.77  4504.68
                             4507.51  4516.84  4526.04  4673.61  4679.36
                             5364.26

 Zero-point correction=                           0.299922 (Hartree/Particle)
 Thermal correction to Energy=                    0.314919
 Thermal correction to Enthalpy=                  0.315864
 Thermal correction to Gibbs Free Energy=         0.256602
 Sum of electronic and zero-point Energies=           -669.828622
 Sum of electronic and thermal Energies=              -669.813625
 Sum of electronic and thermal Enthalpies=            -669.812681
 Sum of electronic and thermal Free Energies=         -669.871943

                     E (Thermal)             CV                S
                      KCal/Mol        Cal/Mol-Kelvin    Cal/Mol-Kelvin
 Total                  197.615             57.378            124.726
 Electronic               0.000              0.000              0.000
 Translational            0.889              2.981             41.918
 Rotational               0.889              2.981             32.254
 Vibrational            195.837             51.416             50.554
 Vibration     1          0.593              1.986              7.076
 Vibration     2          0.595              1.980              5.079
 Vibration     3          0.599              1.966              4.030
 Vibration     4          0.600              1.964              3.932
 Vibration     5          0.602              1.955              3.612
 Vibration     6          0.613              1.921              2.909
 Vibration     7          0.623              1.886              2.496
 Vibration     8          0.632              1.859              2.267
 Vibration     9          0.654              1.788              1.845
 Vibration    10          0.671              1.738              1.633
 Vibration    11          0.686              1.694              1.480
 Vibration    12          0.705              1.639              1.319
 Vibration    13          0.716              1.605              1.235
 Vibration    14          0.727              1.575              1.165
 Vibration    15          0.738              1.546              1.104
 Vibration    16          0.761              1.482              0.983
 Vibration    17          0.769              1.462              0.948
 Vibration    18          0.786              1.418              0.878
 Vibration    19          0.816              1.343              0.772
 Vibration    20          0.829              1.312              0.731
 Vibration    21          0.944              1.059              0.472
 Vibration    22          0.974              1.001              0.425

                           ! Non-Optimized Parameters !
 Normal termination of Gaussian 16 at Thu Dec 10 17:09:40 2020.

 ----------------------------------------------------------------------
 # B3LYP/6-311++G(d,p) empiricaldispersion=gd3bj scf=xqc pop=npa geom=c
 heck
 ----------------------------------------------------------------------

 ---------------------------------------
 CID_103358068_JID_5652_Energie_neutraal
 ---------------------------------------
 Structure from the checkpoint file:  "JID_5652.chk"
 Charge =  0 Multiplicity = 1

 SCF Done:  E(RB3LYP) =  -670.320890899     A.U. after   14 cycles
 Normal termination of Gaussian 16 at Thu Dec 10 17:16:51 2020.

 ----------------------------------------------------------------------
 # B3LYP/6-311++G(d,p) empiricaldispersion=gd3bj scf=xqc pop=npa geom=c
 heck
 ----------------------------------------------------------------------

 -------------------------------------
 CID_103358068_JID_5652_Energie_kation
 -------------------------------------
 Structure from the checkpoint file:  "JID_5652.chk"
 Charge =  1 Multiplicity = 2

 SCF Done:  E(UB3LYP) =  -670.033467306     A.U. after   23 cycles
 Normal termination of Gaussian 16 at Thu Dec 10 17:31:51 2020.
 Gaussian 16:  ES64L-G16RevA.03 25-Dec-2016

 ----------------------------------------------------------------------
 # B3LYP/6-311++G(d,p) empiricaldispersion=gd3bj scf=xqc pop=npa geom=c
 heck
 ----------------------------------------------------------------------

 ------------------------------------
 CID_103358068_JID_5652_Energie_anion
 ------------------------------------
 Structure from the checkpoint file:  "JID_5652.chk"
 Charge = -1 Multiplicity = 2

                         Standard orientation:
 ---------------------------------------------------------------------
 Center     Atomic      Atomic             Coordinates (Angstroms)
 Number     Number       Type             X           Y           Z
 ---------------------------------------------------------------------
      1          6           0       -3.736716   -1.773893    0.215205
      2          6           0       -2.692026   -1.205949   -0.746440
      3          7           0       -2.255763    0.133973   -0.372748
      4          6           0       -2.808348    1.299658   -0.832257
      5          7           0       -2.333200    2.360285   -0.214316
      6          6           0       -1.436714    1.859293    0.702419
      7          6           0       -1.366263    0.483375    0.640341
      8          6           0       -0.479598   -0.491846    1.365666
      9          7           0        0.850014   -0.712930    0.794312
     10          6           0        0.895714   -1.256491   -0.559760
     11          6           0        2.392048   -1.215992   -0.878212
     12          6           0        2.910773    0.049096   -0.149769
     13          6           0        1.724579    0.456584    0.766941
     14          6           0        3.293195    1.175658   -1.110133
     15          8           0        4.057991   -0.361766    0.603000
     16          1           0       -3.333669   -1.854655    1.229593
     17          1           0       -4.051085   -2.771418   -0.110509
     18          1           0       -4.617838   -1.125589    0.252106
     19          1           0       -1.816136   -1.857338   -0.798151
     20          1           0       -3.100072   -1.140067   -1.759817
     21          1           0       -3.550781    1.302732   -1.620251
     22          1           0       -0.885810    2.513537    1.365756
     23          1           0       -0.334872   -0.128834    2.389377
     24          1           0       -0.968742   -1.469998    1.449199
     25          1           0        0.480752   -2.271476   -0.580209
     26          1           0        0.327309   -0.641399   -1.284053
     27          1           0        2.600785   -1.198744   -1.951904
     28          1           0        2.896359   -2.079144   -0.437514
     29          1           0        1.213774    1.342628    0.349864
     30          1           0        2.066904    0.705659    1.778459
     31          1           0        3.575438    2.083327   -0.559474
     32          1           0        4.142842    0.869309   -1.728739
     33          1           0        2.456358    1.438423   -1.766332
     34          1           0        4.427346    0.430938    1.023858
 ---------------------------------------------------------------------

 SCF Done:  E(UB3LYP) =  -670.311282151     A.U. after   30 cycles

 The electronic state is 2-A.
 Alpha  occ. eigenvalues --  -19.02714 -14.27420 -14.21201 -14.19841 -10.13805
 Alpha  occ. eigenvalues --  -10.12485 -10.12387 -10.11460 -10.10455 -10.09787
 Alpha  occ. eigenvalues --  -10.09382 -10.08634 -10.07576 -10.07180 -10.07130
 Alpha  occ. eigenvalues --   -0.93208  -0.92286  -0.84242  -0.79398  -0.70684
 Alpha  occ. eigenvalues --   -0.67570  -0.65620  -0.64086  -0.60640  -0.57050
 Alpha  occ. eigenvalues --   -0.55966  -0.50829  -0.50049  -0.47435  -0.45942
 Alpha  occ. eigenvalues --   -0.43077  -0.41096  -0.40070  -0.38434  -0.37211
 Alpha  occ. eigenvalues --   -0.36448  -0.35261  -0.34295  -0.33524  -0.32594
 Alpha  occ. eigenvalues --   -0.31993  -0.31293  -0.31090  -0.29757  -0.28895
 Alpha  occ. eigenvalues --   -0.28102  -0.27099  -0.26862  -0.26638  -0.25877
 Alpha  occ. eigenvalues --   -0.25493  -0.22530  -0.18383  -0.18039  -0.17716
 Alpha  occ. eigenvalues --   -0.13695  -0.12546   0.03939
 Alpha virt. eigenvalues --    0.05429   0.07122   0.07576   0.08161   0.08446
 Alpha virt. eigenvalues --    0.09072   0.09894   0.09982   0.10498   0.10592
 Alpha virt. eigenvalues --    0.11410   0.11504   0.11971   0.12094   0.12737

  Beta  occ. eigenvalues --  -19.02687 -14.27422 -14.21201 -14.19840 -10.13806
  Beta  occ. eigenvalues --  -10.12467 -10.12354 -10.11448 -10.10450 -10.09767
  Beta  occ. eigenvalues --  -10.09364 -10.08628 -10.07531 -10.07153 -10.07118
  Beta  occ. eigenvalues --   -0.93155  -0.92276  -0.84229  -0.79381  -0.70661
  Beta  occ. eigenvalues --   -0.67530  -0.65583  -0.64057  -0.60606  -0.57004
  Beta  occ. eigenvalues --   -0.55882  -0.50810  -0.50012  -0.47384  -0.45897
  Beta  occ. eigenvalues --   -0.43032  -0.41048  -0.40038  -0.38404  -0.37173
  Beta  occ. eigenvalues --   -0.36418  -0.35227  -0.34266  -0.33501  -0.32560
  Beta  occ. eigenvalues --   -0.31970  -0.31272  -0.31064  -0.29701  -0.28848
  Beta  occ. eigenvalues --   -0.28073  -0.27056  -0.26836  -0.26612  -0.25841
  Beta  occ. eigenvalues --   -0.25469  -0.22498  -0.18360  -0.18029  -0.17697
  Beta  occ. eigenvalues --   -0.13659  -0.12532
  Beta virt. eigenvalues --    0.06147   0.06762   0.07629   0.08138   0.08567
  Beta virt. eigenvalues --    0.08891   0.09464   0.10003   0.10376   0.10664
  Beta virt. eigenvalues --    0.10864   0.11614   0.11982   0.12228   0.12262

 Mulliken charges and spin densities:
               1          2
     1  C    1.411510  -1.867609
     2  C   -0.660998   0.490441
     3  N    0.112587   0.036155
     4  C    0.236522  -0.211610
     5  N   -0.109714   0.016097
     6  C   -0.374727  -0.223787
     7  C    0.287957   0.404676
     8  C   -0.221796  -0.800234
     9  N    0.131869   0.152836
    10  C    0.169334  -0.272004
    11  C    0.145643  -0.886819
    12  C   -0.366461   0.456186
    13  C   -0.156365  -0.268920
    14  C    0.322200  -0.854426
    15  O   -0.222268   0.015171
    16  H   -0.166909   0.302624
    17  H   -0.672053   0.834201
    18  H    0.015945   0.136271
    19  H   -0.029952   0.168345
    20  H   -0.675484   0.853478
    21  H   -0.109919   0.257620
    22  H    0.015208   0.102773
    23  H    0.072010   0.126656
    24  H    0.034182   0.147782
    25  H   -0.163712   0.333927
    26  H    0.014197   0.121824
    27  H   -0.151833   0.305292
    28  H    0.219637  -0.016265
    29  H    0.267660  -0.139295
    30  H   -0.126965   0.310937
    31  H   -0.318206   0.459264
    32  H    0.030931   0.127671
    33  H    0.051742   0.117510
    34  H   -0.011771   0.263233
 Sum of Mulliken charges =  -1.00000   1.00000

 Dipole moment (field-independent basis, Debye):
    X=              2.0560    Y=              1.9893    Z=              1.5120  Tot=              3.2358
 Quadrupole moment (field-independent basis, Debye-Ang):
   XX=           -177.8587   YY=           -147.2992   ZZ=           -125.3848
   XY=            -10.6675   XZ=            -10.9692   YZ=             -2.5925

 Summary of Natural Population Analysis:

                                       Natural Population
                Natural  -----------------------------------------------
    Atom  No    Charge         Core      Valence    Rydberg      Total
 -----------------------------------------------------------------------
      C    1   -0.28717      0.99966     2.28254    0.00498     3.28717
      C    2   -0.08660      0.99961     2.07520    0.01179     3.08660
      N    3   -0.20852      0.99962     2.69761    0.01128     3.70852
      C    4    0.10676      0.99962     1.87631    0.01730     2.89324
      N    5   -0.25822      0.99973     2.74776    0.01072     3.75822
      C    6   -0.03260      0.99951     2.02038    0.01272     3.03260
      C    7    0.04875      0.99951     1.94076    0.01098     2.95125
      C    8   -0.10174      0.99958     2.09067    0.01150     3.10174
      N    9   -0.27493      0.99973     2.76316    0.01204     3.77493
      C   10   -0.08714      0.99962     2.07674    0.01079     3.08714
      C   11   -0.19323      0.99958     2.18525    0.00840     3.19323
      C   12    0.12376      0.99953     1.86157    0.01514     2.87624
      C   13   -0.09505      0.99956     2.08372    0.01177     3.09505
      C   14   -0.29687      0.99961     2.29049    0.00677     3.29687
      O   15   -0.37423      0.99989     3.36756    0.00678     4.37423
      H   16    0.09836      0.00000     0.40060    0.00104     0.40164
      H   17    0.10706      0.00000     0.39036    0.00258     0.39294
      H   18    0.09965      0.00000     0.39924    0.00112     0.40035
      H   19    0.10260      0.00000     0.39507    0.00233     0.39740
      H   20    0.10370      0.00000     0.39364    0.00266     0.39630
      H   21    0.09287      0.00000     0.40576    0.00137     0.40713
      H   22    0.09621      0.00000     0.40262    0.00117     0.40379
      H   23    0.10445      0.00000     0.39456    0.00100     0.39555
      H   24    0.10313      0.00000     0.39540    0.00147     0.39687
      H   25    0.09768      0.00000     0.40063    0.00169     0.40232
      H   26    0.08117      0.00000     0.41638    0.00245     0.41883
      H   27    0.10018      0.00000     0.39894    0.00088     0.39982
      H   28    0.11003      0.00000     0.38848    0.00149     0.38997
      H   29    0.08838      0.00000     0.40967    0.00194     0.41162
      H   30    0.09904      0.00000     0.39945    0.00151     0.40096
      H   31    0.09892      0.00000     0.39985    0.00123     0.40108
      H   32    0.10242      0.00000     0.39662    0.00097     0.39758
      H   33    0.10391      0.00000     0.39508    0.00102     0.39609
      H   34    0.22728      0.00000     0.26923    0.00349     0.27272
 =======================================================================
   * Total *   -0.00000     14.99435    41.81126    0.19439    57.00000

 Normal termination of Gaussian 16 at Thu Dec 10 17:50:06 2020.
