 Gaussian 16, Revision A.03,

 -----------------------------------------------------------
 # opt freq B3LYP/6-31G(d) empiricaldispersion=gd3bj scf=xqc
 -----------------------------------------------------------

 -------------------------------
 CID_58753516_JID_10182_neutraal
 -------------------------------
 Symbolic Z-matrix:
 Charge =  0 Multiplicity = 1

 SCF Done:  E(RB3LYP) =  -1330.95355614     A.U. after   15 cycles
 SCF Done:  E(RB3LYP) =  -1330.96140372     A.U. after   13 cycles
 SCF Done:  E(RB3LYP) =  -1330.96120122     A.U. after   13 cycles
 SCF Done:  E(RB3LYP) =  -1330.96127366     A.U. after   13 cycles
 SCF Done:  E(RB3LYP) =  -1330.96256139     A.U. after    9 cycles
 SCF Done:  E(RB3LYP) =  -1330.96347044     A.U. after   13 cycles
 SCF Done:  E(RB3LYP) =  -1330.96330418     A.U. after   13 cycles
 SCF Done:  E(RB3LYP) =  -1330.96400907     A.U. after   12 cycles
 SCF Done:  E(RB3LYP) =  -1330.96411657     A.U. after   12 cycles
 SCF Done:  E(RB3LYP) =  -1330.96436830     A.U. after   11 cycles
 SCF Done:  E(RB3LYP) =  -1330.96517788     A.U. after    8 cycles
 SCF Done:  E(RB3LYP) =  -1330.96517808     A.U. after    8 cycles
 SCF Done:  E(RB3LYP) =  -1330.96517815     A.U. after    8 cycles
 SCF Done:  E(RB3LYP) =  -1330.96517817     A.U. after    8 cycles
 Optimization completed.
    -- Stationary point found.
 Normal termination of Gaussian 16 at Sun Dec 13 12:54:45 2020.

 --------------------------------------------------------------------
 #N Geom=AllCheck Guess=TCheck SCRF=Check GenChk RB3LYP/6-31G(d) Freq
 --------------------------------------------------------------------

 Structure from the checkpoint file:  "JID_10182.chk"
 -------------------------------
 CID_58753516_JID_10182_neutraal
 -------------------------------
 Charge =  0 Multiplicity = 1

 SCF Done:  E(RB3LYP) =  -1330.96517817     A.U. after    1 cycles

  Exact polarizability: 223.730  -7.083 164.471  -9.574 -11.124 126.021
 Approx polarizability: 285.269 -25.800 286.936  -9.819 -33.604 207.801

                      1                      2                      3
                      A                      A                      A
 Frequencies --     16.9780                19.7364                34.9893
 Red. masses --      5.9939                 5.5977                 5.0693
 Frc consts  --      0.0010                 0.0013                 0.0037
 IR Inten    --      0.5813                 1.5667                 2.8402

                      4                      5                      6
                      A                      A                      A
 Frequencies --     45.7284                58.1888                61.0262
 Red. masses --      7.8486                 6.7146                 7.8088
 Frc consts  --      0.0097                 0.0134                 0.0171
 IR Inten    --      2.1663                 4.3633                 1.2804

                      7                      8                      9
                      A                      A                      A
 Frequencies --     68.9665                83.7389               102.7401
 Red. masses --      5.2048                 4.9615                 1.8204
 Frc consts  --      0.0146                 0.0205                 0.0113
 IR Inten    --      2.6909                 0.5679                 1.4176

                     10                     11                     12
                      A                      A                      A
 Frequencies --    110.2456               148.6364               151.4428
 Red. masses --      1.9486                 6.1135                 5.3752
 Frc consts  --      0.0140                 0.0796                 0.0726
 IR Inten    --      0.5875                 6.1373                 0.3339

                     13                     14                     15
                      A                      A                      A
 Frequencies --    159.3294               191.8163               245.2807
 Red. masses --      4.8181                 4.4614                 3.7469
 Frc consts  --      0.0721                 0.0967                 0.1328
 IR Inten    --      3.6513                 1.3395                 0.1273

                     16                     17                     18
                      A                      A                      A
 Frequencies --    259.1859               286.7025               320.6048
 Red. masses --      4.4538                 4.0964                 3.3178
 Frc consts  --      0.1763                 0.1984                 0.2009
 IR Inten    --      2.2787                 5.6892                 0.9161

                     19                     20                     21
                      A                      A                      A
 Frequencies --    350.8378               363.6610               387.5996
 Red. masses --      2.6224                 2.8386                 3.7238
 Frc consts  --      0.1902                 0.2212                 0.3296
 IR Inten    --      5.1685                 5.8190                 3.5909

                     22                     23                     24
                      A                      A                      A
 Frequencies --    418.8714               439.6792               453.3034
 Red. masses --      1.2562                 2.5799                 7.0375
 Frc consts  --      0.1299                 0.2939                 0.8520
 IR Inten    --     43.4442                15.1805                 0.5922

                     25                     26                     27
                      A                      A                      A
 Frequencies --    469.6890               499.0652               529.9794
 Red. masses --      3.5598                 3.7224                 2.8128
 Frc consts  --      0.4627                 0.5462                 0.4655
 IR Inten    --      8.8838                 8.9572                18.5443

                     28                     29                     30
                      A                      A                      A
 Frequencies --    540.7591               548.7622               556.9961
 Red. masses --      3.6114                 4.9765                 3.3539
 Frc consts  --      0.6222                 0.8830                 0.6131
 IR Inten    --      9.4288                17.1691                15.4426

                     31                     32                     33
                      A                      A                      A
 Frequencies --    583.3922               601.2110               615.6483
 Red. masses --      2.5727                 2.8180                 1.5114
 Frc consts  --      0.5159                 0.6001                 0.3375
 IR Inten    --     35.5681                 8.0024               128.3210

                     34                     35                     36
                      A                      A                      A
 Frequencies --    632.6288               672.4303               692.4060
 Red. masses --      3.0029                 2.1325                 2.0337
 Frc consts  --      0.7081                 0.5681                 0.5745
 IR Inten    --     65.9949                21.5377                72.8132

                     37                     38                     39
                      A                      A                      A
 Frequencies --    723.3351               729.3650               756.8563
 Red. masses --      2.4513                 1.4824                 1.5389
 Frc consts  --      0.7557                 0.4646                 0.5194
 IR Inten    --     75.8585                31.6399                20.0480

                     40                     41                     42
                      A                      A                      A
 Frequencies --    763.1013               779.9868               785.4195
 Red. masses --      1.9091                 2.3852                 2.9304
 Frc consts  --      0.6550                 0.8550                 1.0651
 IR Inten    --     94.4023                13.3193                68.7454

                     43                     44                     45
                      A                      A                      A
 Frequencies --    792.8347               819.2650               865.6943
 Red. masses --      4.8610                 2.5527                 4.2295
 Frc consts  --      1.8003                 1.0095                 1.8675
 IR Inten    --     85.3517                19.0019                 8.6310

                     46                     47                     48
                      A                      A                      A
 Frequencies --    878.5592               895.3980               928.9805
 Red. masses --      2.9280                 1.4406                 2.9886
 Frc consts  --      1.3316                 0.6805                 1.5196
 IR Inten    --      5.1306                 7.7153                 1.6895

                     49                     50                     51
                      A                      A                      A
 Frequencies --    966.5617               980.2164              1010.6604
 Red. masses --      3.2517                 2.9677                 1.9172
 Frc consts  --      1.7899                 1.6800                 1.1538
 IR Inten    --      5.3980                 2.0389                13.5843

                     52                     53                     54
                      A                      A                      A
 Frequencies --   1023.4206              1053.3934              1077.3497
 Red. masses --      1.4070                 2.0156                 1.5816
 Frc consts  --      0.8683                 1.3178                 1.0816
 IR Inten    --      6.3732                 9.2704                 8.5991

                     55                     56                     57
                      A                      A                      A
 Frequencies --   1081.7750              1122.7915              1132.8067
 Red. masses --      2.6083                 3.0268                 1.5261
 Frc consts  --      1.7984                 2.2482                 1.1538
 IR Inten    --     21.9569                28.1865                52.8255

                     58                     59                     60
                      A                      A                      A
 Frequencies --   1159.7344              1171.0505              1191.0877
 Red. masses --      2.7397                 2.3343                 1.6368
 Frc consts  --      2.1711                 1.8861                 1.3681
 IR Inten    --     40.8488                53.1136                 1.5434

                     61                     62                     63
                      A                      A                      A
 Frequencies --   1199.5774              1234.6720              1236.4309
 Red. masses --      2.6325                 1.3530                 1.4012
 Frc consts  --      2.2319                 1.2152                 1.2621
 IR Inten    --    153.9816                14.0920                 8.0738

                     64                     65                     66
                      A                      A                      A
 Frequencies --   1253.3794              1300.9629              1328.3236
 Red. masses --      1.3234                 1.3767                 1.8132
 Frc consts  --      1.2249                 1.3728                 1.8850
 IR Inten    --     40.1265                 6.9847               194.6534

                     67                     68                     69
                      A                      A                      A
 Frequencies --   1347.3021              1362.5802              1379.3478
 Red. masses --      1.2678                 2.1075                 1.5410
 Frc consts  --      1.3560                 2.3054                 1.7275
 IR Inten    --     36.5886               215.1114                85.2878

                     70                     71                     72
                      A                      A                      A
 Frequencies --   1391.6726              1413.1177              1417.2990
 Red. masses --      2.1214                 1.5488                 1.7691
 Frc consts  --      2.4208                 1.8222                 2.0937
 IR Inten    --      6.7326                 0.4474                14.5073

                     73                     74                     75
                      A                      A                      A
 Frequencies --   1421.9656              1446.9392              1449.7891
 Red. masses --      2.4509                 1.3438                 2.1411
 Frc consts  --      2.9197                 1.6576                 2.6516
 IR Inten    --    113.2427                 0.0777               144.3665

                     76                     77                     78
                      A                      A                      A
 Frequencies --   1489.7903              1500.4357              1506.6732
 Red. masses --      3.9452                 1.4186                 1.4700
 Frc consts  --      5.1590                 1.8817                 1.9661
 IR Inten    --    127.6105                43.1853                 6.3621

                     79                     80                     81
                      A                      A                      A
 Frequencies --   1513.0983              1514.7956              1520.5242
 Red. masses --      1.0434                 1.0896                 1.0938
 Frc consts  --      1.4074                 1.4731                 1.4899
 IR Inten    --      6.0135                10.7328                 6.7273

                     82                     83                     84
                      A                      A                      A
 Frequencies --   1528.8226              1539.3462              1619.0195
 Red. masses --      1.2418                 1.1313                 5.4072
 Frc consts  --      1.7101                 1.5795                 8.3508
 IR Inten    --     32.9024                16.7244                 8.9953

                     85                     86                     87
                      A                      A                      A
 Frequencies --   1657.1864              1763.4752              1818.7416
 Red. masses --      1.1965                 7.8438                 7.5454
 Frc consts  --      1.9360                14.3719                14.7053
 IR Inten    --    166.3035               339.6053               623.1021

                     88                     89                     90
                      A                      A                      A
 Frequencies --   1830.1398              3048.8667              3049.3761
 Red. masses --      8.2572                 1.0647                 1.0371
 Frc consts  --     16.2948                 5.8313                 5.6820
 IR Inten    --     35.8751                15.6953                32.8133

                     91                     92                     93
                      A                      A                      A
 Frequencies --   3059.1456              3079.6473              3086.9354
 Red. masses --      1.0629                 1.0671                 1.0975
 Frc consts  --      5.8605                 5.9630                 6.1620
 IR Inten    --     49.3320                13.3272                26.5769

                     94                     95                     96
                      A                      A                      A
 Frequencies --   3092.8087              3102.8400              3107.6721
 Red. masses --      1.0812                 1.1014                 1.0982
 Frc consts  --      6.0936                 6.2474                 6.2490
 IR Inten    --      6.4101                16.6140                34.8497

                     97                     98                     99
                      A                      A                      A
 Frequencies --   3125.8752              3133.3903              3236.6481
 Red. masses --      1.1031                 1.1012                 1.0930
 Frc consts  --      6.3504                 6.3704                 6.7463
 IR Inten    --     17.5016                15.0993                 0.1695

                    100                    101                    102
                      A                      A                      A
 Frequencies --   3259.4349              3558.0655              3573.6756
 Red. masses --      1.0938                 1.0477                 1.0763
 Frc consts  --      6.8463                 7.8148                 8.0987
 IR Inten    --      0.9550                19.7168                83.4302

                    103                    104                    105
                      A                      A                      A
 Frequencies --   3580.2381              3669.2430              3679.7575
 Red. masses --      1.0745                 1.0990                 1.0641
 Frc consts  --      8.1150                 8.7174                 8.4895
 IR Inten    --     30.0428                22.6792                70.9034

 - Thermochemistry -
 -------------------
 Temperature   298.150 Kelvin.  Pressure   1.00000 Atm.
 Atom     1 has atomic number  6 and mass  12.00000

 Molecular mass:   299.09398 amu.
 Principal axes and moments of inertia in atomic units:
                           1         2         3
     Eigenvalues --  2783.01629********************
           X            0.99989   0.00445  -0.01381
           Y           -0.00435   0.99997   0.00709
           Z            0.01385  -0.00703   0.99988
 This molecule is an asymmetric top.
 Rotational symmetry number  1.
 Warning -- assumption of classical behavior for rotation
           may cause significant error
 Rotational temperatures (Kelvin)      0.03112     0.00654     0.00613
 Rotational constants (GHZ):           0.64848     0.13625     0.12763
 Zero-point vibrational energy     782602.5 (Joules/Mol)
                                  187.04650 (Kcal/Mol)
 Warning -- explicit consideration of  33 degrees of freedom as
           vibrations may cause significant error
 Vibrational temperatures:     24.43    28.40    50.34    65.79    83.72
          (Kelvin)             87.80    99.23   120.48   147.82   158.62
                              213.85   217.89   229.24   275.98   352.90
                              372.91   412.50   461.28   504.78   523.23
                              557.67   602.66   632.60   652.20   675.78
                              718.04   762.52   778.03   789.55   801.39
                              839.37   865.01   885.78   910.21   967.48
                              996.22  1040.72  1049.39  1088.95  1097.93
                             1122.23  1130.04  1140.71  1178.74  1245.54
                             1264.05  1288.28  1336.60  1390.67  1410.31
                             1454.11  1472.47  1515.60  1550.07  1556.43
                             1615.45  1629.86  1668.60  1684.88  1713.71
                             1725.92  1776.42  1778.95  1803.33  1871.80
                             1911.16  1938.47  1960.45  1984.57  2002.31
                             2033.16  2039.18  2045.89  2081.82  2085.92
                             2143.48  2158.79  2167.77  2177.01  2179.45
                             2187.70  2199.63  2214.78  2329.41  2384.32
                             2537.25  2616.76  2633.16  4386.64  4387.37
                             4401.43  4430.93  4441.41  4449.86  4464.29
                             4471.25  4497.44  4508.25  4656.81  4689.60
                             5119.26  5141.72  5151.16  5279.22  5294.35

 Zero-point correction=                           0.298078 (Hartree/Particle)
 Thermal correction to Energy=                    0.318772
 Thermal correction to Enthalpy=                  0.319716
 Thermal correction to Gibbs Free Energy=         0.244996
 Sum of electronic and zero-point Energies=          -1330.667101
 Sum of electronic and thermal Energies=             -1330.646406
 Sum of electronic and thermal Enthalpies=           -1330.645462
 Sum of electronic and thermal Free Energies=        -1330.720182

                     E (Thermal)             CV                S
                      KCal/Mol        Cal/Mol-Kelvin    Cal/Mol-Kelvin
 Total                  200.033             75.838            157.263
 Electronic               0.000              0.000              0.000
 Translational            0.889              2.981             42.984
 Rotational               0.889              2.981             34.610
 Vibrational            198.255             69.877             79.669
 Vibration     1          0.593              1.986              6.960
 Vibration     2          0.593              1.986              6.661
 Vibration     3          0.594              1.982              5.524
 Vibration     4          0.595              1.979              4.994
 Vibration     5          0.596              1.974              4.518
 Vibration     6          0.597              1.973              4.424
 Vibration     7          0.598              1.969              4.183
 Vibration     8          0.601              1.960              3.801
 Vibration     9          0.605              1.947              3.402
 Vibration    10          0.606              1.941              3.265
 Vibration    11          0.618              1.904              2.690
 Vibration    12          0.619              1.901              2.654
 Vibration    13          0.621              1.892              2.558
 Vibration    14          0.634              1.851              2.210
 Vibration    15          0.660              1.771              1.764
 Vibration    16          0.668              1.747              1.667
 Vibration    17          0.684              1.698              1.493
 Vibration    18          0.706              1.634              1.307
 Vibration    19          0.728              1.574              1.162
 Vibration    20          0.737              1.547              1.106
 Vibration    21          0.756              1.497              1.009
 Vibration    22          0.782              1.429              0.896
 Vibration    23          0.800              1.384              0.828
 Vibration    24          0.812              1.354              0.786
 Vibration    25          0.827              1.317              0.738
 Vibration    26          0.855              1.252              0.660
 Vibration    27          0.885              1.184              0.587
 Vibration    28          0.896              1.160              0.564
 Vibration    29          0.904              1.142              0.547
 Vibration    30          0.913              1.124              0.530
 Vibration    31          0.940              1.067              0.479
 Vibration    32          0.959              1.029              0.448
 Vibration    33          0.975              0.999              0.424

                           ! Non-Optimized Parameters !
 Normal termination of Gaussian 16 at Sun Dec 13 13:14:36 2020.

 ----------------------------------------------------------------------
 # B3LYP/6-311++G(d,p) empiricaldispersion=gd3bj scf=xqc pop=npa geom=c
 heck
 ----------------------------------------------------------------------

 ---------------------------------------
 CID_58753516_JID_10182_Energie_neutraal
 ---------------------------------------
 Structure from the checkpoint file:  "JID_10182.chk"
 Charge =  0 Multiplicity = 1

 SCF Done:  E(RB3LYP) =  -1331.28239781     A.U. after   16 cycles
 Normal termination of Gaussian 16 at Sun Dec 13 13:24:06 2020.

 ----------------------------------------------------------------------
 # B3LYP/6-311++G(d,p) empiricaldispersion=gd3bj scf=xqc pop=npa geom=c
 heck
 ----------------------------------------------------------------------

 -------------------------------------
 CID_58753516_JID_10182_Energie_kation
 -------------------------------------
 Structure from the checkpoint file:  "JID_10182.chk"
 Charge =  1 Multiplicity = 2

 SCF Done:  E(UB3LYP) =  -1330.97613741     A.U. after   33 cycles
 SCF Done:  E(UB3LYP) =  -1330.97613938     a.u. after    3 cycles
 Normal termination of Gaussian 16 at Sun Dec 13 14:50:23 2020.
 Gaussian 16:  ES64L-G16RevA.03 25-Dec-2016

 ----------------------------------------------------------------------
 # B3LYP/6-311++G(d,p) empiricaldispersion=gd3bj scf=xqc pop=npa geom=c
 heck
 ----------------------------------------------------------------------

 ------------------------------------
 CID_58753516_JID_10182_Energie_anion
 ------------------------------------
 Structure from the checkpoint file:  "JID_10182.chk"
 Charge = -1 Multiplicity = 2

                         Standard orientation:
 ---------------------------------------------------------------------
 Center     Atomic      Atomic             Coordinates (Angstroms)
 Number     Number       Type             X           Y           Z
 ---------------------------------------------------------------------
      1          6           0       -6.235698   -0.725046    0.794066
      2          6           0       -4.797660   -0.739998    0.355371
      3          6           0       -4.021328   -1.868222    0.267693
      4         16           0       -2.411044   -1.534106   -0.273744
      5          6           0       -2.764457    0.178300   -0.384836
      6          6           0       -4.068428    0.424306   -0.033615
      7          6           0       -1.850497    1.223345   -0.908929
      8          8           0       -2.302868    2.223796   -1.452337
      9          7           0       -0.482477    1.023194   -0.828412
     10          6           0        0.231067    0.345539    0.245851
     11          6           0        1.182189   -0.756759   -0.264759
     12          6           0        2.186366   -0.312468   -1.334437
     13          6           0        3.266656    0.669444   -0.848007
     14          7           0        4.053235    0.198836    0.285491
     15          6           0        4.875924   -0.912524    0.251551
     16          8           0        5.147354   -1.560948    1.252526
     17          7           0        5.365872   -1.254418   -1.008886
     18          6           0        0.952879    1.314767    1.181811
     19          8           0        1.723679    0.966486    2.051686
     20          8           0        0.640043    2.609350    0.962135
     21          1           0       -6.370844   -0.103981    1.687592
     22          1           0       -6.883135   -0.312617    0.011227
     23          1           0       -6.590366   -1.732868    1.028224
     24          1           0       -4.312401   -2.887151    0.487617
     25          1           0       -4.484305    1.424664   -0.069720
     26          1           0       -0.002649    1.824938   -1.222210
     27          1           0       -0.510064   -0.138273    0.889836
     28          1           0        1.706090   -1.184948    0.595259
     29          1           0        0.553524   -1.548373   -0.684386
     30          1           0        2.691043   -1.205067   -1.719246
     31          1           0        1.650166    0.137237   -2.180336
     32          1           0        3.933074    0.911180   -1.684630
     33          1           0        2.824684    1.627298   -0.552010
     34          1           0        3.601640    0.293479    1.189191
     35          1           0        5.540189   -0.500934   -1.662380
     36          1           0        6.131381   -1.912824   -0.940220
     37          1           0        1.134525    3.127082    1.626108
 ---------------------------------------------------------------------

 SCF Done:  E(UB3LYP) =  -1331.29199223     A.U. after   33 cycles
 SCF Done:  E(UB3LYP) =  -1331.29199223     a.u. after    1 cycles

 The electronic state is 2-A.
 Alpha  occ. eigenvalues --  -88.75192 -19.10188 -19.04209 -18.99210 -18.95801
 Alpha  occ. eigenvalues --  -14.23881 -14.23550 -14.21961 -10.23189 -10.20461
 Alpha  occ. eigenvalues --  -10.14378 -10.13589 -10.12315 -10.08301 -10.08071
 Alpha  occ. eigenvalues --  -10.07736 -10.07100 -10.06982 -10.06825 -10.04513
 Alpha  occ. eigenvalues --   -7.83851  -5.80145  -5.79785  -5.79456  -1.04184
 Alpha  occ. eigenvalues --   -0.95699  -0.95072  -0.91427  -0.83983  -0.81843
 Alpha  occ. eigenvalues --   -0.80069  -0.76144  -0.70468  -0.66153  -0.65188
 Alpha  occ. eigenvalues --   -0.61519  -0.60113  -0.57380  -0.54828  -0.51765
 Alpha  occ. eigenvalues --   -0.50967  -0.48733  -0.45778  -0.44906  -0.44246
 Alpha  occ. eigenvalues --   -0.42136  -0.41894  -0.40958  -0.39768  -0.37995
 Alpha  occ. eigenvalues --   -0.37175  -0.36197  -0.35291  -0.34771  -0.33605
 Alpha  occ. eigenvalues --   -0.33269  -0.32716  -0.32474  -0.31806  -0.31528
 Alpha  occ. eigenvalues --   -0.31296  -0.29330  -0.28779  -0.26741  -0.26494
 Alpha  occ. eigenvalues --   -0.26210  -0.25803  -0.25604  -0.24803  -0.24496
 Alpha  occ. eigenvalues --   -0.22690  -0.21695  -0.19515  -0.17837  -0.16377
 Alpha  occ. eigenvalues --   -0.15389  -0.14136  -0.13265  -0.12089   0.03294
 Alpha virt. eigenvalues --    0.04672   0.05913   0.06730   0.06865   0.07874
 Alpha virt. eigenvalues --    0.08810   0.09302   0.09963   0.10332   0.10506
 Alpha virt. eigenvalues --    0.10796   0.11572   0.12183   0.12623   0.12996

  Beta  occ. eigenvalues --  -88.75150 -19.10176 -19.04204 -18.99207 -18.95578
  Beta  occ. eigenvalues --  -14.23842 -14.23547 -14.21935 -10.23169 -10.20459
  Beta  occ. eigenvalues --  -10.14204 -10.13581 -10.12293 -10.08303 -10.08059
  Beta  occ. eigenvalues --  -10.07732 -10.06905 -10.06833 -10.06818 -10.04324
  Beta  occ. eigenvalues --   -7.83813  -5.80127  -5.79768  -5.79315  -1.04155
  Beta  occ. eigenvalues --   -0.95689  -0.95054  -0.91044  -0.83962  -0.81698
  Beta  occ. eigenvalues --   -0.80014  -0.75880  -0.70424  -0.66061  -0.65133
  Beta  occ. eigenvalues --   -0.61029  -0.60066  -0.57138  -0.54790  -0.51721
  Beta  occ. eigenvalues --   -0.50543  -0.48676  -0.45703  -0.44723  -0.44170
  Beta  occ. eigenvalues --   -0.41951  -0.41874  -0.40872  -0.39684  -0.37918
  Beta  occ. eigenvalues --   -0.37116  -0.36142  -0.35249  -0.34695  -0.33533
  Beta  occ. eigenvalues --   -0.33157  -0.32650  -0.32440  -0.31628  -0.31437
  Beta  occ. eigenvalues --   -0.31224  -0.28937  -0.28311  -0.26696  -0.26402
  Beta  occ. eigenvalues --   -0.26132  -0.25767  -0.25383  -0.24662  -0.23870
  Beta  occ. eigenvalues --   -0.22471  -0.21527  -0.19485  -0.17811  -0.16353
  Beta  occ. eigenvalues --   -0.14929  -0.13565  -0.12609  -0.10765
  Beta virt. eigenvalues --    0.05534   0.06194   0.06793   0.06826   0.07919
  Beta virt. eigenvalues --    0.08302   0.08781   0.09347   0.10023   0.10409
  Beta virt. eigenvalues --    0.10662   0.10765   0.11613   0.12214   0.12600

 Mulliken charges and spin densities:
               1          2
     1  C   -0.779366   0.024661
     2  C   -0.764680  -0.057699
     3  C    0.519081   0.174430
     4  S   -0.747362   0.118747
     5  C    0.117592   0.145342
     6  C    0.125563   0.181371
     7  C    0.491879  -0.038622
     8  O   -0.376037   0.082185
     9  N    0.157512   0.014277
    10  C    0.237070  -0.183458
    11  C   -0.315964  -0.006459
    12  C   -0.598963   0.341403
    13  C    0.329481  -0.817370
    14  N   -0.139783  -0.002418
    15  C    0.269110  -0.216092
    16  O   -0.369531   0.006857
    17  N   -0.347322  -0.032050
    18  C   -0.669765  -0.127182
    19  O   -0.216056   0.003037
    20  O   -0.096455   0.021544
    21  H    0.139014  -0.002307
    22  H    0.139578   0.000231
    23  H    0.128665  -0.000424
    24  H    0.219321  -0.014078
    25  H    0.196158  -0.012049
    26  H    0.302923   0.005997
    27  H    0.203052  -0.050347
    28  H    0.219820   0.002243
    29  H    0.105995   0.057602
    30  H    0.187104  -0.007869
    31  H    0.050364   0.121617
    32  H   -0.479902   0.648465
    33  H    0.140750   0.092376
    34  H    0.352683  -0.016591
    35  H   -0.059288   0.291933
    36  H    0.144785   0.149767
    37  H    0.182976   0.100932
 Sum of Mulliken charges =  -1.00000   1.00000

 Dipole moment (field-independent basis, Debye):
    X=             -1.5170    Y=             -0.1306    Z=              1.7203  Tot=              2.2973
 Quadrupole moment (field-independent basis, Debye-Ang):
   XX=           -216.8944   YY=           -149.1872   ZZ=           -155.4983
   XY=             15.2011   XZ=            -13.6472   YZ=             12.5455

 Summary of Natural Population Analysis:

                                       Natural Population
                Natural  -----------------------------------------------
    Atom  No    Charge         Core      Valence    Rydberg      Total
 -----------------------------------------------------------------------
      C    1   -0.28591      0.99963     2.28184    0.00444     3.28591
      C    2   -0.06574      0.99949     2.05755    0.00870     3.06574
      C    3   -0.14459      0.99947     2.13482    0.01030     3.14459
      S    4    0.20113      4.99943     2.77758    0.02185     7.79887
      C    5   -0.12600      0.99942     2.11545    0.01114     3.12600
      C    6   -0.06722      0.99945     2.05901    0.00876     3.06722
      C    7    0.35149      0.99958     1.62678    0.02215     2.64851
      O    8   -0.29965      0.99988     3.29448    0.00530     4.29965
      N    9   -0.32827      0.99967     2.81832    0.01028     3.82827
      C   10   -0.06551      0.99952     2.05175    0.01424     3.06551
      C   11   -0.19434      0.99960     2.18469    0.01005     3.19434
      C   12   -0.20365      0.99962     2.19540    0.00863     3.20365
      C   13   -0.09323      0.99961     2.08109    0.01253     3.09323
      N   14   -0.34118      0.99968     2.83121    0.01029     3.84118
      C   15    0.40112      0.99974     1.57547    0.02367     2.59888
      O   16   -0.33636      0.99987     3.33114    0.00535     4.33636
      N   17   -0.42135      0.99972     2.91331    0.00832     3.92135
      C   18    0.40815      0.99969     1.56534    0.02683     2.59185
      O   19   -0.31899      0.99986     3.31304    0.00608     4.31899
      O   20   -0.33768      0.99987     3.33170    0.00611     4.33768
      H   21    0.09817      0.00000     0.40078    0.00105     0.40183
      H   22    0.09865      0.00000     0.40027    0.00108     0.40135
      H   23    0.09709      0.00000     0.40199    0.00092     0.40291
      H   24    0.09844      0.00000     0.40062    0.00093     0.40156
      H   25    0.10666      0.00000     0.39224    0.00110     0.39334
      H   26    0.19139      0.00000     0.30526    0.00336     0.30861
      H   27    0.12933      0.00000     0.36886    0.00181     0.37067
      H   28    0.10724      0.00000     0.39168    0.00108     0.39276
      H   29    0.10899      0.00000     0.38991    0.00110     0.39101
      H   30    0.10569      0.00000     0.39310    0.00121     0.39431
      H   31    0.10380      0.00000     0.39473    0.00147     0.39620
      H   32    0.09618      0.00000     0.40237    0.00145     0.40382
      H   33    0.09592      0.00000     0.40247    0.00161     0.40408
      H   34    0.20705      0.00000     0.29064    0.00230     0.29295
      H   35    0.19051      0.00000     0.30674    0.00275     0.30949
      H   36    0.19258      0.00000     0.30581    0.00161     0.30742
      H   37    0.24007      0.00000     0.25650    0.00342     0.25993
 =======================================================================
   * Total *    0.00000     23.99281    54.74393    0.26326    79.00000

 Normal termination of Gaussian 16 at Sun Dec 13 15:17:52 2020.
