 Gaussian 16, Revision A.03,

 -----------------------------------------------------------
 # opt freq B3LYP/6-31G(d) empiricaldispersion=gd3bj scf=xqc
 -----------------------------------------------------------

 ------------------------------
 CID_12421914_JID_5126_neutraal
 ------------------------------
 Symbolic Z-matrix:
 Charge =  0 Multiplicity = 1

 SCF Done:  E(RB3LYP) =  -1316.26956527     A.U. after   15 cycles
 SCF Done:  E(RB3LYP) =  -1316.27632632     A.U. after   14 cycles
 SCF Done:  E(RB3LYP) =  -1316.27450517     A.U. after   14 cycles
 SCF Done:  E(RB3LYP) =  -1316.27667398     A.U. after   13 cycles
 SCF Done:  E(RB3LYP) =  -1316.27738315     A.U. after   13 cycles
 SCF Done:  E(RB3LYP) =  -1316.27764734     A.U. after   12 cycles
 SCF Done:  E(RB3LYP) =  -1316.27776330     A.U. after   13 cycles
 SCF Done:  E(RB3LYP) =  -1316.27785305     A.U. after   12 cycles
 SCF Done:  E(RB3LYP) =  -1316.27788586     A.U. after   12 cycles
 SCF Done:  E(RB3LYP) =  -1316.27789500     A.U. after   10 cycles
 SCF Done:  E(RB3LYP) =  -1316.27789661     A.U. after    9 cycles
 SCF Done:  E(RB3LYP) =  -1316.27789671     A.U. after    7 cycles
 Optimization completed.
    -- Stationary point found.
 Normal termination of Gaussian 16 at Thu Dec 10 14:47:23 2020.

 --------------------------------------------------------------------
 #N Geom=AllCheck Guess=TCheck SCRF=Check GenChk RB3LYP/6-31G(d) Freq
 --------------------------------------------------------------------

 Structure from the checkpoint file:  "JID_5126.chk"
 ------------------------------
 CID_12421914_JID_5126_neutraal
 ------------------------------
 Charge =  0 Multiplicity = 1

 SCF Done:  E(RB3LYP) =  -1316.27789671     A.U. after    1 cycles

  Exact polarizability: 191.390  25.696 129.343 -10.837   2.990 146.862
 Approx polarizability: 288.192  59.758 211.719 -38.098  -5.126 277.001

                      1                      2                      3
                      A                      A                      A
 Frequencies --     41.4176                42.8842                67.8738
 Red. masses --      6.3863                 6.3892                 6.9431
 Frc consts  --      0.0065                 0.0069                 0.0188
 IR Inten    --      0.3602                 0.1472                 0.1743

                      4                      5                      6
                      A                      A                      A
 Frequencies --     78.7629               113.4145               130.7954
 Red. masses --      3.7207                 3.6203                 6.0641
 Frc consts  --      0.0136                 0.0274                 0.0611
 IR Inten    --      0.5313                 0.9329                 0.1527

                      7                      8                      9
                      A                      A                      A
 Frequencies --    177.6024               230.6393               246.9596
 Red. masses --      4.0729                 2.4685                 4.9994
 Frc consts  --      0.0757                 0.0774                 0.1796
 IR Inten    --      0.1370                 0.5442                 1.2798

                     10                     11                     12
                      A                      A                      A
 Frequencies --    263.6526               343.2570               369.8690
 Red. masses --      4.6975                 5.1189                 2.9647
 Frc consts  --      0.1924                 0.3554                 0.2390
 IR Inten    --      0.4931                 2.5674                 2.0512

                     13                     14                     15
                      A                      A                      A
 Frequencies --    386.1074               412.6786               439.8885
 Red. masses --      1.1218                 3.1496                 4.3596
 Frc consts  --      0.0985                 0.3160                 0.4970
 IR Inten    --     11.8513                 0.8698                 2.8291

                     16                     17                     18
                      A                      A                      A
 Frequencies --    470.4259               518.0018               552.3193
 Red. masses --      4.9524                 5.7175                 3.0548
 Frc consts  --      0.6457                 0.9039                 0.5491
 IR Inten    --      5.9783                11.4836                 1.3723

                     19                     20                     21
                      A                      A                      A
 Frequencies --    598.1513               618.5760               630.4355
 Red. masses --      4.3304                 3.2106                 5.3886
 Frc consts  --      0.9129                 0.7238                 1.2618
 IR Inten    --     13.0030                 1.1172                 2.5292

                     22                     23                     24
                      A                      A                      A
 Frequencies --    636.5217               672.7684               709.6912
 Red. masses --      5.2090                 4.8987                 1.8076
 Frc consts  --      1.2435                 1.3064                 0.5364
 IR Inten    --      0.9101                 3.3298                21.6526

                     25                     26                     27
                      A                      A                      A
 Frequencies --    778.5252               830.6026               832.3891
 Red. masses --      2.0507                 1.6993                 4.8645
 Frc consts  --      0.7323                 0.6907                 1.9858
 IR Inten    --     37.7734                21.3371                13.2341

                     28                     29                     30
                      A                      A                      A
 Frequencies --    846.3422               850.2232               873.6579
 Red. masses --      1.2657                 2.3710                 3.0938
 Frc consts  --      0.5342                 1.0098                 1.3913
 IR Inten    --      1.8147                 7.7468                 0.4659

                     31                     32                     33
                      A                      A                      A
 Frequencies --    913.4130               916.5122               920.0690
 Red. masses --      1.8674                 1.8654                 1.3063
 Frc consts  --      0.9180                 0.9232                 0.6515
 IR Inten    --      5.6985                 4.9068                16.7411

                     34                     35                     36
                      A                      A                      A
 Frequencies --    959.9497               983.7149               984.7329
 Red. masses --      1.3332                 1.8488                 1.2782
 Frc consts  --      0.7238                 1.0541                 0.7303
 IR Inten    --      0.3556                25.2513                 5.5653

                     37                     38                     39
                      A                      A                      A
 Frequencies --   1003.6738              1020.3347              1046.1732
 Red. masses --      2.7854                 5.9994                 2.1365
 Frc consts  --      1.6532                 3.6800                 1.3777
 IR Inten    --     50.7811                 0.7423                 5.4507

                     40                     41                     42
                      A                      A                      A
 Frequencies --   1056.6272              1067.3619              1110.0030
 Red. masses --      2.1120                 1.9195                 1.5174
 Frc consts  --      1.3893                 1.2884                 1.1015
 IR Inten    --      3.2703                 7.7524                 6.7051

                     43                     44                     45
                      A                      A                      A
 Frequencies --   1170.0309              1174.2610              1187.9358
 Red. masses --      2.5965                 2.9774                 1.6558
 Frc consts  --      2.0943                 2.4189                 1.3767
 IR Inten    --     29.1095                72.3869                24.3865

                     46                     47                     48
                      A                      A                      A
 Frequencies --   1191.8826              1195.9452              1204.6775
 Red. masses --      1.1091                 1.5256                 1.1672
 Frc consts  --      0.9283                 1.2856                 0.9980
 IR Inten    --      0.1849                 9.1827                 0.2376

                     49                     50                     51
                      A                      A                      A
 Frequencies --   1258.9812              1270.1067              1279.1325
 Red. masses --      2.3150                 1.6007                 1.3257
 Frc consts  --      2.1619                 1.5214                 1.2780
 IR Inten    --     20.0922                 6.6933                 1.8086

                     52                     53                     54
                      A                      A                      A
 Frequencies --   1334.9217              1337.7567              1347.3029
 Red. masses --      1.5257                 2.0953                 1.5001
 Frc consts  --      1.6019                 2.2092                 1.6044
 IR Inten    --      0.6401                 2.7508                36.2729

                     55                     56                     57
                      A                      A                      A
 Frequencies --   1354.7863              1364.4721              1367.3091
 Red. masses --      1.4627                 2.2473                 1.3621
 Frc consts  --      1.5818                 2.4651                 1.5004
 IR Inten    --      4.2852                 0.3945                 3.3527

                     58                     59                     60
                      A                      A                      A
 Frequencies --   1494.2335              1498.9626              1519.3842
 Red. masses --      1.0980                 2.2460                 1.0799
 Frc consts  --      1.4444                 2.9733                 1.4688
 IR Inten    --      5.5192                 2.5758                 4.8002

                     61                     62                     63
                      A                      A                      A
 Frequencies --   1536.5200              1538.3638              1638.3446
 Red. masses --      1.1131                 2.1910                 5.6991
 Frc consts  --      1.5484                 3.0550                 9.0130
 IR Inten    --      8.7572                25.9823                 4.5245

                     64                     65                     66
                      A                      A                      A
 Frequencies --   1660.0512              1765.0935              2699.3281
 Red. masses --      5.6472                12.1692                 1.0381
 Frc consts  --      9.1691                22.3382                 4.4568
 IR Inten    --     28.2395               146.3867                 1.5842

                     67                     68                     69
                      A                      A                      A
 Frequencies --   3032.8510              3068.1454              3072.9360
 Red. masses --      1.0715                 1.0686                 1.0609
 Frc consts  --      5.8069                 5.9269                 5.9025
 IR Inten    --     12.2416                20.0998                21.3285

                     70                     71                     72
                      A                      A                      A
 Frequencies --   3117.8459              3126.1491              3131.9459
 Red. masses --      1.0998                 1.0908                 1.0919
 Frc consts  --      6.2992                 6.2806                 6.3104
 IR Inten    --     31.3736                 6.7510                11.0143

                     73                     74                     75
                      A                      A                      A
 Frequencies --   3133.4401              3184.1509              3190.7995
 Red. masses --      1.0974                 1.0848                 1.0880
 Frc consts  --      6.3484                 6.4802                 6.5263
 IR Inten    --     14.6359                 3.4069                 4.5705

                     76                     77                     78
                      A                      A                      A
 Frequencies --   3201.1263              3211.3637              3218.6398
 Red. masses --      1.0923                 1.0950                 1.0957
 Frc consts  --      6.5948                 6.6535                 6.6881
 IR Inten    --     24.2268                24.9604                 8.1646

 - Thermochemistry -
 -------------------
 Temperature   298.150 Kelvin.  Pressure   1.00000 Atm.
 Atom     1 has atomic number  6 and mass  12.00000

 Molecular mass:   235.04894 amu.
 Principal axes and moments of inertia in atomic units:
                           1         2         3
     Eigenvalues --  2372.643074358.237525115.16976
           X            0.99975   0.02075   0.00848
           Y           -0.02104   0.99917   0.03495
           Z           -0.00774  -0.03512   0.99935
 This molecule is an asymmetric top.
 Rotational symmetry number  1.
 Warning -- assumption of classical behavior for rotation
           may cause significant error
 Rotational temperatures (Kelvin)      0.03651     0.01987     0.01693
 Rotational constants (GHZ):           0.76065     0.41410     0.35282
 Zero-point vibrational energy     585130.5 (Joules/Mol)
                                  139.84954 (Kcal/Mol)
 Warning -- explicit consideration of  20 degrees of freedom as
           vibrations may cause significant error
 Vibrational temperatures:     59.59    61.70    97.66   113.32   163.18
          (Kelvin)            188.19   255.53   331.84   355.32   379.34
                              493.87   532.16   555.52   593.75   632.90
                              676.84   745.29   794.66   860.61   889.99
                              907.06   915.81   967.96  1021.09  1120.12
                             1195.05  1197.62  1217.70  1223.28  1257.00
                             1314.20  1318.66  1323.77  1381.15  1415.35
                             1416.81  1444.06  1468.03  1505.21  1520.25
                             1535.70  1597.05  1683.41  1689.50  1709.17
                             1714.85  1720.70  1733.26  1811.39  1827.40
                             1840.39  1920.65  1924.73  1938.47  1949.24
                             1963.17  1967.25  2149.87  2156.67  2186.05
                             2210.71  2213.36  2357.21  2388.44  2539.58
                             3883.73  4363.60  4414.38  4421.27  4485.88
                             4497.83  4506.17  4508.32  4581.28  4590.85
                             4605.71  4620.44  4630.90

 Zero-point correction=                           0.222864 (Hartree/Particle)
 Thermal correction to Energy=                    0.236606
 Thermal correction to Enthalpy=                  0.237550
 Thermal correction to Gibbs Free Energy=         0.181083
 Sum of electronic and zero-point Energies=          -1316.055032
 Sum of electronic and thermal Energies=             -1316.041290
 Sum of electronic and thermal Enthalpies=           -1316.040346
 Sum of electronic and thermal Free Energies=        -1316.096813

                     E (Thermal)             CV                S
                      KCal/Mol        Cal/Mol-Kelvin    Cal/Mol-Kelvin
 Total                  148.473             52.812            118.845
 Electronic               0.000              0.000              0.000
 Translational            0.889              2.981             42.265
 Rotational               0.889              2.981             32.336
 Vibrational            146.695             46.850             44.243
 Vibration     1          0.594              1.981              5.190
 Vibration     2          0.595              1.980              5.121
 Vibration     3          0.598              1.970              4.214
 Vibration     4          0.600              1.963              3.921
 Vibration     5          0.607              1.938              3.210
 Vibration     6          0.612              1.923              2.934
 Vibration     7          0.628              1.870              2.353
 Vibration     8          0.652              1.794              1.874
 Vibration     9          0.661              1.768              1.752
 Vibration    10          0.670              1.740              1.637
 Vibration    11          0.722              1.589              1.197
 Vibration    12          0.742              1.534              1.080
 Vibration    13          0.755              1.500              1.015
 Vibration    14          0.776              1.443              0.917
 Vibration    15          0.800              1.383              0.827
 Vibration    16          0.827              1.316              0.736
 Vibration    17          0.873              1.210              0.615
 Vibration    18          0.908              1.135              0.539
 Vibration    19          0.956              1.036              0.453
 Vibration    20          0.978              0.993              0.419

 Optimization completed.
    -- Stationary point found.
 Normal termination of Gaussian 16 at Thu Dec 10 14:56:40 2020.

 ----------------------------------------------------------------------
 # B3LYP/6-311++G(d,p) empiricaldispersion=gd3bj scf=xqc pop=npa geom=c
 heck
 ----------------------------------------------------------------------

 --------------------------------------
 CID_12421914_JID_5126_Energie_neutraal
 --------------------------------------
 Structure from the checkpoint file:  "JID_5126.chk"
 Charge =  0 Multiplicity = 1

 SCF Done:  E(RB3LYP) =  -1316.46750324     A.U. after   16 cycles
 Normal termination of Gaussian 16 at Thu Dec 10 15:00:34 2020.

 ----------------------------------------------------------------------
 # B3LYP/6-311++G(d,p) empiricaldispersion=gd3bj scf=xqc pop=npa geom=c
 heck
 ----------------------------------------------------------------------

 ------------------------------------
 CID_12421914_JID_5126_Energie_kation
 ------------------------------------
 Structure from the checkpoint file:  "JID_5126.chk"
 Charge =  1 Multiplicity = 2

 SCF Done:  E(UB3LYP) =  -1316.18146827     A.U. after   27 cycles
 Normal termination of Gaussian 16 at Thu Dec 10 15:10:02 2020.
 Gaussian 16:  ES64L-G16RevA.03 25-Dec-2016

 ----------------------------------------------------------------------
 # B3LYP/6-311++G(d,p) empiricaldispersion=gd3bj scf=xqc pop=npa geom=c
 heck
 ----------------------------------------------------------------------

 -----------------------------------
 CID_12421914_JID_5126_Energie_anion
 -----------------------------------
 Structure from the checkpoint file:  "JID_5126.chk"
 Charge = -1 Multiplicity = 2

                         Standard orientation:
 ---------------------------------------------------------------------
 Center     Atomic      Atomic             Coordinates (Angstroms)
 Number     Number       Type             X           Y           Z
 ---------------------------------------------------------------------
      1          6           0       -3.445873   -0.698498   -0.040193
      2          6           0       -2.730343    0.123911   -1.129171
      3          6           0       -1.204069   -0.037344   -0.851974
      4          6           0       -1.119713   -1.322117    0.010954
      5          7           0       -0.083072   -1.847005    0.523262
      6          6           0        1.184245   -1.264120    0.295919
      7          6           0        1.801492   -1.338267   -0.959266
      8          6           0        3.046854   -0.747495   -1.159859
      9          6           0        3.688473   -0.082007   -0.114269
     10          6           0        3.086792   -0.037420    1.145500
     11          6           0        1.849187   -0.638171    1.358169
     12          6           0       -2.511231   -1.894327    0.190241
     13          6           0       -0.592127    1.194200   -0.206974
     14         16           0        0.415072    2.212072   -1.001082
     15         16           0       -1.148356    1.451440    1.456666
     16          1           0       -3.536457   -0.109894    0.879618
     17          1           0       -4.455191   -0.993735   -0.341293
     18          1           0       -3.038266    1.172377   -1.148695
     19          1           0       -2.943364   -0.298398   -2.117546
     20          1           0       -0.655834   -0.184662   -1.783258
     21          1           0        1.296064   -1.854050   -1.770474
     22          1           0        3.511748   -0.798188   -2.140392
     23          1           0        4.653547    0.388527   -0.276331
     24          1           0        3.584159    0.469160    1.967953
     25          1           0        1.369295   -0.605546    2.330571
     26          1           0       -2.675192   -2.658782   -0.583407
     27          1           0       -2.615762   -2.384862    1.160869
     28          1           0       -0.502822    2.620815    1.635756
 ---------------------------------------------------------------------

 SCF Done:  E(UB3LYP) =  -1316.49011362     A.U. after   29 cycles

 The electronic state is 2-A.
 Alpha  occ. eigenvalues --  -88.70069 -88.62020 -14.18821 -10.10396 -10.08593
 Alpha  occ. eigenvalues --  -10.06587 -10.06091 -10.05785 -10.05678 -10.05301
 Alpha  occ. eigenvalues --  -10.05270 -10.05254 -10.04972 -10.04947 -10.04062
 Alpha  occ. eigenvalues --   -7.78795  -7.70789  -5.75154  -5.74743  -5.74286
 Alpha  occ. eigenvalues --   -5.67090  -5.66800  -5.66368  -0.82125  -0.73524
 Alpha  occ. eigenvalues --   -0.71311  -0.66157  -0.62853  -0.62534  -0.59491
 Alpha  occ. eigenvalues --   -0.56397  -0.53851  -0.49172  -0.48870  -0.46838
 Alpha  occ. eigenvalues --   -0.42945  -0.40670  -0.38501  -0.37054  -0.35157
 Alpha  occ. eigenvalues --   -0.34040  -0.32480  -0.30592  -0.30295  -0.29701
 Alpha  occ. eigenvalues --   -0.28177  -0.25954  -0.25749  -0.24741  -0.24266
 Alpha  occ. eigenvalues --   -0.23761  -0.23697  -0.23300  -0.20951  -0.18235
 Alpha  occ. eigenvalues --   -0.18005  -0.16792  -0.15338  -0.13478  -0.10185
 Alpha  occ. eigenvalues --   -0.08289  -0.04245   0.03862
 Alpha virt. eigenvalues --    0.07521   0.08486   0.08808   0.09598   0.10133
 Alpha virt. eigenvalues --    0.10455   0.10550   0.10791   0.11723   0.12556
 Alpha virt. eigenvalues --    0.12609   0.12951   0.13330   0.13558   0.14203

  Beta  occ. eigenvalues --  -88.70061 -88.61884 -14.18817 -10.10345 -10.08593
  Beta  occ. eigenvalues --  -10.06583 -10.06092 -10.05792 -10.05682 -10.05363
  Beta  occ. eigenvalues --  -10.05257 -10.05222 -10.04939 -10.04894 -10.03086
  Beta  occ. eigenvalues --   -7.78787  -7.70668  -5.75164  -5.74758  -5.74222
  Beta  occ. eigenvalues --   -5.67046  -5.66346  -5.66292  -0.82085  -0.73465
  Beta  occ. eigenvalues --   -0.71182  -0.65264  -0.62840  -0.62482  -0.59356
  Beta  occ. eigenvalues --   -0.56305  -0.53297  -0.49139  -0.48824  -0.46689
  Beta  occ. eigenvalues --   -0.42868  -0.40167  -0.38317  -0.37023  -0.34736
  Beta  occ. eigenvalues --   -0.34020  -0.32447  -0.30580  -0.30070  -0.29567
  Beta  occ. eigenvalues --   -0.28049  -0.25640  -0.25541  -0.24416  -0.24117
  Beta  occ. eigenvalues --   -0.23679  -0.23421  -0.23246  -0.20826  -0.17921
  Beta  occ. eigenvalues --   -0.17373  -0.15884  -0.14432  -0.13242  -0.10084
  Beta  occ. eigenvalues --   -0.06285  -0.03941
  Beta virt. eigenvalues --    0.07469   0.08409   0.08853   0.09554   0.10055
  Beta virt. eigenvalues --    0.10411   0.10457   0.10758   0.11361   0.11825
  Beta virt. eigenvalues --    0.12506   0.12827   0.13254   0.13497   0.13742

 Mulliken charges and spin densities:
               1          2
     1  C   -0.258594   0.022299
     2  C   -0.618708  -0.050220
     3  C    1.050677  -0.066220
     4  C   -0.696828  -0.037954
     5  N    0.072369   0.014786
     6  C   -0.348804  -0.007280
     7  C    0.106452   0.023579
     8  C   -0.269099  -0.031418
     9  C   -0.148338   0.007416
    10  C   -0.474222  -0.022918
    11  C    0.315043  -0.001020
    12  C   -0.346121  -0.021722
    13  C    0.158649   0.426337
    14  S   -0.810894   0.449292
    15  S   -0.365290   0.138182
    16  H    0.109953  -0.000305
    17  H    0.140384   0.002662
    18  H    0.176126   0.012390
    19  H    0.067059   0.043206
    20  H    0.200814  -0.003384
    21  H    0.143030   0.006485
    22  H    0.120923   0.013209
    23  H    0.106908   0.020879
    24  H    0.107811   0.024184
    25  H    0.126938   0.027672
    26  H    0.145105   0.004905
    27  H    0.144995   0.011672
    28  H    0.043660  -0.006714
 Sum of Mulliken charges =  -1.00000   1.00000

 Dipole moment (field-independent basis, Debye):
    X=             -1.3617    Y=             -4.9288    Z=              0.4396  Tot=              5.1323
 Quadrupole moment (field-independent basis, Debye-Ang):
   XX=           -122.3752   YY=           -136.7405   ZZ=           -116.7865
   XY=              4.5605   XZ=              2.5094   YZ=             10.4054

 Summary of Natural Population Analysis:

                                       Natural Population
                Natural  -----------------------------------------------
    Atom  No    Charge         Core      Valence    Rydberg      Total
 -----------------------------------------------------------------------
      C    1   -0.19423      0.99964     2.18896    0.00563     3.19423
      C    2   -0.17595      0.99963     2.16655    0.00977     3.17595
      C    3   -0.18400      0.99948     2.17150    0.01303     3.18400
      C    4    0.18982      0.99956     1.79396    0.01667     2.81018
      N    5   -0.24395      0.99959     2.73084    0.01352     3.74395
      C    6    0.07459      0.99945     1.91141    0.01455     2.92541
      C    7   -0.10844      0.99951     2.10085    0.00808     3.10844
      C    8   -0.09618      0.99957     2.08787    0.00874     3.09618
      C    9   -0.10631      0.99957     2.09759    0.00915     3.10631
      C   10   -0.09759      0.99957     2.08842    0.00960     3.09759
      C   11   -0.09994      0.99951     2.09138    0.00905     3.09994
      C   12   -0.21640      0.99959     2.20892    0.00788     3.21640
      C   13    0.01350      0.99962     1.96665    0.02023     2.98650
      S   14   -0.01738      4.99939     3.00053    0.01746     8.01738
      S   15   -0.01733      4.99943     3.00053    0.01737     8.01733
      H   16    0.10327      0.00000     0.39565    0.00109     0.39673
      H   17    0.09315      0.00000     0.40590    0.00096     0.40685
      H   18    0.10825      0.00000     0.39102    0.00073     0.39175
      H   19    0.09012      0.00000     0.40899    0.00089     0.40988
      H   20    0.12396      0.00000     0.37470    0.00134     0.37604
      H   21    0.09765      0.00000     0.40110    0.00125     0.40235
      H   22    0.09407      0.00000     0.40452    0.00142     0.40593
      H   23    0.09344      0.00000     0.40528    0.00127     0.40656
      H   24    0.09521      0.00000     0.40354    0.00124     0.40479
      H   25    0.10515      0.00000     0.39350    0.00135     0.39485
      H   26    0.10047      0.00000     0.39794    0.00159     0.39953
      H   27    0.10545      0.00000     0.39274    0.00181     0.39455
      H   28    0.06959      0.00000     0.42721    0.00320     0.43041
 =======================================================================
   * Total *    0.00000     22.99311    38.80803    0.19886    62.00000

 Normal termination of Gaussian 16 at Thu Dec 10 15:20:54 2020.
