 Gaussian 16, Revision A.03,

 -----------------------------------------------------------
 # opt freq B3LYP/6-31G(d) empiricaldispersion=gd3bj scf=xqc
 -----------------------------------------------------------

 ------------------------------
 CID_87162926_JID_1444_neutraal
 ------------------------------
 Symbolic Z-matrix:
 Charge =  0 Multiplicity = 1

 SCF Done:  E(RB3LYP) =  -538.987835263     A.U. after   15 cycles
 SCF Done:  E(RB3LYP) =  -538.990745430     A.U. after   12 cycles
 SCF Done:  E(RB3LYP) =  -538.991172492     A.U. after   12 cycles
 SCF Done:  E(RB3LYP) =  -538.991191800     A.U. after   11 cycles
 SCF Done:  E(RB3LYP) =  -538.991163035     A.U. after   12 cycles
 SCF Done:  E(RB3LYP) =  -538.991223731     A.U. after   11 cycles
 SCF Done:  E(RB3LYP) =  -538.991225054     A.U. after    9 cycles
 SCF Done:  E(RB3LYP) =  -538.991226319     A.U. after    7 cycles
 SCF Done:  E(RB3LYP) =  -538.991228089     A.U. after    9 cycles
 SCF Done:  E(RB3LYP) =  -538.991229909     A.U. after    9 cycles
 SCF Done:  E(RB3LYP) =  -538.991232238     A.U. after    9 cycles
 SCF Done:  E(RB3LYP) =  -538.991232919     A.U. after    9 cycles
 SCF Done:  E(RB3LYP) =  -538.991232957     A.U. after    7 cycles
 Optimization completed.
    -- Stationary point found.

 1\1\GINC-NODE200\FOpt\RB3LYP\6-31G(d)\C8H14O3\VSC10255\08-Dec-2020\0\\
 # opt freq B3LYP/6-31G(d) empiricaldispersion=gd3bj scf=xqc\\CID_87162
 926_JID_1444_neutraal\\0,1\C,0.8314084214,-0.0558690968,0.0896885622\C
 ,0.5698691963,0.3093287645,-1.3456931312\C,-0.0315727619,-0.467439972,
 -2.2633466536\C,-0.5642352514,-1.8546602547,-2.0492545493\C,-2.0555270
 02,-1.905069068,-1.6392111829\C,-2.9361584377,-1.0937759556,-2.5963479
 901\C,-2.5204702699,-3.3645130645,-1.5700003503\O,-2.0983983707,-1.325
 745193,-0.327251387\C,1.0441920753,1.6659329401,-1.7237391007\O,1.6121

 Normal termination of Gaussian 16 at Tue Dec  8 20:01:45 2020.

 --------------------------------------------------------------------
 #N Geom=AllCheck Guess=TCheck SCRF=Check GenChk RB3LYP/6-31G(d) Freq
 --------------------------------------------------------------------

 Structure from the checkpoint file:  "JID_1444.chk"
 ------------------------------
 CID_87162926_JID_1444_neutraal
 ------------------------------
 Charge =  0 Multiplicity = 1

 SCF Done:  E(RB3LYP) =  -538.991232957     A.U. after    1 cycles

  Exact polarizability: 123.701  -7.425  90.878   8.235  -3.776  71.932
 Approx polarizability: 162.424 -22.245 136.814  18.193 -13.390 107.735

                      1                      2                      3
                      A                      A                      A
 Frequencies --     41.7300                51.6798                62.2638
 Red. masses --      3.9438                 2.5755                 3.0503
 Frc consts  --      0.0040                 0.0041                 0.0070
 IR Inten    --      0.3294                 0.1117                 0.8876

                      4                      5                      6
                      A                      A                      A
 Frequencies --     76.1349               112.5633               211.1929
 Red. masses --      2.8971                 1.7800                 4.2426
 Frc consts  --      0.0099                 0.0133                 0.1115
 IR Inten    --      0.2363                 0.2693                 4.6758

                      7                      8                      9
                      A                      A                      A
 Frequencies --    242.9238               253.1321               265.0982
 Red. masses --      1.0922                 1.8822                 2.6976
 Frc consts  --      0.0380                 0.0711                 0.1117
 IR Inten    --      0.2023                 1.0135                 0.0789

                     10                     11                     12
                      A                      A                      A
 Frequencies --    278.6872               297.6988               323.6994
 Red. masses --      1.0728                 1.4298                 3.4654
 Frc consts  --      0.0491                 0.0747                 0.2139
 IR Inten    --     93.3331                 5.4984                 1.8260

                     13                     14                     15
                      A                      A                      A
 Frequencies --    362.1212               396.0159               424.0406
 Red. masses --      2.2937                 2.6985                 2.5041
 Frc consts  --      0.1772                 0.2493                 0.2653
 IR Inten    --      5.8346                 9.0303                 9.0833

                     16                     17                     18
                      A                      A                      A
 Frequencies --    447.0440               465.4918               500.9824
 Red. masses --      2.7755                 3.1682                 3.9260
 Frc consts  --      0.3268                 0.4045                 0.5806
 IR Inten    --     15.3333                 7.4815                 1.5801

                     19                     20                     21
                      A                      A                      A
 Frequencies --    584.4530               600.0850               625.4356
 Red. masses --      3.0557                 1.1945                 3.1152
 Frc consts  --      0.6150                 0.2534                 0.7180
 IR Inten    --      6.9896                73.9131                36.2154

                     22                     23                     24
                      A                      A                      A
 Frequencies --    734.1823               767.3266               783.6816
 Red. masses --      3.4515                 3.2843                 4.8871
 Frc consts  --      1.0961                 1.1393                 1.7684
 IR Inten    --     33.9257                13.5980                31.1367

                     25                     26                     27
                      A                      A                      A
 Frequencies --    898.9390               932.2483               933.1655
 Red. masses --      1.9393                 2.2186                 1.7216
 Frc consts  --      0.9233                 1.1360                 0.8833
 IR Inten    --      1.0036                22.9128                13.3708

                     28                     29                     30
                      A                      A                      A
 Frequencies --    959.4459               982.2252              1000.8344
 Red. masses --      1.5509                 2.0686                 1.6374
 Frc consts  --      0.8411                 1.1759                 0.9664
 IR Inten    --      4.0264                10.8990                 1.2285

                     31                     32                     33
                      A                      A                      A
 Frequencies --   1032.6419              1081.3183              1104.8237
 Red. masses --      1.4263                 1.4373                 2.2621
 Frc consts  --      0.8961                 0.9901                 1.6269
 IR Inten    --      3.4262                 0.2582                58.6434

                     34                     35                     36
                      A                      A                      A
 Frequencies --   1136.4303              1164.0416              1181.2622
 Red. masses --      2.1380                 1.6591                 1.7518
 Frc consts  --      1.6268                 1.3245                 1.4402
 IR Inten    --    105.0742                36.9422                88.5886

                     37                     38                     39
                      A                      A                      A
 Frequencies --   1211.9241              1236.6330              1313.6295
 Red. masses --      2.5964                 1.8752                 1.5274
 Frc consts  --      2.2469                 1.6895                 1.5529
 IR Inten    --     22.8232               100.8690                 6.4189

                     40                     41                     42
                      A                      A                      A
 Frequencies --   1354.4811              1387.4320              1393.8909
 Red. masses --      1.4665                 1.7658                 1.9167
 Frc consts  --      1.5851                 2.0027                 2.1941
 IR Inten    --      8.2343                70.9437                36.8224

                     43                     44                     45
                      A                      A                      A
 Frequencies --   1416.6026              1427.0713              1443.9802
 Red. masses --      1.5735                 1.3005                 1.2481
 Frc consts  --      1.8604                 1.5604                 1.5333
 IR Inten    --     27.3967                15.9875                 8.2937

                     46                     47                     48
                      A                      A                      A
 Frequencies --   1455.4599              1500.8974              1504.2378
 Red. masses --      1.4386                 1.0504                 1.0872
 Frc consts  --      1.7955                 1.3941                 1.4494
 IR Inten    --     11.8853                 9.3007                 1.2483

                     49                     50                     51
                      A                      A                      A
 Frequencies --   1513.6214              1515.5948              1527.6976
 Red. masses --      1.0511                 1.0533                 1.0742
 Frc consts  --      1.4189                 1.4255                 1.4771
 IR Inten    --      1.1922                 0.9306                 4.7029

                     52                     53                     54
                      A                      A                      A
 Frequencies --   1530.6791              1540.4572              1729.2673
 Red. masses --      1.0653                 1.0646                 6.7627
 Frc consts  --      1.4706                 1.4885                11.9151
 IR Inten    --      1.0792                 7.9741                10.8940

                     55                     56                     57
                      A                      A                      A
 Frequencies --   1812.8940              3041.2944              3046.4271
 Red. masses --      9.3726                 1.0378                 1.0390
 Frc consts  --     18.1491                 5.6554                 5.6815
 IR Inten    --    349.3504                12.8381                29.3805

                     58                     59                     60
                      A                      A                      A
 Frequencies --   3059.9733              3064.4243              3103.5682
 Red. masses --      1.0601                 1.0429                 1.1001
 Frc consts  --      5.8484                 5.7704                 6.2429
 IR Inten    --     32.1669                12.5436                 2.6352

                     61                     62                     63
                      A                      A                      A
 Frequencies --   3107.8306              3111.6803              3114.9741
 Red. masses --      1.1003                 1.0998                 1.0987
 Frc consts  --      6.2612                 6.2741                 6.2812
 IR Inten    --     13.8940                47.6547                15.7843

                     64                     65                     66
                      A                      A                      A
 Frequencies --   3130.7161              3140.2748              3184.3316
 Red. masses --      1.1027                 1.1014                 1.0979
 Frc consts  --      6.3676                 6.3995                 6.5594
 IR Inten    --     27.0879                24.5247                 9.9677

                     67                     68                     69
                      A                      A                      A
 Frequencies --   3200.3216              3703.4196              3735.2165
 Red. masses --      1.0886                 1.0642                 1.0660
 Frc consts  --      6.5690                 8.5998                 8.7624
 IR Inten    --      4.2359                61.4841                 7.6315

 - Thermochemistry -
 -------------------
 Temperature   298.150 Kelvin.  Pressure   1.00000 Atm.
 Atom     1 has atomic number  6 and mass  12.00000

 Molecular mass:   158.09429 amu.
 Principal axes and moments of inertia in atomic units:
                           1         2         3
     Eigenvalues --   821.484763246.450063587.93046
           X            0.99995  -0.00975   0.00049
           Y            0.00973   0.99945   0.03161
           Z           -0.00080  -0.03160   0.99950
 This molecule is an asymmetric top.
 Rotational symmetry number  1.
 Warning -- assumption of classical behavior for rotation
           may cause significant error
 Rotational temperatures (Kelvin)      0.10544     0.02668     0.02414
 Rotational constants (GHZ):           2.19693     0.55591     0.50300
 Zero-point vibrational energy     561502.8 (Joules/Mol)
                                  134.20240 (Kcal/Mol)
 Warning -- explicit consideration of  20 degrees of freedom as
           vibrations may cause significant error
 Vibrational temperatures:     60.04    74.36    89.58   109.54   161.95
          (Kelvin)            303.86   349.51   364.20   381.42   400.97
                              428.32   465.73   521.01   569.78   610.10
                              643.20   669.74   720.80   840.90   863.39
                              899.86  1056.32  1104.01  1127.54  1293.37
                             1341.30  1342.62  1380.43  1413.20  1439.98
                             1485.74  1555.78  1589.59  1635.07  1674.80
                             1699.57  1743.69  1779.24  1890.02  1948.80
                             1996.21  2005.50  2038.18  2053.24  2077.57
                             2094.08  2159.46  2164.26  2177.76  2180.60
                             2198.02  2202.31  2216.37  2488.03  2608.35
                             4375.74  4383.13  4402.62  4409.02  4465.34
                             4471.48  4477.01  4481.75  4504.40  4518.16
                             4581.54  4604.55  5328.39  5374.14

 Zero-point correction=                           0.213865 (Hartree/Particle)
 Thermal correction to Energy=                    0.226905
 Thermal correction to Enthalpy=                  0.227849
 Thermal correction to Gibbs Free Energy=         0.174041
 Sum of electronic and zero-point Energies=           -538.777368
 Sum of electronic and thermal Energies=              -538.764328
 Sum of electronic and thermal Enthalpies=            -538.763383
 Sum of electronic and thermal Free Energies=         -538.817192

                     E (Thermal)             CV                S
                      KCal/Mol        Cal/Mol-Kelvin    Cal/Mol-Kelvin
 Total                  142.385             47.532            113.249
 Electronic               0.000              0.000              0.000
 Translational            0.889              2.981             41.083
 Rotational               0.889              2.981             30.638
 Vibrational            140.608             41.571             41.528
 Vibration     1          0.594              1.981              5.175
 Vibration     2          0.596              1.977              4.752
 Vibration     3          0.597              1.972              4.384
 Vibration     4          0.599              1.965              3.988
 Vibration     5          0.607              1.939              3.224
 Vibration     6          0.643              1.824              2.033
 Vibration     7          0.659              1.774              1.781
 Vibration     8          0.664              1.758              1.709
 Vibration     9          0.671              1.737              1.628
 Vibration    10          0.679              1.713              1.542
 Vibration    11          0.691              1.678              1.430
 Vibration    12          0.708              1.628              1.291
 Vibration    13          0.736              1.550              1.113
 Vibration    14          0.763              1.479              0.977
 Vibration    15          0.786              1.418              0.878
 Vibration    16          0.806              1.367              0.805
 Vibration    17          0.823              1.327              0.750
 Vibration    18          0.856              1.248              0.656
 Vibration    19          0.941              1.065              0.477
 Vibration    20          0.958              1.032              0.450

 Optimization completed.
    -- Stationary point found.

 1\1\GINC-NODE200\Freq\RB3LYP\6-31G(d)\C8H14O3\VSC10255\08-Dec-2020\0\\
 #N Geom=AllCheck Guess=TCheck SCRF=Check GenChk RB3LYP/6-31G(d) Freq\\
 CID_87162926_JID_1444_neutraal\\0,1\C,0.8314084214,-0.0558690968,0.089
 6885622\C,0.5698691963,0.3093287645,-1.3456931312\C,-0.0315727619,-0.4
 67439972,-2.2633466536\C,-0.5642352514,-1.8546602547,-2.0492545493\C,-
 2.055527002,-1.905069068,-1.6392111829\C,-2.9361584377,-1.0937759556,-
 2.5963479901\C,-2.5204702699,-3.3645130645,-1.5700003503\O,-2.09839837
 07,-1.325745193,-0.327251387\C,1.0441920753,1.6659329401,-1.7237391007

 Normal termination of Gaussian 16 at Tue Dec  8 20:06:32 2020.

 ----------------------------------------------------------------------
 # B3LYP/6-311++G(d,p) empiricaldispersion=gd3bj scf=xqc pop=npa geom=c
 heck
 ----------------------------------------------------------------------

 --------------------------------------
 CID_87162926_JID_1444_Energie_neutraal
 --------------------------------------
 Structure from the checkpoint file:  "JID_1444.chk"
 Charge =  0 Multiplicity = 1

 SCF Done:  E(RB3LYP) =  -539.167932157     A.U. after   15 cycles
 Normal termination of Gaussian 16 at Tue Dec  8 20:08:47 2020.

 ----------------------------------------------------------------------
 # B3LYP/6-311++G(d,p) empiricaldispersion=gd3bj scf=xqc pop=npa geom=c
 heck
 ----------------------------------------------------------------------

 ------------------------------------
 CID_87162926_JID_1444_Energie_kation
 ------------------------------------
 Structure from the checkpoint file:  "JID_1444.chk"
 Charge =  1 Multiplicity = 2

 SCF Done:  E(UB3LYP) =  -538.832524262     A.U. after   27 cycles
 Normal termination of Gaussian 16 at Tue Dec  8 20:15:16 2020.
 Gaussian 16:  ES64L-G16RevA.03 25-Dec-2016

 -----------------------------------
 CID_87162926_JID_1444_Energie_anion
 -----------------------------------
 Structure from the checkpoint file:  "JID_1444.chk"
 Charge = -1 Multiplicity = 2

                         Standard orientation:
 ---------------------------------------------------------------------
 Center     Atomic      Atomic             Coordinates (Angstroms)
 Number     Number       Type             X           Y           Z
 ---------------------------------------------------------------------
      1          6           0        1.179683   -1.853867   -0.080912
      2          6           0        1.272964   -0.364757   -0.270504
      3          6           0        0.286760    0.442165   -0.698836
      4          6           0       -1.106079    0.028302   -1.076544
      5          6           0       -2.124689    0.094500    0.086504
      6          6           0       -2.101248    1.458325    0.785968
      7          6           0       -3.528073   -0.227656   -0.440440
      8          8           0       -1.709309   -0.930103    1.001022
      9          6           0        2.603309    0.208010    0.061755
     10          8           0        3.554887   -0.449244    0.439229
     11          8           0        2.693513    1.559773   -0.087273
     12          1           0        0.172583   -2.223727   -0.268481
     13          1           0        1.447782   -2.116735    0.947594
     14          1           0        1.893292   -2.372647   -0.731229
     15          1           0        0.505376    1.503683   -0.771146
     16          1           0       -1.468336    0.684707   -1.876865
     17          1           0       -1.122795   -0.994809   -1.464491
     18          1           0       -2.335132    2.270051    0.087787
     19          1           0       -2.847928    1.488057    1.589862
     20          1           0       -1.117165    1.644907    1.224717
     21          1           0       -3.535943   -1.209724   -0.923893
     22          1           0       -4.251061   -0.247682    0.384762
     23          1           0       -3.867998    0.522591   -1.163136
     24          1           0       -2.290578   -0.881394    1.776324
     25          1           0        3.609422    1.779184    0.162426
 ---------------------------------------------------------------------

 SCF Done:  E(UB3LYP) =  -539.161345548     A.U. after   31 cycles

 The electronic state is 2-A.
 Alpha  occ. eigenvalues --  -19.03950 -19.00141 -18.97159 -10.15519 -10.11316
 Alpha  occ. eigenvalues --  -10.04893 -10.04536 -10.04311 -10.04151 -10.03716
 Alpha  occ. eigenvalues --  -10.03530  -0.97580  -0.90642  -0.88240  -0.69498
 Alpha  occ. eigenvalues --   -0.66341  -0.59633  -0.57725  -0.55632  -0.49988
 Alpha  occ. eigenvalues --   -0.45525  -0.41671  -0.38286  -0.36465  -0.35582
 Alpha  occ. eigenvalues --   -0.34028  -0.32553  -0.32212  -0.29970  -0.28882
 Alpha  occ. eigenvalues --   -0.28503  -0.27846  -0.26691  -0.26371  -0.24696
 Alpha  occ. eigenvalues --   -0.24286  -0.23663  -0.21721  -0.20961  -0.19776
 Alpha  occ. eigenvalues --   -0.16024  -0.14799  -0.12998   0.04819
 Alpha virt. eigenvalues --    0.06874   0.08481   0.08813   0.09374   0.10023
 Alpha virt. eigenvalues --    0.11065   0.11673   0.11946   0.12451   0.13565
 Alpha virt. eigenvalues --    0.14382   0.15089   0.15211   0.15960   0.16842

  Beta  occ. eigenvalues --  -19.03928 -19.00112 -18.96987 -10.15329 -10.11284
  Beta  occ. eigenvalues --  -10.04906 -10.04499 -10.04262 -10.04100 -10.03530
  Beta  occ. eigenvalues --  -10.03458  -0.97407  -0.90573  -0.87997  -0.69247
  Beta  occ. eigenvalues --   -0.66185  -0.59439  -0.57623  -0.55482  -0.49649
  Beta  occ. eigenvalues --   -0.45429  -0.41431  -0.38170  -0.36359  -0.35354
  Beta  occ. eigenvalues --   -0.33884  -0.32307  -0.31641  -0.29909  -0.28777
  Beta  occ. eigenvalues --   -0.28421  -0.27725  -0.26609  -0.26289  -0.24609
  Beta  occ. eigenvalues --   -0.24212  -0.23545  -0.21610  -0.20807  -0.19130
  Beta  occ. eigenvalues --   -0.15972  -0.14636  -0.11979
  Beta virt. eigenvalues --    0.07559   0.08510   0.09344   0.09678   0.09815
  Beta virt. eigenvalues --    0.10237   0.11445   0.11939   0.12261   0.12857
  Beta virt. eigenvalues --    0.13617   0.14522   0.15103   0.15376   0.16045

 Mulliken charges and spin densities:
               1          2
     1  C   -0.676572  -0.022486
     2  C   -0.140649   0.290002
     3  C    0.223547   0.617898
     4  C    0.700261  -1.624080
     5  C   -2.014626   2.213337
     6  C    1.265917  -1.979347
     7  C    1.017303  -1.528418
     8  O   -0.155984   0.008973
     9  C   -0.128653   0.062024
    10  O   -0.380438   0.060047
    11  O   -0.223406   0.010862
    12  H    0.071669   0.069247
    13  H    0.120970   0.036590
    14  H    0.142779   0.002415
    15  H    0.237825  -0.002961
    16  H   -0.204753   0.380231
    17  H    0.278341  -0.124450
    18  H   -0.178818   0.324328
    19  H   -0.455829   0.587149
    20  H    0.061662   0.116708
    21  H   -0.201925   0.355498
    22  H   -0.328089   0.458816
    23  H   -0.340003   0.484440
    24  H    0.056785   0.189684
    25  H    0.252687   0.013494
 Sum of Mulliken charges =  -1.00000   1.00000

 Dipole moment (field-independent basis, Debye):
    X=              3.6052    Y=              0.0302    Z=             -0.8819  Tot=              3.7116
 Quadrupole moment (field-independent basis, Debye-Ang):
   XX=           -132.5166   YY=            -90.8112   ZZ=            -89.9399
   XY=             11.0217   XZ=             -1.3767   YZ=              2.1955

 Summary of Natural Population Analysis:

                                       Natural Population
                Natural  -----------------------------------------------
    Atom  No    Charge         Core      Valence    Rydberg      Total
 -----------------------------------------------------------------------
      C    1   -0.29448      0.99964     2.28934    0.00550     3.29448
      C    2   -0.06875      0.99943     2.06043    0.00889     3.06875
      C    3   -0.00862      0.99949     1.99848    0.01065     3.00862
      C    4   -0.21876      0.99957     2.20745    0.01175     3.21876
      C    5    0.13385      0.99955     1.85184    0.01475     2.86615
      C    6   -0.29980      0.99961     2.29316    0.00702     3.29980
      C    7   -0.29377      0.99961     2.28695    0.00721     3.29377
      O    8   -0.37799      0.99989     3.37100    0.00710     4.37799
      C    9    0.41270      0.99964     1.56290    0.02476     2.58730
      O   10   -0.31369      0.99987     3.30788    0.00594     4.31369
      O   11   -0.35477      0.99988     3.34859    0.00630     4.35477
      H   12    0.10530      0.00000     0.39379    0.00091     0.39470
      H   13    0.10590      0.00000     0.39281    0.00129     0.39410
      H   14    0.09747      0.00000     0.40133    0.00119     0.40253
      H   15    0.09804      0.00000     0.40026    0.00170     0.40196
      H   16    0.10557      0.00000     0.39334    0.00109     0.39443
      H   17    0.10445      0.00000     0.39449    0.00106     0.39555
      H   18    0.10236      0.00000     0.39635    0.00129     0.39764
      H   19    0.09755      0.00000     0.40094    0.00151     0.40245
      H   20    0.10796      0.00000     0.39104    0.00100     0.39204
      H   21    0.10099      0.00000     0.39778    0.00124     0.39901
      H   22    0.09767      0.00000     0.40091    0.00143     0.40233
      H   23    0.10223      0.00000     0.39593    0.00184     0.39777
      H   24    0.22703      0.00000     0.26982    0.00315     0.27297
      H   25    0.23157      0.00000     0.26423    0.00421     0.26843
 =======================================================================
   * Total *   -0.00000     10.99618    31.87103    0.13279    43.00000

 Normal termination of Gaussian 16 at Tue Dec  8 20:23:09 2020.
