 Gaussian 16, Revision A.03,

 -----------------------------------------------------------
 # opt freq B3LYP/6-31G(d) empiricaldispersion=gd3bj scf=xqc
 -----------------------------------------------------------

 ------------------------------
 CID_130128682_JID_309_neutraal
 ------------------------------
 Symbolic Z-matrix:
 Charge =  0 Multiplicity = 1

 SCF Done:  E(RB3LYP) =  -462.406624332     A.U. after   14 cycles
 SCF Done:  E(RB3LYP) =  -462.425852973     A.U. after   13 cycles
 SCF Done:  E(RB3LYP) =  -462.427805908     A.U. after   13 cycles
 SCF Done:  E(RB3LYP) =  -462.427180838     A.U. after   13 cycles
 SCF Done:  E(RB3LYP) =  -462.428254639     A.U. after   12 cycles
 SCF Done:  E(RB3LYP) =  -462.428242539     A.U. after   12 cycles
 SCF Done:  E(RB3LYP) =  -462.428491562     A.U. after   11 cycles
 SCF Done:  E(RB3LYP) =  -462.428133149     A.U. after   12 cycles
 SCF Done:  E(RB3LYP) =  -462.428536986     A.U. after   11 cycles
 SCF Done:  E(RB3LYP) =  -462.428551605     A.U. after   10 cycles
 SCF Done:  E(RB3LYP) =  -462.428555216     A.U. after   10 cycles
 SCF Done:  E(RB3LYP) =  -462.428557774     A.U. after   10 cycles
 SCF Done:  E(RB3LYP) =  -462.428558807     A.U. after    9 cycles
 SCF Done:  E(RB3LYP) =  -462.428559006     A.U. after    8 cycles
 Optimization completed.
    -- Stationary point found.

 1\1\GINC-NODE105\FOpt\RB3LYP\6-31G(d)\C8H12O2\VSC10255\08-Dec-2020\0\\
 # opt freq B3LYP/6-31G(d) empiricaldispersion=gd3bj scf=xqc\\CID_13012
 8682_JID_309_neutraal\\0,1\C,1.008174728,-0.0685732639,0.029858588\C,0
 .5291089853,-1.4349243173,-0.4993905064\C,1.1067419077,-2.5246345047,0
 .3925787325\C,0.436535846,-3.2778062283,1.2656450128\C,-0.9406921043,-
 1.4616774937,-0.5294927921\C,-2.1472581162,-1.471389809,-0.5412972391\
 O,1.1108996082,-1.5222274951,-1.8109901085\C,0.5482691163,-2.401631402
 ,-2.7880806878\C,0.889966144,-3.8824305382,-2.6243689768\O,0.033856214

 Normal termination of Gaussian 16 at Tue Dec  8 10:24:22 2020.

 --------------------------------------------------------------------
 #N Geom=AllCheck Guess=TCheck SCRF=Check GenChk RB3LYP/6-31G(d) Freq
 --------------------------------------------------------------------

 Structure from the checkpoint file:  "JID_309.chk"
 ------------------------------
 CID_130128682_JID_309_neutraal
 ------------------------------
 Charge =  0 Multiplicity = 1

 SCF Done:  E(RB3LYP) =  -462.428559006     A.U. after    1 cycles

  Exact polarizability:  79.478  -4.652  86.813  -2.975   3.388  91.988
 Approx polarizability:  99.157  -7.640 126.117  -4.965  15.947 147.370

                      1                      2                      3
                      A                      A                      A
 Frequencies --     35.1695                88.4684               120.0624
 Red. masses --      4.9375                 2.9186                 2.5714
 Frc consts  --      0.0036                 0.0135                 0.0218
 IR Inten    --      1.5370                 1.8347                 0.4521

                      4                      5                      6
                      A                      A                      A
 Frequencies --    144.3432               162.8329               169.7347
 Red. masses --      3.9505                 3.5321                 4.6946
 Frc consts  --      0.0485                 0.0552                 0.0797
 IR Inten    --      0.4933                 0.6522                 0.7816

                      7                      8                      9
                      A                      A                      A
 Frequencies --    249.8654               266.0693               302.1725
 Red. masses --      1.4419                 1.7487                 2.5128
 Frc consts  --      0.0530                 0.0729                 0.1352
 IR Inten    --      1.2513                 1.1559                 0.9414

                     10                     11                     12
                      A                      A                      A
 Frequencies --    325.7512               363.3343               402.3938
 Red. masses --      1.8652                 2.8582                 2.8354
 Frc consts  --      0.1166                 0.2223                 0.2705
 IR Inten    --      4.7951                 7.0139                 3.6230

                     13                     14                     15
                      A                      A                      A
 Frequencies --    453.2039               462.0510               511.1468
 Red. masses --      2.4673                 1.5883                 2.1739
 Frc consts  --      0.2986                 0.1998                 0.3346
 IR Inten    --     15.2007                99.7444                 2.3702

                     16                     17                     18
                      A                      A                      A
 Frequencies --    565.9176               602.2449               617.1321
 Red. masses --      3.0040                 4.4679                 1.2180
 Frc consts  --      0.5668                 0.9548                 0.2733
 IR Inten    --      5.4144                 2.4295                40.8892

                     19                     20                     21
                      A                      A                      A
 Frequencies --    657.7044               668.2493               715.3030
 Red. masses --      1.2351                 4.0831                 1.9945
 Frc consts  --      0.3148                 1.0743                 0.6013
 IR Inten    --     35.9345                 1.5103                15.6438

                     22                     23                     24
                      A                      A                      A
 Frequencies --    822.4412               917.1718               934.9184
 Red. masses --      2.4997                 2.5353                 1.7324
 Frc consts  --      0.9962                 1.2566                 0.8922
 IR Inten    --      0.8176                30.5170                15.9791

                     25                     26                     27
                      A                      A                      A
 Frequencies --    947.3633               963.2319              1042.9793
 Red. masses --      1.8674                 1.3820                 1.1121
 Frc consts  --      0.9875                 0.7555                 0.7128
 IR Inten    --     12.1941                24.4538                27.1924

                     28                     29                     30
                      A                      A                      A
 Frequencies --   1061.2608              1083.8723              1098.7100
 Red. masses --      1.3013                 2.7110                 3.4853
 Frc consts  --      0.8635                 1.8764                 2.4789
 IR Inten    --      8.7483                27.4500                27.0505

                     31                     32                     33
                      A                      A                      A
 Frequencies --   1119.0967              1137.7651              1169.9415
 Red. masses --      3.2671                 4.5779                 2.4259
 Frc consts  --      2.4108                 3.4916                 1.9564
 IR Inten    --     41.4439               186.1395                22.0853

                     34                     35                     36
                      A                      A                      A
 Frequencies --   1242.8113              1267.0269              1330.4219
 Red. masses --      1.1345                 3.1628                 1.2377
 Frc consts  --      1.0324                 2.9916                 1.2907
 IR Inten    --      9.0209                25.5513                 2.2200

                     37                     38                     39
                      A                      A                      A
 Frequencies --   1336.1998              1415.6463              1423.5045
 Red. masses --      1.2197                 1.2526                 1.2250
 Frc consts  --      1.2831                 1.4790                 1.4625
 IR Inten    --     13.3641                 4.8390                 2.2331

                     40                     41                     42
                      A                      A                      A
 Frequencies --   1426.0815              1449.8163              1459.7192
 Red. masses --      1.2588                 1.2296                 1.1939
 Frc consts  --      1.5084                 1.5228                 1.4988
 IR Inten    --     23.2359                13.4810                10.8082

                     43                     44                     45
                      A                      A                      A
 Frequencies --   1504.5257              1510.7785              1515.3666
 Red. masses --      1.0844                 1.0544                 1.0938
 Frc consts  --      1.4462                 1.4180                 1.4799
 IR Inten    --      2.5111                 1.5994                 1.4593

                     46                     47                     48
                      A                      A                      A
 Frequencies --   1519.9968              1714.1816              2237.1049
 Red. masses --      1.0489                 4.5711                 5.9318
 Frc consts  --      1.4278                 7.9138                17.4907
 IR Inten    --      2.1107                 5.6994                 3.1806

                     49                     50                     51
                      A                      A                      A
 Frequencies --   2998.5622              3053.7928              3070.3078
 Red. masses --      1.0688                 1.0594                 1.0332
 Frc consts  --      5.6620                 5.8207                 5.7384
 IR Inten    --     51.3070                23.0658                13.9565

                     52                     53                     54
                      A                      A                      A
 Frequencies --   3084.3869              3105.3675              3149.1208
 Red. masses --      1.0939                 1.1071                 1.1032
 Frc consts  --      6.1312                 6.2901                 6.4461
 IR Inten    --     62.8697                30.1481                14.8671

                     55                     56                     57
                      A                      A                      A
 Frequencies --   3159.9063              3164.3662              3176.5099
 Red. masses --      1.1047                 1.0627                 1.0869
 Frc consts  --      6.4990                 6.2698                 6.4614
 IR Inten    --     13.6932                 6.7788                 6.2914

                     58                     59                     60
                      A                      A                      A
 Frequencies --   3252.1394              3494.7072              3705.3740
 Red. masses --      1.1167                 1.1612                 1.0654
 Frc consts  --      6.9584                 8.3555                 8.6186
 IR Inten    --      6.8052                54.5783               167.3056

 - Thermochemistry -
 -------------------
 Temperature   298.150 Kelvin.  Pressure   1.00000 Atm.
 Atom     1 has atomic number  6 and mass  12.00000

 Molecular mass:   140.08373 amu.
 Principal axes and moments of inertia in atomic units:
                           1         2         3
     Eigenvalues --  1141.156341653.784291772.77263
           X            0.99975  -0.02046   0.00850
           Y            0.02079   0.99897  -0.04040
           Z           -0.00767   0.04057   0.99915
 This molecule is an asymmetric top.
 Rotational symmetry number  1.
 Warning -- assumption of classical behavior for rotation
           may cause significant error
 Rotational temperatures (Kelvin)      0.07590     0.05237     0.04886
 Rotational constants (GHZ):           1.58150     1.09128     1.01803
 Zero-point vibrational energy     484186.3 (Joules/Mol)
                                  115.72330 (Kcal/Mol)
 Warning -- explicit consideration of  18 degrees of freedom as
           vibrations may cause significant error
 Vibrational temperatures:     50.60   127.29   172.74   207.68   234.28
          (Kelvin)            244.21   359.50   382.81   434.76   468.68
                              522.76   578.95   652.06   664.79   735.43
                              814.23   866.50   887.92   946.29   961.46
                             1029.16  1183.31  1319.61  1345.14  1363.04
                             1385.88  1500.61  1526.92  1559.45  1580.80
                             1610.13  1636.99  1683.28  1788.13  1822.97
                             1914.18  1922.49  2036.80  2048.11  2051.81
                             2085.96  2100.21  2164.68  2173.67  2180.27
                             2186.94  2466.32  3218.69  4314.26  4393.73
                             4417.49  4437.74  4467.93  4530.88  4546.40
                             4552.82  4570.29  4679.10  5028.10  5331.21

 Zero-point correction=                           0.184417 (Hartree/Particle)
 Thermal correction to Energy=                    0.195981
 Thermal correction to Enthalpy=                  0.196925
 Thermal correction to Gibbs Free Energy=         0.147359
 Sum of electronic and zero-point Energies=           -462.244142
 Sum of electronic and thermal Energies=              -462.232578
 Sum of electronic and thermal Enthalpies=            -462.231634
 Sum of electronic and thermal Free Energies=         -462.281200

                     E (Thermal)             CV                S
                      KCal/Mol        Cal/Mol-Kelvin    Cal/Mol-Kelvin
 Total                  122.980             42.730            104.321
 Electronic               0.000              0.000              0.000
 Translational            0.889              2.981             40.723
 Rotational               0.889              2.981             29.594
 Vibrational            121.203             36.769             34.005
 Vibration     1          0.594              1.982              5.514
 Vibration     2          0.601              1.957              3.694
 Vibration     3          0.609              1.933              3.099
 Vibration     4          0.616              1.909              2.745
 Vibration     5          0.623              1.888              2.517
 Vibration     6          0.625              1.880              2.438
 Vibration     7          0.663              1.763              1.732
 Vibration     8          0.672              1.735              1.622
 Vibration     9          0.694              1.670              1.405
 Vibration    10          0.710              1.624              1.281
 Vibration    11          0.737              1.548              1.108
 Vibration    12          0.768              1.465              0.954
 Vibration    13          0.812              1.354              0.786
 Vibration    14          0.820              1.334              0.760
 Vibration    15          0.866              1.225              0.631
 Vibration    16          0.922              1.105              0.512
 Vibration    17          0.961              1.027              0.446
 Vibration    18          0.977              0.996              0.421

 Optimization completed.
    -- Stationary point found.

 1\1\GINC-NODE105\Freq\RB3LYP\6-31G(d)\C8H12O2\VSC10255\08-Dec-2020\0\\
 #N Geom=AllCheck Guess=TCheck SCRF=Check GenChk RB3LYP/6-31G(d) Freq\\
 CID_130128682_JID_309_neutraal\\0,1\C,1.008174728,-0.0685732639,0.0298
 58588\C,0.5291089853,-1.4349243173,-0.4993905064\C,1.1067419077,-2.524
 6345047,0.3925787325\C,0.436535846,-3.2778062283,1.2656450128\C,-0.940
 6921043,-1.4616774937,-0.5294927921\C,-2.1472581162,-1.471389809,-0.54
 12972391\O,1.1108996082,-1.5222274951,-1.8109901085\C,0.5482691163,-2.
 401631402,-2.7880806878\C,0.889966144,-3.8824305382,-2.6243689768\O,0.

 Normal termination of Gaussian 16 at Tue Dec  8 10:28:36 2020.

 ----------------------------------------------------------------------
 # B3LYP/6-311++G(d,p) empiricaldispersion=gd3bj scf=xqc pop=npa geom=c
 heck
 ----------------------------------------------------------------------

 --------------------------------------
 CID_130128682_JID_309_Energie_neutraal
 --------------------------------------
 Structure from the checkpoint file:  "JID_309.chk"
 Charge =  0 Multiplicity = 1

 SCF Done:  E(RB3LYP) =  -462.576969405     A.U. after   14 cycles
 Normal termination of Gaussian 16 at Tue Dec  8 10:30:20 2020.

 ----------------------------------------------------------------------
 # B3LYP/6-311++G(d,p) empiricaldispersion=gd3bj scf=xqc pop=npa geom=c
 heck
 ----------------------------------------------------------------------

 ------------------------------------
 CID_130128682_JID_309_Energie_kation
 ------------------------------------
 Structure from the checkpoint file:  "JID_309.chk"
 Charge =  1 Multiplicity = 2

 SCF Done:  E(UB3LYP) =  -462.243950657     A.U. after   25 cycles
 Normal termination of Gaussian 16 at Tue Dec  8 10:37:03 2020.
 Gaussian 16:  ES64L-G16RevA.03 25-Dec-2016

 -----------------------------------
 CID_130128682_JID_309_Energie_anion
 -----------------------------------
 Structure from the checkpoint file:  "JID_309.chk"
 Charge = -1 Multiplicity = 2

                         Standard orientation:
 ---------------------------------------------------------------------
 Center     Atomic      Atomic             Coordinates (Angstroms)
 Number     Number       Type             X           Y           Z
 ---------------------------------------------------------------------
      1          6           0       -2.206571   -0.911243   -0.845625
      2          6           0       -0.902111   -0.311204   -0.284501
      3          6           0       -0.627452    1.000308   -1.006467
      4          6           0       -0.731125    2.227781   -0.495340
      5          6           0       -1.030754   -0.129764    1.168932
      6          6           0       -1.153983    0.020267    2.359873
      7          8           0        0.102888   -1.277582   -0.634482
      8          6           0        1.337439   -1.321354    0.085643
      9          6           0        2.358494   -0.244325   -0.280114
     10          8           0        2.202183    0.980108    0.413941
     11          1           0       -3.048300   -0.239143   -0.660721
     12          1           0       -2.395323   -1.876189   -0.368483
     13          1           0       -2.095856   -1.065778   -1.923105
     14          1           0       -0.360841    0.851537   -2.051873
     15          1           0       -0.554519    3.109145   -1.105177
     16          1           0       -1.000975    2.387191    0.545107
     17          1           0       -1.253793    0.145580    3.414240
     18          1           0        1.157249   -1.295009    1.167211
     19          1           0        1.747953   -2.303197   -0.175115
     20          1           0        3.351446   -0.615958   -0.000286
     21          1           0        2.354293   -0.106959   -1.373925
     22          1           0        1.394467    1.405765    0.082041
 ---------------------------------------------------------------------

 SCF Done:  E(UB3LYP) =  -462.557468585     A.U. after   33 cycles
 SCF Done:  E(UB3LYP) =  -462.557468584     a.u. after    1 cycles

 The electronic state is 2-A.
 Alpha  occ. eigenvalues --  -19.03176 -19.01284 -10.16503 -10.11510 -10.11402
 Alpha  occ. eigenvalues --  -10.08755 -10.07970 -10.07586 -10.07372 -10.06888
 Alpha  occ. eigenvalues --   -0.94401  -0.91502  -0.73016  -0.66151  -0.65146
 Alpha  occ. eigenvalues --   -0.62183  -0.55187  -0.51940  -0.49403  -0.43124
 Alpha  occ. eigenvalues --   -0.41647  -0.40926  -0.38444  -0.37990  -0.35339
 Alpha  occ. eigenvalues --   -0.32447  -0.31848  -0.30416  -0.29484  -0.28045
 Alpha  occ. eigenvalues --   -0.26651  -0.25115  -0.22449  -0.20002  -0.19050
 Alpha  occ. eigenvalues --   -0.18338  -0.17877  -0.15673   0.04881
 Alpha virt. eigenvalues --    0.06673   0.07329   0.07712   0.08134   0.09335
 Alpha virt. eigenvalues --    0.10005   0.10383   0.10783   0.11481   0.12021
 Alpha virt. eigenvalues --    0.12279   0.13114   0.13813   0.14561   0.15662

  Beta  occ. eigenvalues --  -19.03163 -19.01275 -10.16502 -10.11500 -10.11387
  Beta  occ. eigenvalues --  -10.08727 -10.07972 -10.07538 -10.07339 -10.06856
  Beta  occ. eigenvalues --   -0.94376  -0.91486  -0.72980  -0.66098  -0.65119
  Beta  occ. eigenvalues --   -0.62142  -0.55122  -0.51898  -0.49312  -0.43057
  Beta  occ. eigenvalues --   -0.41603  -0.40898  -0.38400  -0.37949  -0.35269
  Beta  occ. eigenvalues --   -0.32397  -0.31822  -0.30370  -0.29438  -0.28012
  Beta  occ. eigenvalues --   -0.26609  -0.25088  -0.22417  -0.19977  -0.19016
  Beta  occ. eigenvalues --   -0.18234  -0.17847  -0.15645
  Beta virt. eigenvalues --    0.07259   0.07824   0.08099   0.08340   0.08843
  Beta virt. eigenvalues --    0.09994   0.10218   0.10618   0.11173   0.11863
  Beta virt. eigenvalues --    0.12360   0.12826   0.13382   0.14034   0.14731

 Mulliken charges and spin densities:
               1          2
     1  C    1.317993  -1.741139
     2  C   -2.776911   2.521019
     3  C   -0.565850   0.620351
     4  C    1.148440  -1.825813
     5  C    3.799002  -3.623208
     6  C   -0.817932   0.583124
     7  O   -0.004130   0.004695
     8  C   -0.115647  -0.070803
     9  C    0.301270  -0.656218
    10  O   -0.237804  -0.008803
    11  H    0.029555   0.119365
    12  H   -0.074955   0.242438
    13  H   -0.468547   0.640190
    14  H   -0.502149   0.724322
    15  H   -0.544168   0.687279
    16  H    0.249422  -0.086459
    17  H   -1.761458   1.968907
    18  H    0.354590  -0.169422
    19  H   -0.343487   0.482166
    20  H   -0.180068   0.325880
    21  H    0.013574   0.143277
    22  H    0.179258   0.118853
 Sum of Mulliken charges =  -1.00000   1.00000

 Dipole moment (field-independent basis, Debye):
    X=              1.2151    Y=             -1.1672    Z=             -1.2695  Tot=              2.1096
 Quadrupole moment (field-independent basis, Debye-Ang):
   XX=           -103.2644   YY=            -99.9210   ZZ=           -121.2615
   XY=             -3.6629   XZ=              3.2871   YZ=              1.5968

 Summary of Natural Population Analysis:

                                       Natural Population
                Natural  -----------------------------------------------
    Atom  No    Charge         Core      Valence    Rydberg      Total
 -----------------------------------------------------------------------
      C    1   -0.27273      0.99962     2.26547    0.00764     3.27273
      C    2    0.07644      0.99942     1.90554    0.01859     2.92356
      C    3   -0.09797      0.99954     2.08357    0.01486     3.09797
      C    4   -0.18773      0.99955     2.17980    0.00837     3.18773
      C    5   -0.02118      0.99936     2.00976    0.01206     3.02118
      C    6   -0.09370      0.99926     2.08958    0.00487     3.09370
      O    7   -0.30144      0.99988     3.29044    0.01112     4.30144
      C    8   -0.02720      0.99955     2.01455    0.01309     3.02720
      C    9   -0.02577      0.99960     2.01458    0.01158     3.02577
      O   10   -0.37533      0.99990     3.36853    0.00690     4.37533
      H   11    0.10321      0.00000     0.39572    0.00108     0.39679
      H   12    0.10647      0.00000     0.39212    0.00141     0.39353
      H   13    0.10591      0.00000     0.39247    0.00162     0.39409
      H   14    0.10586      0.00000     0.39174    0.00240     0.39414
      H   15    0.10136      0.00000     0.39699    0.00164     0.39864
      H   16    0.10125      0.00000     0.39745    0.00130     0.39875
      H   17    0.11549      0.00000     0.38046    0.00405     0.38451
      H   18    0.09207      0.00000     0.40641    0.00152     0.40793
      H   19    0.09202      0.00000     0.40648    0.00149     0.40798
      H   20    0.08625      0.00000     0.41237    0.00139     0.41375
      H   21    0.08003      0.00000     0.41847    0.00151     0.41997
      H   22    0.23668      0.00000     0.25883    0.00449     0.26332
 =======================================================================
   * Total *    0.00000      9.99568    27.87132    0.13299    38.00000

 Normal termination of Gaussian 16 at Tue Dec  8 10:44:27 2020.
