 Gaussian 16, Revision A.03,

 -----------------------------------------------------------
 # opt freq B3LYP/6-31G(d) empiricaldispersion=gd3bj scf=xqc
 -----------------------------------------------------------

 -------------------------------
 CID_114805576_JID_4453_neutraal
 -------------------------------
 Symbolic Z-matrix:
 Charge =  0 Multiplicity = 1

 SCF Done:  E(RB3LYP) =  -1084.95008878     A.U. after   14 cycles
 SCF Done:  E(RB3LYP) =  -1084.95911578     A.U. after   12 cycles
 SCF Done:  E(RB3LYP) =  -1084.96002011     A.U. after   12 cycles
 SCF Done:  E(RB3LYP) =  -1084.96032342     A.U. after   12 cycles
 SCF Done:  E(RB3LYP) =  -1084.96044777     A.U. after   12 cycles
 SCF Done:  E(RB3LYP) =  -1084.96074326     A.U. after   12 cycles
 SCF Done:  E(RB3LYP) =  -1084.96093315     A.U. after   12 cycles
 SCF Done:  E(RB3LYP) =  -1084.96105594     A.U. after   12 cycles
 SCF Done:  E(RB3LYP) =  -1084.96109182     A.U. after   12 cycles
 SCF Done:  E(RB3LYP) =  -1084.96100641     A.U. after   12 cycles
 SCF Done:  E(RB3LYP) =  -1084.96171558     A.U. after   10 cycles
 SCF Done:  E(RB3LYP) =  -1084.96171640     A.U. after   10 cycles
 SCF Done:  E(RB3LYP) =  -1084.96171770     A.U. after   10 cycles
 SCF Done:  E(RB3LYP) =  -1084.96171793     A.U. after    7 cycles
 SCF Done:  E(RB3LYP) =  -1084.96171823     A.U. after    8 cycles
 SCF Done:  E(RB3LYP) =  -1084.96171832     A.U. after    7 cycles
 Optimization completed.
    -- Stationary point found.
 Normal termination of Gaussian 16 at Thu Dec 10 09:58:06 2020.

 --------------------------------------------------------------------
 #N Geom=AllCheck Guess=TCheck SCRF=Check GenChk RB3LYP/6-31G(d) Freq
 --------------------------------------------------------------------

 Structure from the checkpoint file:  "JID_4453.chk"
 -------------------------------
 CID_114805576_JID_4453_neutraal
 -------------------------------
 Charge =  0 Multiplicity = 1

 SCF Done:  E(RB3LYP) =  -1084.96171832     A.U. after    1 cycles

  Exact polarizability: 126.393   6.084 118.389   3.017   0.136  97.861
 Approx polarizability: 158.182   6.671 172.299   5.512   4.280 154.973

                      1                      2                      3
                      A                      A                      A
 Frequencies --     20.5323                37.4691                54.0740
 Red. masses --      4.5072                 5.8149                 4.1404
 Frc consts  --      0.0011                 0.0048                 0.0071
 IR Inten    --      1.5882                 1.3525                 0.8136

                      4                      5                      6
                      A                      A                      A
 Frequencies --     63.6542                75.8450                98.8279
 Red. masses --      3.4943                 2.2178                 3.5760
 Frc consts  --      0.0083                 0.0075                 0.0206
 IR Inten    --      0.2984                 1.2061                 0.9645

                      7                      8                      9
                      A                      A                      A
 Frequencies --    113.6923               146.8458               205.7352
 Red. masses --      3.9176                 4.5624                 2.9006
 Frc consts  --      0.0298                 0.0580                 0.0723
 IR Inten    --      2.0156                 2.3565                 3.4328

                     10                     11                     12
                      A                      A                      A
 Frequencies --    225.5375               242.1960               255.3895
 Red. masses --      4.7235                 1.2979                 1.3090
 Frc consts  --      0.1416                 0.0449                 0.0503
 IR Inten    --      4.0031                 0.9224                 0.3847

                     13                     14                     15
                      A                      A                      A
 Frequencies --    261.8876               276.0339               305.3537
 Red. masses --      1.1267                 2.5815                 3.7860
 Frc consts  --      0.0455                 0.1159                 0.2080
 IR Inten    --      1.4709                 2.4804                 3.0669

                     16                     17                     18
                      A                      A                      A
 Frequencies --    314.4665               331.0664               351.9380
 Red. masses --      3.3579                 3.5368                 3.9533
 Frc consts  --      0.1956                 0.2284                 0.2885
 IR Inten    --      2.4024                 4.2689                 1.8573

                     19                     20                     21
                      A                      A                      A
 Frequencies --    412.5517               419.0922               475.2077
 Red. masses --      3.7928                 3.5123                 3.1638
 Frc consts  --      0.3803                 0.3635                 0.4209
 IR Inten    --     10.2415                 2.3233                 0.9318

                     22                     23                     24
                      A                      A                      A
 Frequencies --    492.2455               512.7000               534.8611
 Red. masses --      2.6136                 2.3500                 6.7380
 Frc consts  --      0.3731                 0.3640                 1.1357
 IR Inten    --      2.9615                36.7328                25.9535

                     25                     26                     27
                      A                      A                      A
 Frequencies --    591.7424               655.6811               680.5594
 Red. masses --      3.8226                 3.1819                 1.8367
 Frc consts  --      0.7886                 0.8060                 0.5012
 IR Inten    --     62.0433               127.5937                19.1333

                     28                     29                     30
                      A                      A                      A
 Frequencies --    694.0951               740.7632               817.3018
 Red. masses --      2.6873                 5.0653                 1.1396
 Frc consts  --      0.7628                 1.6376                 0.4485
 IR Inten    --    107.2515                48.3956                14.1062

                     31                     32                     33
                      A                      A                      A
 Frequencies --    852.5567               877.5732               885.8423
 Red. masses --      3.0357                 1.9997                 2.2834
 Frc consts  --      1.3000                 0.9074                 1.0557
 IR Inten    --     44.8847                19.4853               117.5223

                     34                     35                     36
                      A                      A                      A
 Frequencies --    935.9380               948.5333               950.5423
 Red. masses --      2.3014                 2.4881                 1.1471
 Frc consts  --      1.1878                 1.3189                 0.6106
 IR Inten    --     87.8956                39.5687                 4.0717

                     37                     38                     39
                      A                      A                      A
 Frequencies --    958.7364              1055.2269              1072.8079
 Red. masses --      1.5168                 2.3312                 3.1348
 Frc consts  --      0.8214                 1.5294                 2.1257
 IR Inten    --      0.2773                34.8916                22.1633

                     40                     41                     42
                      A                      A                      A
 Frequencies --   1122.8987              1144.7012              1154.3958
 Red. masses --      6.5169                 2.2386                 2.6277
 Frc consts  --      4.8414                 1.7283                 2.0632
 IR Inten    --    107.7565                60.2429               292.5883

                     43                     44                     45
                      A                      A                      A
 Frequencies --   1165.9601              1173.2354              1184.4358
 Red. masses --      2.1042                 1.6816                 2.1028
 Frc consts  --      1.6854                 1.3638                 1.7381
 IR Inten    --     11.4022                50.1449                31.5928

                     46                     47                     48
                      A                      A                      A
 Frequencies --   1190.8518              1246.7370              1306.5213
 Red. masses --      2.3580                 2.5434                 1.3184
 Frc consts  --      1.9702                 2.3293                 1.3260
 IR Inten    --     69.6297                20.6931                20.1024

                     49                     50                     51
                      A                      A                      A
 Frequencies --   1313.1997              1330.5617              1337.7041
 Red. masses --      1.6928                 2.0301                 1.7309
 Frc consts  --      1.7200                 2.1176                 1.8250
 IR Inten    --     39.4505                92.8454               109.2923

                     52                     53                     54
                      A                      A                      A
 Frequencies --   1357.4245              1392.8134              1424.8487
 Red. masses --      1.3843                 1.2783                 1.2773
 Frc consts  --      1.5028                 1.4610                 1.5278
 IR Inten    --      6.8998                 5.9209                 9.4793

                     55                     56                     57
                      A                      A                      A
 Frequencies --   1430.8986              1433.6657              1442.5018
 Red. masses --      1.2317                 1.8174                 1.2650
 Frc consts  --      1.4859                 2.2008                 1.5508
 IR Inten    --     13.4591                23.7688                 1.0437

                     58                     59                     60
                      A                      A                      A
 Frequencies --   1448.9058              1456.0614              1493.2907
 Red. masses --      1.2493                 1.2946                 1.0773
 Frc consts  --      1.5452                 1.6171                 1.4154
 IR Inten    --     39.4517                41.9313                19.5549

                     61                     62                     63
                      A                      A                      A
 Frequencies --   1514.5110              1523.0287              1528.6395
 Red. masses --      1.0436                 1.0443                 1.0489
 Frc consts  --      1.4104                 1.4272                 1.4440
 IR Inten    --      1.9243                10.3902                 1.1651

                     64                     65                     66
                      A                      A                      A
 Frequencies --   1529.1145              1536.1686              1549.8987
 Red. masses --      1.0435                 1.0510                 1.0864
 Frc consts  --      1.4376                 1.4613                 1.5375
 IR Inten    --      2.3551                 2.1173                 4.2945

                     67                     68                     69
                      A                      A                      A
 Frequencies --   1554.3110              1864.1901              3032.3535
 Red. masses --      1.0516                 9.9960                 1.0718
 Frc consts  --      1.4968                20.4672                 5.8066
 IR Inten    --      5.1002               240.1443                38.7835

                     70                     71                     72
                      A                      A                      A
 Frequencies --   3052.0424              3055.5192              3061.2051
 Red. masses --      1.0378                 1.0395                 1.0750
 Frc consts  --      5.6957                 5.7179                 5.9351
 IR Inten    --     21.9805                21.2098                 1.8226

                     73                     74                     75
                      A                      A                      A
 Frequencies --   3067.6153              3072.1555              3113.6904
 Red. masses --      1.0484                 1.0713                 1.0977
 Frc consts  --      5.8125                 5.9571                 6.2702
 IR Inten    --     30.6338                32.0278                17.1363

                     76                     77                     78
                      A                      A                      A
 Frequencies --   3120.1451              3137.3596              3139.3911
 Red. masses --      1.1023                 1.1010                 1.0953
 Frc consts  --      6.3227                 6.3850                 6.3604
 IR Inten    --     33.6650                22.3223                 1.7171

                     79                     80                     81
                      A                      A                      A
 Frequencies --   3145.6686              3146.8354              3153.4902
 Red. masses --      1.0970                 1.0926                 1.0998
 Frc consts  --      6.3958                 6.3747                 6.4439
 IR Inten    --     16.9725                 6.1200                19.6400

                     82                     83                     84
                      A                      A                      A
 Frequencies --   3184.9559              3496.1618              3684.8292
 Red. masses --      1.1040                 1.0745                 1.0641
 Frc consts  --      6.5985                 7.7380                 8.5124
 IR Inten    --      1.7776                 8.8485                55.1930

 - Thermochemistry -
 -------------------
 Temperature   298.150 Kelvin.  Pressure   1.00000 Atm.
 Atom     1 has atomic number  6 and mass  12.00000

 Molecular mass:   224.08308 amu.
 Principal axes and moments of inertia in atomic units:
                           1         2         3
     Eigenvalues --  2448.535733652.846874915.44512
           X            0.99700   0.07693   0.00887
           Y           -0.07681   0.99696  -0.01329
           Z           -0.00987   0.01257   0.99987
 This molecule is an asymmetric top.
 Rotational symmetry number  1.
 Warning -- assumption of classical behavior for rotation
           may cause significant error
 Rotational temperatures (Kelvin)      0.03537     0.02371     0.01762
 Rotational constants (GHZ):           0.73707     0.49406     0.36716
 Zero-point vibrational energy     656510.6 (Joules/Mol)
                                  156.90979 (Kcal/Mol)
 Warning -- explicit consideration of  25 degrees of freedom as
           vibrations may cause significant error
 Vibrational temperatures:     29.54    53.91    77.80    91.58   109.12
          (Kelvin)            142.19   163.58   211.28   296.01   324.50
                              348.47   367.45   376.80   397.15   439.34
                              452.45   476.33   506.36   593.57   602.98
                              683.72   708.23   737.66   769.55   851.39
                              943.38   979.17   998.65  1065.79  1175.91
                             1226.64  1262.63  1274.53  1346.61  1364.73
                             1367.62  1379.41  1518.24  1543.53  1615.60
                             1646.97  1660.92  1677.56  1688.02  1704.14
                             1713.37  1793.78  1879.79  1889.40  1914.38
                             1924.66  1953.03  2003.95  2050.04  2058.74
                             2062.73  2075.44  2084.65  2094.95  2148.51
                             2179.04  2191.30  2199.37  2200.05  2210.20
                             2229.96  2236.31  2682.15  4362.88  4391.21
                             4396.21  4404.39  4413.61  4420.15  4479.91
                             4489.19  4513.96  4516.88  4525.92  4527.59
                             4537.17  4582.44  5030.20  5301.65

 Zero-point correction=                           0.250052 (Hartree/Particle)
 Thermal correction to Energy=                    0.266561
 Thermal correction to Enthalpy=                  0.267505
 Thermal correction to Gibbs Free Energy=         0.204517
 Sum of electronic and zero-point Energies=          -1084.711667
 Sum of electronic and thermal Energies=             -1084.695158
 Sum of electronic and thermal Enthalpies=           -1084.694213
 Sum of electronic and thermal Free Energies=        -1084.757201

                     E (Thermal)             CV                S
                      KCal/Mol        Cal/Mol-Kelvin    Cal/Mol-Kelvin
 Total                  167.269             59.331            132.568
 Electronic               0.000              0.000              0.000
 Translational            0.889              2.981             42.123
 Rotational               0.889              2.981             32.153
 Vibrational            165.492             53.369             58.292
 Vibration     1          0.593              1.986              6.582
 Vibration     2          0.594              1.982              5.389
 Vibration     3          0.596              1.976              4.663
 Vibration     4          0.597              1.972              4.341
 Vibration     5          0.599              1.965              3.996
 Vibration     6          0.604              1.950              3.477
 Vibration     7          0.607              1.938              3.205
 Vibration     8          0.617              1.906              2.713
 Vibration     9          0.640              1.832              2.081
 Vibration    10          0.650              1.802              1.914
 Vibration    11          0.658              1.776              1.787
 Vibration    12          0.666              1.754              1.693
 Vibration    13          0.669              1.743              1.649
 Vibration    14          0.678              1.718              1.558
 Vibration    15          0.696              1.664              1.387
 Vibration    16          0.702              1.646              1.339
 Vibration    17          0.713              1.613              1.255
 Vibration    18          0.728              1.571              1.158
 Vibration    19          0.776              1.443              0.918
 Vibration    20          0.782              1.429              0.895
 Vibration    21          0.832              1.305              0.723
 Vibration    22          0.848              1.267              0.678
 Vibration    23          0.868              1.222              0.627
 Vibration    24          0.890              1.173              0.576
 Vibration    25          0.949              1.049              0.464

                           ! Non-Optimized Parameters !
 Normal termination of Gaussian 16 at Thu Dec 10 10:06:46 2020.

 ----------------------------------------------------------------------
 # B3LYP/6-311++G(d,p) empiricaldispersion=gd3bj scf=xqc pop=npa geom=c
 heck
 ----------------------------------------------------------------------

 ---------------------------------------
 CID_114805576_JID_4453_Energie_neutraal
 ---------------------------------------
 Structure from the checkpoint file:  "JID_4453.chk"
 Charge =  0 Multiplicity = 1

 SCF Done:  E(RB3LYP) =  -1085.20378771     A.U. after   15 cycles
 Normal termination of Gaussian 16 at Thu Dec 10 10:10:47 2020.

 ----------------------------------------------------------------------
 # B3LYP/6-311++G(d,p) empiricaldispersion=gd3bj scf=xqc pop=npa geom=c
 heck
 ----------------------------------------------------------------------

 -------------------------------------
 CID_114805576_JID_4453_Energie_kation
 -------------------------------------
 Structure from the checkpoint file:  "JID_4453.chk"
 Charge =  1 Multiplicity = 2

 SCF Done:  E(UB3LYP) =  -1084.87542675     A.U. after   23 cycles
 Normal termination of Gaussian 16 at Thu Dec 10 10:18:27 2020.
 Gaussian 16:  ES64L-G16RevA.03 25-Dec-2016

 ----------------------------------------------------------------------
 # B3LYP/6-311++G(d,p) empiricaldispersion=gd3bj scf=xqc pop=npa geom=c
 heck
 ----------------------------------------------------------------------

 ------------------------------------
 CID_114805576_JID_4453_Energie_anion
 ------------------------------------
 Structure from the checkpoint file:  "JID_4453.chk"
 Charge = -1 Multiplicity = 2

                         Standard orientation:
 ---------------------------------------------------------------------
 Center     Atomic      Atomic             Coordinates (Angstroms)
 Number     Number       Type             X           Y           Z
 ---------------------------------------------------------------------
      1          6           0        4.229621    0.750846    0.767289
      2          6           0        3.191475    0.346234   -0.272845
      3          7           0        1.934329   -0.021244    0.410827
      4         16           0        0.634169   -0.393816   -0.611544
      5          8           0        0.552445    0.729400   -1.544864
      6          8           0        0.720050   -1.768405   -1.109848
      7          7           0       -0.589235   -0.344894    0.516840
      8          6           0       -0.886416    0.982070    1.023001
      9          6           0       -1.819390    1.814417    0.150761
     10          8           0       -2.583904    1.400758   -0.687376
     11          8           0       -1.723327    3.121899    0.486859
     12          6           0       -1.609932   -1.430844    0.630377
     13          6           0       -2.296182   -1.809819   -0.685372
     14          6           0       -1.020725   -2.641319    1.358494
     15          1           0        3.864170    1.585386    1.373655
     16          1           0        5.158097    1.056201    0.273967
     17          1           0        4.468570   -0.082772    1.438935
     18          1           0        2.956905    1.183717   -0.932890
     19          1           0        3.568209   -0.476871   -0.896305
     20          1           0        2.060752   -0.810202    1.045400
     21          1           0       -1.354670    0.881970    2.009679
     22          1           0        0.045759    1.530449    1.175882
     23          1           0       -2.361575    3.596829   -0.078238
     24          1           0       -2.367753   -0.975957    1.277557
     25          1           0       -1.605624   -2.330891   -1.350953
     26          1           0       -3.137805   -2.477584   -0.468169
     27          1           0       -2.673758   -0.915922   -1.183792
     28          1           0       -0.581126   -2.343512    2.316828
     29          1           0       -1.806140   -3.379696    1.553963
     30          1           0       -0.249190   -3.115848    0.747116
 ---------------------------------------------------------------------

 SCF Done:  E(UB3LYP) =  -1085.19562185     A.U. after   31 cycles

 The electronic state is 2-A.
 Alpha  occ. eigenvalues --  -88.98379 -19.07889 -19.02444 -19.02372 -19.02276
 Alpha  occ. eigenvalues --  -14.25367 -14.24594 -10.21354 -10.12967 -10.12535
 Alpha  occ. eigenvalues --  -10.11764 -10.07678 -10.06193 -10.05652  -8.04304
 Alpha  occ. eigenvalues --   -6.00568  -6.00540  -6.00497  -1.03572  -1.01932
 Alpha  occ. eigenvalues --   -0.93151  -0.91840  -0.85444  -0.82800  -0.69889
 Alpha  occ. eigenvalues --   -0.67343  -0.64264  -0.59211  -0.56737  -0.53029
 Alpha  occ. eigenvalues --   -0.52364  -0.49081  -0.43447  -0.41486  -0.40932
 Alpha  occ. eigenvalues --   -0.40531  -0.40304  -0.39239  -0.37088  -0.36412
 Alpha  occ. eigenvalues --   -0.35081  -0.33995  -0.33078  -0.31123  -0.30951
 Alpha  occ. eigenvalues --   -0.30735  -0.29426  -0.29200  -0.28562  -0.27678
 Alpha  occ. eigenvalues --   -0.26115  -0.25690  -0.25209  -0.24030  -0.23297
 Alpha  occ. eigenvalues --   -0.22934  -0.21507  -0.19903  -0.17772  -0.15953
 Alpha  occ. eigenvalues --    0.03964
 Alpha virt. eigenvalues --    0.05887   0.06537   0.08050   0.08109   0.08882
 Alpha virt. eigenvalues --    0.09522   0.09847   0.09981   0.11228   0.11507
 Alpha virt. eigenvalues --    0.12494   0.12897   0.13094   0.13823   0.14092

  Beta  occ. eigenvalues --  -88.98376 -19.07851 -19.02437 -19.02356 -19.02269
  Beta  occ. eigenvalues --  -14.25369 -14.24571 -10.21327 -10.12933 -10.12522
  Beta  occ. eigenvalues --  -10.11754 -10.07635 -10.06163 -10.05647  -8.04301
  Beta  occ. eigenvalues --   -6.00564  -6.00535  -6.00494  -1.03552  -1.01868
  Beta  occ. eigenvalues --   -0.93102  -0.91823  -0.85431  -0.82766  -0.69857
  Beta  occ. eigenvalues --   -0.67294  -0.64196  -0.59173  -0.56686  -0.52946
  Beta  occ. eigenvalues --   -0.52297  -0.49026  -0.43405  -0.41430  -0.40896
  Beta  occ. eigenvalues --   -0.40500  -0.40266  -0.39193  -0.37015  -0.36386
  Beta  occ. eigenvalues --   -0.35044  -0.33953  -0.33049  -0.31067  -0.30911
  Beta  occ. eigenvalues --   -0.30700  -0.29389  -0.29172  -0.28532  -0.27632
  Beta  occ. eigenvalues --   -0.26093  -0.25658  -0.25182  -0.23988  -0.23271
  Beta  occ. eigenvalues --   -0.22904  -0.21490  -0.19880  -0.17744  -0.15937
  Beta virt. eigenvalues --    0.06350   0.06914   0.07336   0.08590   0.08798
  Beta virt. eigenvalues --    0.09097   0.09867   0.10152   0.10276   0.11593
  Beta virt. eigenvalues --    0.11837   0.12674   0.13167   0.13401   0.13812

 Mulliken charges and spin densities:
               1          2
     1  C    0.858853  -1.337486
     2  C   -0.339410   0.154641
     3  N   -0.393504   0.146135
     4  S    0.397508  -0.381803
     5  O   -0.156113   0.021113
     6  O   -0.033339  -0.008590
     7  N   -0.115324   0.141870
     8  C    1.180309  -1.751340
     9  C   -0.368898   0.439275
    10  O   -0.264667  -0.007244
    11  O   -0.149755   0.038799
    12  C   -1.026190   1.041000
    13  C   -0.130197  -0.415242
    14  C    0.853433  -1.388920
    15  H   -0.159268   0.312404
    16  H   -0.119231   0.253967
    17  H   -0.481962   0.626129
    18  H    0.135315   0.048967
    19  H    0.049164   0.116688
    20  H    0.143065   0.144859
    21  H   -0.799952   1.032030
    22  H    0.441382  -0.123510
    23  H   -0.289628   0.572009
    24  H   -0.217667   0.381736
    25  H    0.120189   0.020630
    26  H    0.015919   0.117555
    27  H    0.233753  -0.036946
    28  H   -0.300683   0.460317
    29  H   -0.123867   0.254575
    30  H    0.040764   0.126380
 Sum of Mulliken charges =  -1.00000   1.00000

 Dipole moment (field-independent basis, Debye):
    X=             -0.2482    Y=             -1.0806    Z=             -3.4297  Tot=              3.6045
 Quadrupole moment (field-independent basis, Debye-Ang):
   XX=           -149.4643   YY=           -136.1885   ZZ=           -137.7444
   XY=              7.7680   XZ=             -3.4039   YZ=              1.6894

 Summary of Natural Population Analysis:

                                       Natural Population
                Natural  -----------------------------------------------
    Atom  No    Charge         Core      Valence    Rydberg      Total
 -----------------------------------------------------------------------
      C    1   -0.28849      0.99966     2.28335    0.00548     3.28849
      C    2   -0.09577      0.99963     2.08443    0.01171     3.09577
      N    3   -0.43014      0.99975     2.91776    0.01263     3.93014
      S    4    1.17653      4.99924     1.72029    0.10395     6.82347
      O    5   -0.45854      0.99990     3.45348    0.00516     4.45854
      O    6   -0.46276      0.99990     3.45769    0.00516     4.46276
      N    7   -0.37892      0.99970     2.86004    0.01918     3.87892
      C    8   -0.13885      0.99954     2.12538    0.01392     3.13885
      C    9    0.40838      0.99973     1.56716    0.02473     2.59162
      O   10   -0.30454      0.99986     3.29847    0.00621     4.30454
      O   11   -0.34362      0.99988     3.33739    0.00635     4.34362
      C   12   -0.00212      0.99959     1.98860    0.01393     3.00212
      C   13   -0.29918      0.99962     2.29393    0.00563     3.29918
      C   14   -0.29018      0.99963     2.28418    0.00637     3.29018
      H   15    0.10314      0.00000     0.39570    0.00116     0.39686
      H   16    0.10089      0.00000     0.39821    0.00091     0.39911
      H   17    0.10046      0.00000     0.39758    0.00196     0.39954
      H   18    0.10459      0.00000     0.39405    0.00135     0.39541
      H   19    0.08798      0.00000     0.41075    0.00126     0.41202
      H   20    0.19430      0.00000     0.30252    0.00318     0.30570
      H   21    0.12053      0.00000     0.37588    0.00359     0.37947
      H   22    0.12456      0.00000     0.37365    0.00180     0.37544
      H   23    0.24246      0.00000     0.25060    0.00694     0.25754
      H   24    0.09960      0.00000     0.39829    0.00212     0.40040
      H   25    0.10755      0.00000     0.39153    0.00092     0.39245
      H   26    0.09606      0.00000     0.40327    0.00067     0.40394
      H   27    0.11690      0.00000     0.38218    0.00093     0.38310
      H   28    0.10375      0.00000     0.39444    0.00181     0.39625
      H   29    0.09805      0.00000     0.40116    0.00079     0.40195
      H   30    0.10738      0.00000     0.39147    0.00115     0.39262
 =======================================================================
   * Total *    0.00000     17.99565    41.73342    0.27093    60.00000

 Normal termination of Gaussian 16 at Thu Dec 10 10:27:52 2020.
