 Gaussian 16, Revision A.03,

 -----------------------------------------------------------
 # opt freq B3LYP/6-31G(d) empiricaldispersion=gd3bj scf=xqc
 -----------------------------------------------------------

 ------------------------------
 CID_68810910_JID_3006_neutraal
 ------------------------------
 Symbolic Z-matrix:
 Charge =  0 Multiplicity = 1

 SCF Done:  E(RB3LYP) =  -934.361363334     A.U. after   15 cycles
 SCF Done:  E(RB3LYP) =  -934.364815260     A.U. after   13 cycles
 SCF Done:  E(RB3LYP) =  -934.366470873     A.U. after   13 cycles
 SCF Done:  E(RB3LYP) =  -934.368047634     A.U. after   13 cycles
 SCF Done:  E(RB3LYP) =  -934.368949588     A.U. after   13 cycles
 SCF Done:  E(RB3LYP) =  -934.369565411     A.U. after   13 cycles
 SCF Done:  E(RB3LYP) =  -934.370052604     A.U. after   15 cycles
 SCF Done:  E(RB3LYP) =  -934.371276832     A.U. after   15 cycles
 SCF Done:  E(RB3LYP) =  -934.367597325     A.U. after   15 cycles
 SCF Done:  E(RB3LYP) =  -934.372200352     A.U. after   13 cycles
 SCF Done:  E(RB3LYP) =  -934.375473741     A.U. after   12 cycles
 SCF Done:  E(RB3LYP) =  -934.375544667     A.U. after   11 cycles
 SCF Done:  E(RB3LYP) =  -934.375566738     A.U. after   10 cycles
 SCF Done:  E(RB3LYP) =  -934.375570099     A.U. after    9 cycles
 SCF Done:  E(RB3LYP) =  -934.375570627     A.U. after    8 cycles
 Optimization completed.
    -- Stationary point found.
 Normal termination of Gaussian 16 at Wed Dec  9 22:28:55 2020.

 --------------------------------------------------------------------
 #N Geom=AllCheck Guess=TCheck SCRF=Check GenChk RB3LYP/6-31G(d) Freq
 --------------------------------------------------------------------

 Structure from the checkpoint file:  "JID_3006.chk"
 ------------------------------
 CID_68810910_JID_3006_neutraal
 ------------------------------
 Charge =  0 Multiplicity = 1

 SCF Done:  E(RB3LYP) =  -934.375570627     A.U. after    1 cycles

  Exact polarizability: 155.208   1.223 117.019  -8.140  -0.439  87.263
 Approx polarizability: 233.623  -5.796 197.858 -19.595  -1.154 126.856

                      1                      2                      3
                      A                      A                      A
 Frequencies --     44.9157                72.1909                81.2825
 Red. masses --      7.7219                 7.4400                 3.9776
 Frc consts  --      0.0092                 0.0228                 0.0155
 IR Inten    --      0.3868                 1.9588                 0.6705

                      4                      5                      6
                      A                      A                      A
 Frequencies --    119.3078               191.7908               209.2020
 Red. masses --      4.4304                 2.4465                 3.9826
 Frc consts  --      0.0372                 0.0530                 0.1027
 IR Inten    --      0.9336                 0.9132                 1.8247

                      7                      8                      9
                      A                      A                      A
 Frequencies --    228.1600               236.6576               245.9030
 Red. masses --      1.3642                 1.1290                 1.6699
 Frc consts  --      0.0418                 0.0373                 0.0595
 IR Inten    --      0.1875                 0.5331                 0.2006

                     10                     11                     12
                      A                      A                      A
 Frequencies --    278.0732               296.1933               309.6273
 Red. masses --      3.2954                 1.2672                 3.8007
 Frc consts  --      0.1501                 0.0655                 0.2147
 IR Inten    --      3.0899                 1.0607                 4.1318

                     13                     14                     15
                      A                      A                      A
 Frequencies --    329.9276               363.6602               390.9640
 Red. masses --      3.5036                 3.2150                 2.8023
 Frc consts  --      0.2247                 0.2505                 0.2524
 IR Inten    --      0.8058                 3.3404                 3.2058

                     16                     17                     18
                      A                      A                      A
 Frequencies --    457.3165               500.8117               506.5946
 Red. masses --      3.1981                 3.0504                 2.8198
 Frc consts  --      0.3941                 0.4508                 0.4264
 IR Inten    --      3.5469                25.1284                45.7879

                     19                     20                     21
                      A                      A                      A
 Frequencies --    551.5946               582.0919               638.9313
 Red. masses --      1.7690                 2.9189                 6.3442
 Frc consts  --      0.3171                 0.5827                 1.5259
 IR Inten    --     78.6324                42.3850                 2.8207

                     22                     23                     24
                      A                      A                      A
 Frequencies --    674.2609               703.8510               729.1974
 Red. masses --      1.6435                 2.3284                 1.9058
 Frc consts  --      0.4402                 0.6796                 0.5971
 IR Inten    --     29.9335                25.1091                 4.2642

                     25                     26                     27
                      A                      A                      A
 Frequencies --    734.3166               746.0613               789.1891
 Red. masses --      2.5377                 2.3671                 3.3170
 Frc consts  --      0.8062                 0.7763                 1.2172
 IR Inten    --      3.4233                 1.6836                 0.7655

                     28                     29                     30
                      A                      A                      A
 Frequencies --    818.1199               825.6852               865.6816
 Red. masses --      3.5595                 1.3331                 2.4182
 Frc consts  --      1.4037                 0.5355                 1.0677
 IR Inten    --      0.3242                37.2478                17.3020

                     31                     32                     33
                      A                      A                      A
 Frequencies --    888.8750               941.6959               965.0525
 Red. masses --      4.3353                 2.9642                 2.6620
 Frc consts  --      2.0181                 1.5488                 1.4607
 IR Inten    --     25.8234                 7.1931                18.7768

                     34                     35                     36
                      A                      A                      A
 Frequencies --    969.8274              1000.1973              1046.3885
 Red. masses --      1.4505                 1.7271                 1.3217
 Frc consts  --      0.8038                 1.0180                 0.8527
 IR Inten    --      2.1400                 6.8137                 1.3453

                     37                     38                     39
                      A                      A                      A
 Frequencies --   1092.5004              1108.9650              1162.0437
 Red. masses --      1.5584                 2.2826                 1.9666
 Frc consts  --      1.0959                 1.6539                 1.5647
 IR Inten    --      8.8573                 7.1068                 7.1646

                     40                     41                     42
                      A                      A                      A
 Frequencies --   1173.4375              1205.9358              1224.2916
 Red. masses --      1.3334                 2.8675                 2.1669
 Frc consts  --      1.0817                 2.4570                 1.9137
 IR Inten    --      5.1260                 0.8395                 9.0198

                     43                     44                     45
                      A                      A                      A
 Frequencies --   1236.0637              1276.2376              1326.3662
 Red. masses --      2.4242                 1.5968                 1.6972
 Frc consts  --      2.1822                 1.5324                 1.7592
 IR Inten    --      4.3637                 2.0336                45.6801

                     46                     47                     48
                      A                      A                      A
 Frequencies --   1336.7934              1377.7281              1410.5520
 Red. masses --      2.3017                 2.2266                 1.5930
 Frc consts  --      2.4234                 2.4901                 1.8674
 IR Inten    --      0.8047                24.4830                18.4346

                     49                     50                     51
                      A                      A                      A
 Frequencies --   1429.6923              1439.3729              1455.1467
 Red. masses --      1.2649                 1.2222                 1.2533
 Frc consts  --      1.5233                 1.4919                 1.5635
 IR Inten    --      0.5098                 8.4646                17.2035

                     52                     53                     54
                      A                      A                      A
 Frequencies --   1489.7587              1510.7541              1516.3572
 Red. masses --      5.9523                 1.0499                 1.0512
 Frc consts  --      7.7833                 1.4118                 1.4242
 IR Inten    --     64.6216                 0.3835                 2.4292

                     55                     56                     57
                      A                      A                      A
 Frequencies --   1524.3025              1528.6431              1535.5888
 Red. masses --      1.0462                 1.0524                 1.0780
 Frc consts  --      1.4322                 1.4489                 1.4977
 IR Inten    --      7.3835                 3.6538                 3.9665

                     58                     59                     60
                      A                      A                      A
 Frequencies --   1541.6353              1571.8348              1682.2580
 Red. masses --      1.0757                 5.4478                 1.2157
 Frc consts  --      1.5063                 7.9302                 2.0270
 IR Inten    --      7.4367                40.1588                89.9580

                     61                     62                     63
                      A                      A                      A
 Frequencies --   1786.1222              3046.5763              3052.3216
 Red. masses --      8.4704                 1.0816                 1.0385
 Frc consts  --     15.9212                 5.9150                 5.7004
 IR Inten    --    284.2690                 5.8360                16.3700

                     64                     65                     66
                      A                      A                      A
 Frequencies --   3060.9911              3065.9032              3117.5389
 Red. masses --      1.0422                 1.0363                 1.1009
 Frc consts  --      5.7533                 5.7392                 6.3042
 IR Inten    --     38.8397                18.7041                19.5367

                     67                     68                     69
                      A                      A                      A
 Frequencies --   3130.4118              3134.8438              3146.0048
 Red. masses --      1.0998                 1.1001                 1.1004
 Frc consts  --      6.3499                 6.3694                 6.4167
 IR Inten    --     14.6382                36.6462                16.0156

                     70                     71                     72
                      A                      A                      A
 Frequencies --   3147.3225              3157.6572              3252.7496
 Red. masses --      1.1020                 1.1010                 1.0941
 Frc consts  --      6.4316                 6.4680                 6.8205
 IR Inten    --     24.9613                18.7225                 0.4832

                     73                     74                     75
                      A                      A                      A
 Frequencies --   3281.2549              3452.1316              3650.5455
 Red. masses --      1.0949                 1.0586                 1.0930
 Frc consts  --      6.9454                 7.4329                 8.5820
 IR Inten    --      2.0668               374.0503                95.1401

 - Thermochemistry -
 -------------------
 Temperature   298.150 Kelvin.  Pressure   1.00000 Atm.
 Atom     1 has atomic number  6 and mass  12.00000

 Molecular mass:   198.08268 amu.
 Principal axes and moments of inertia in atomic units:
                           1         2         3
     Eigenvalues --  1264.485854104.703174362.09238
           X            0.99985   0.01724   0.00167
           Y           -0.01726   0.99981   0.00946
           Z           -0.00150  -0.00948   0.99995
 This molecule is an asymmetric top.
 Rotational symmetry number  1.
 Warning -- assumption of classical behavior for rotation
           may cause significant error
 Rotational temperatures (Kelvin)      0.06850     0.02110     0.01986
 Rotational constants (GHZ):           1.42725     0.43968     0.41373
 Zero-point vibrational energy     591985.4 (Joules/Mol)
                                  141.48791 (Kcal/Mol)
 Warning -- explicit consideration of  20 degrees of freedom as
           vibrations may cause significant error
 Vibrational temperatures:     64.62   103.87   116.95   171.66   275.94
          (Kelvin)            300.99   328.27   340.50   353.80   400.09
                              426.16   445.48   474.69   523.23   562.51
                              657.98   720.56   728.88   793.62   837.50
                              919.28   970.11  1012.68  1049.15  1056.52
                             1073.42  1135.47  1177.09  1187.98  1245.52
                             1278.89  1354.89  1388.50  1395.37  1439.06
                             1505.52  1571.86  1595.55  1671.92  1688.31
                             1735.07  1761.48  1778.42  1836.22  1908.35
                             1923.35  1982.24  2029.47  2057.01  2070.94
                             2093.63  2143.43  2173.64  2181.70  2193.13
                             2199.38  2209.37  2218.07  2261.52  2420.39
                             2569.83  4383.34  4391.61  4404.08  4411.15
                             4485.44  4503.96  4510.34  4526.40  4528.30
                             4543.16  4679.98  4720.99  4966.85  5252.32

 Zero-point correction=                           0.225475 (Hartree/Particle)
 Thermal correction to Energy=                    0.238888
 Thermal correction to Enthalpy=                  0.239833
 Thermal correction to Gibbs Free Energy=         0.185808
 Sum of electronic and zero-point Energies=           -934.150095
 Sum of electronic and thermal Energies=              -934.136682
 Sum of electronic and thermal Enthalpies=            -934.135738
 Sum of electronic and thermal Free Energies=         -934.189763

                     E (Thermal)             CV                S
                      KCal/Mol        Cal/Mol-Kelvin    Cal/Mol-Kelvin
 Total                  149.905             51.566            113.705
 Electronic               0.000              0.000              0.000
 Translational            0.889              2.981             41.755
 Rotational               0.889              2.981             31.493
 Vibrational            148.127             45.605             40.456
 Vibration     1          0.595              1.979              5.030
 Vibration     2          0.598              1.967              4.093
 Vibration     3          0.600              1.962              3.860
 Vibration     4          0.609              1.933              3.112
 Vibration     5          0.634              1.851              2.210
 Vibration     6          0.642              1.827              2.051
 Vibration     7          0.651              1.798              1.893
 Vibration     8          0.656              1.785              1.828
 Vibration     9          0.660              1.770              1.760
 Vibration    10          0.679              1.714              1.545
 Vibration    11          0.690              1.681              1.438
 Vibration    12          0.699              1.655              1.364
 Vibration    13          0.713              1.616              1.260
 Vibration    14          0.737              1.547              1.106
 Vibration    15          0.759              1.489              0.996
 Vibration    16          0.815              1.345              0.774
 Vibration    17          0.856              1.248              0.656
 Vibration    18          0.862              1.235              0.642
 Vibration    19          0.907              1.136              0.541
 Vibration    20          0.939              1.070              0.482

                           ! Non-Optimized Parameters !
 Normal termination of Gaussian 16 at Wed Dec  9 22:36:47 2020.

 ----------------------------------------------------------------------
 # B3LYP/6-311++G(d,p) empiricaldispersion=gd3bj scf=xqc pop=npa geom=c
 heck
 ----------------------------------------------------------------------

 --------------------------------------
 CID_68810910_JID_3006_Energie_neutraal
 --------------------------------------
 Structure from the checkpoint file:  "JID_3006.chk"
 Charge =  0 Multiplicity = 1

 SCF Done:  E(RB3LYP) =  -934.558870921     A.U. after   16 cycles
 Normal termination of Gaussian 16 at Wed Dec  9 22:40:08 2020.

 ----------------------------------------------------------------------
 # B3LYP/6-311++G(d,p) empiricaldispersion=gd3bj scf=xqc pop=npa geom=c
 heck
 ----------------------------------------------------------------------

 ------------------------------------
 CID_68810910_JID_3006_Energie_kation
 ------------------------------------
 Structure from the checkpoint file:  "JID_3006.chk"
 Charge =  1 Multiplicity = 2

 SCF Done:  E(UB3LYP) =  -934.242678311     A.U. after   27 cycles
 Normal termination of Gaussian 16 at Wed Dec  9 22:47:41 2020.
 Gaussian 16:  ES64L-G16RevA.03 25-Dec-2016

 ----------------------------------------------------------------------
 # B3LYP/6-311++G(d,p) empiricaldispersion=gd3bj scf=xqc pop=npa geom=c
 heck
 ----------------------------------------------------------------------

 -----------------------------------
 CID_68810910_JID_3006_Energie_anion
 -----------------------------------
 Structure from the checkpoint file:  "JID_3006.chk"
 Charge = -1 Multiplicity = 2

                         Standard orientation:
 ---------------------------------------------------------------------
 Center     Atomic      Atomic             Coordinates (Angstroms)
 Number     Number       Type             X           Y           Z
 ---------------------------------------------------------------------
      1          6           0        0.762044    0.363337   -2.092208
      2          6           0        0.370427    0.820811   -0.674749
      3          6           0       -1.007192    0.317130   -0.318192
      4          6           0       -2.101924    1.111460   -0.112516
      5         16           0       -3.505354    0.155517    0.243590
      6          6           0       -2.515686   -1.268181    0.094374
      7          7           0       -1.268407   -1.039094   -0.198350
      8          6           0        1.494563    0.536196    0.395398
      9          6           0        2.524427    1.674008    0.306049
     10          6           0        0.911422    0.511284    1.822384
     11          6           0        2.241398   -0.796605    0.127912
     12          8           0        3.448831   -0.828164   -0.080506
     13          7           0        1.489809   -1.933732    0.194089
     14          1           0        0.751778   -0.727204   -2.168049
     15          1           0        1.766820    0.711144   -2.349473
     16          1           0        0.058366    0.761892   -2.830084
     17          1           0        0.276419    1.913335   -0.695598
     18          1           0       -2.157631    2.189933   -0.152066
     19          1           0       -2.931248   -2.257730    0.241150
     20          1           0        2.053472    2.623795    0.584787
     21          1           0        3.364149    1.484322    0.977484
     22          1           0        2.935384    1.769406   -0.702525
     23          1           0        0.211675   -0.314439    1.970922
     24          1           0        1.718779    0.405205    2.554502
     25          1           0        0.382201    1.447986    2.033335
     26          1           0        0.475366   -1.894413    0.105944
     27          1           0        1.962785   -2.783047   -0.084610
 ---------------------------------------------------------------------

 SCF Done:  E(UB3LYP) =  -934.549944113     A.U. after   33 cycles
 SCF Done:  E(UB3LYP) =  -934.549944113     a.u. after    1 cycles

 The electronic state is 2-A.
 Alpha  occ. eigenvalues --  -88.74871 -18.97878 -14.20923 -14.18540 -10.15976
 Alpha  occ. eigenvalues --  -10.09131 -10.08493 -10.08039 -10.07640 -10.06395
 Alpha  occ. eigenvalues --  -10.05349 -10.05099 -10.04867  -7.83541  -5.79809
 Alpha  occ. eigenvalues --   -5.79467  -5.79181  -0.92757  -0.83678  -0.78770
 Alpha  occ. eigenvalues --   -0.71880  -0.66932  -0.65214  -0.60437  -0.57558
 Alpha  occ. eigenvalues --   -0.52785  -0.51263  -0.47411  -0.44680  -0.42335
 Alpha  occ. eigenvalues --   -0.40769  -0.37555  -0.36095  -0.35160  -0.32614
 Alpha  occ. eigenvalues --   -0.31873  -0.31347  -0.28929  -0.28831  -0.28269
 Alpha  occ. eigenvalues --   -0.27670  -0.27228  -0.26923  -0.25343  -0.24581
 Alpha  occ. eigenvalues --   -0.23703  -0.21851  -0.21325  -0.16913  -0.16246
 Alpha  occ. eigenvalues --   -0.15599  -0.14224  -0.12423   0.05171
 Alpha virt. eigenvalues --    0.07348   0.07763   0.08774   0.09049   0.09438
 Alpha virt. eigenvalues --    0.10588   0.11211   0.11375   0.12110   0.12685
 Alpha virt. eigenvalues --    0.12765   0.13181   0.14120   0.14332   0.14725

  Beta  occ. eigenvalues --  -88.74822 -18.97877 -14.20921 -14.18447 -10.15975
  Beta  occ. eigenvalues --  -10.08777 -10.08491 -10.08054 -10.07634 -10.06184
  Beta  occ. eigenvalues --  -10.05339 -10.05085 -10.04853  -7.83496  -5.79790
  Beta  occ. eigenvalues --   -5.79447  -5.79013  -0.92756  -0.83381  -0.78763
  Beta  occ. eigenvalues --   -0.71849  -0.66630  -0.65122  -0.60197  -0.57503
  Beta  occ. eigenvalues --   -0.52743  -0.51140  -0.46973  -0.44608  -0.42191
  Beta  occ. eigenvalues --   -0.40668  -0.37422  -0.36025  -0.35139  -0.32581
  Beta  occ. eigenvalues --   -0.31763  -0.31226  -0.28864  -0.28615  -0.28057
  Beta  occ. eigenvalues --   -0.27499  -0.27055  -0.26609  -0.25258  -0.24519
  Beta  occ. eigenvalues --   -0.23606  -0.21786  -0.21254  -0.16841  -0.15561
  Beta  occ. eigenvalues --   -0.15287  -0.14197  -0.11261
  Beta virt. eigenvalues --    0.07677   0.08278   0.09034   0.09225   0.09662
  Beta virt. eigenvalues --    0.10179   0.10750   0.11285   0.11555   0.12168
  Beta virt. eigenvalues --    0.12853   0.12909   0.13384   0.14247   0.14582

 Mulliken charges and spin densities:
               1          2
     1  C   -0.044913  -0.691141
     2  C    3.576827  -3.315544
     3  C   -2.970794   1.320798
     4  C   -0.339969   1.351401
     5  S    0.533435  -0.943941
     6  C   -0.472000   0.886488
     7  N    0.015073   0.033916
     8  C   -0.514610   1.061335
     9  C    0.718379  -1.084691
    10  C    0.215630  -0.970588
    11  C   -0.401197   0.201476
    12  O   -0.341248   0.008175
    13  N   -0.480046   0.011882
    14  H    0.147339   0.014297
    15  H    0.100104   0.041208
    16  H   -0.026862   0.162842
    17  H    0.091183   0.110737
    18  H   -0.833702   1.105652
    19  H   -0.596306   0.820053
    20  H   -0.259438   0.400493
    21  H    0.197505  -0.035266
    22  H    0.048675   0.094175
    23  H    0.019434   0.127687
    24  H    0.077104   0.078422
    25  H   -0.043744   0.177435
    26  H    0.369171  -0.029081
    27  H    0.214971   0.061780
 Sum of Mulliken charges =  -1.00000   1.00000

 Dipole moment (field-independent basis, Debye):
    X=              1.2532    Y=             -1.7972    Z=             -1.0837  Tot=              2.4443
 Quadrupole moment (field-independent basis, Debye-Ang):
   XX=           -144.3061   YY=           -122.3980   ZZ=           -108.4069
   XY=              0.2276   XZ=              1.8637   YZ=              0.5228

 Summary of Natural Population Analysis:

                                       Natural Population
                Natural  -----------------------------------------------
    Atom  No    Charge         Core      Valence    Rydberg      Total
 -----------------------------------------------------------------------
      C    1   -0.28414      0.99964     2.27988    0.00462     3.28414
      C    2   -0.11733      0.99953     2.10338    0.01442     3.11733
      C    3    0.05573      0.99946     1.92801    0.01681     2.94427
      C    4   -0.17035      0.99943     2.15998    0.01093     3.17035
      S    5    0.18971      4.99946     2.79053    0.02030     7.81029
      C    6    0.01167      0.99963     1.97175    0.01694     2.98833
      N    7   -0.27203      0.99964     2.75858    0.01380     3.77203
      C    8   -0.06814      0.99953     2.05645    0.01217     3.06814
      C    9   -0.28374      0.99964     2.27550    0.00861     3.28374
      C   10   -0.28555      0.99963     2.27847    0.00746     3.28555
      C   11    0.34683      0.99963     1.62800    0.02554     2.65317
      O   12   -0.33252      0.99988     3.32673    0.00591     4.33252
      N   13   -0.41446      0.99968     2.90707    0.00770     3.91446
      H   14    0.10292      0.00000     0.39588    0.00120     0.39708
      H   15    0.09905      0.00000     0.40005    0.00090     0.40095
      H   16    0.10078      0.00000     0.39840    0.00082     0.39922
      H   17    0.10409      0.00000     0.39375    0.00215     0.39591
      H   18    0.10964      0.00000     0.38823    0.00214     0.39036
      H   19    0.09276      0.00000     0.40582    0.00142     0.40724
      H   20    0.09723      0.00000     0.40176    0.00100     0.40277
      H   21    0.10509      0.00000     0.39403    0.00088     0.39491
      H   22    0.10232      0.00000     0.39683    0.00084     0.39768
      H   23    0.10894      0.00000     0.38960    0.00146     0.39106
      H   24    0.09765      0.00000     0.40145    0.00090     0.40235
      H   25    0.10414      0.00000     0.39466    0.00120     0.39586
      H   26    0.21379      0.00000     0.28314    0.00308     0.28621
      H   27    0.18589      0.00000     0.31182    0.00229     0.31411
 =======================================================================
   * Total *   -0.00000     16.99478    35.81974    0.18548    53.00000

 Normal termination of Gaussian 16 at Wed Dec  9 22:57:00 2020.
