 Gaussian 16, Revision A.03,

 -----------------------------------------------------------
 # opt freq B3LYP/6-31G(d) empiricaldispersion=gd3bj scf=xqc
 -----------------------------------------------------------

 ------------------------------
 CID_63671934_JID_8911_neutraal
 ------------------------------
 Symbolic Z-matrix:
 Charge =  0 Multiplicity = 1

 SCF Done:  E(RB3LYP) =  -799.195642913     A.U. after   16 cycles
 SCF Done:  E(RB3LYP) =  -799.240490172     A.U. after   13 cycles
 SCF Done:  E(RB3LYP) =  -799.242980077     A.U. after   13 cycles
 SCF Done:  E(RB3LYP) =  -799.243998837     A.U. after   13 cycles
 SCF Done:  E(RB3LYP) =  -799.245449941     A.U. after   14 cycles
 SCF Done:  E(RB3LYP) =  -799.247104367     A.U. after   13 cycles
 SCF Done:  E(RB3LYP) =  -799.249041056     A.U. after   13 cycles
 SCF Done:  E(RB3LYP) =  -799.250168712     A.U. after   13 cycles
 SCF Done:  E(RB3LYP) =  -799.250990337     A.U. after   13 cycles
 SCF Done:  E(RB3LYP) =  -799.251604122     A.U. after   13 cycles
 SCF Done:  E(RB3LYP) =  -799.252408807     A.U. after   10 cycles
 SCF Done:  E(RB3LYP) =  -799.252410919     A.U. after   10 cycles
 SCF Done:  E(RB3LYP) =  -799.252411633     A.U. after    8 cycles
 SCF Done:  E(RB3LYP) =  -799.252412120     A.U. after    9 cycles
 SCF Done:  E(RB3LYP) =  -799.252412200     A.U. after    7 cycles
 Optimization completed.
    -- Stationary point found.
 Normal termination of Gaussian 16 at Fri Dec 11 23:07:24 2020.

 --------------------------------------------------------------------
 #N Geom=AllCheck Guess=TCheck SCRF=Check GenChk RB3LYP/6-31G(d) Freq
 --------------------------------------------------------------------

 Structure from the checkpoint file:  "JID_8911.chk"
 ------------------------------
 CID_63671934_JID_8911_neutraal
 ------------------------------
 Charge =  0 Multiplicity = 1

 SCF Done:  E(RB3LYP) =  -799.252412200     A.U. after    1 cycles

  Exact polarizability: 211.686   4.797 150.486  -3.899  19.760 111.489
 Approx polarizability: 306.747  15.081 234.645 -11.997  44.665 177.124

                      1                      2                      3
                      A                      A                      A
 Frequencies --     24.2011                40.4260                52.4188
 Red. masses --      6.3351                 3.4255                 5.2802
 Frc consts  --      0.0022                 0.0033                 0.0085
 IR Inten    --      1.3363                 0.8596                 1.8982

                      4                      5                      6
                      A                      A                      A
 Frequencies --     55.6049                68.6353                78.3836
 Red. masses --      4.9587                 5.8207                 5.4701
 Frc consts  --      0.0090                 0.0162                 0.0198
 IR Inten    --      2.6413                 6.1738                 5.3125

                      7                      8                      9
                      A                      A                      A
 Frequencies --    115.8394               129.2535               148.8725
 Red. masses --      2.2085                 3.9550                 4.1072
 Frc consts  --      0.0175                 0.0389                 0.0536
 IR Inten    --      2.1100                 3.1490                 4.7180

                     10                     11                     12
                      A                      A                      A
 Frequencies --    168.1216               197.0468               224.1615
 Red. masses --      4.0507                 3.6704                 4.0752
 Frc consts  --      0.0675                 0.0840                 0.1206
 IR Inten    --      1.5300                 3.8628                 3.6604

                     13                     14                     15
                      A                      A                      A
 Frequencies --    254.0674               269.4183               303.6048
 Red. masses --      1.9974                 2.5481                 3.2235
 Frc consts  --      0.0760                 0.1090                 0.1751
 IR Inten    --      5.7649                 4.2514                 6.9325

                     16                     17                     18
                      A                      A                      A
 Frequencies --    314.7202               333.3384               361.4470
 Red. masses --      2.2878                 3.5689                 1.1091
 Frc consts  --      0.1335                 0.2336                 0.0854
 IR Inten    --      1.7540                 0.3272                48.0122

                     19                     20                     21
                      A                      A                      A
 Frequencies --    380.8512               382.5878               398.8911
 Red. masses --      3.5715                 3.3508                 5.5494
 Frc consts  --      0.3052                 0.2890                 0.5202
 IR Inten    --      2.8821                 0.4050                 3.6343

                     22                     23                     24
                      A                      A                      A
 Frequencies --    416.4714               443.7839               458.5438
 Red. masses --      4.5499                 5.1415                 2.9596
 Frc consts  --      0.4650                 0.5966                 0.3666
 IR Inten    --      0.2163                 8.7692                 9.6137

                     25                     26                     27
                      A                      A                      A
 Frequencies --    485.8667               523.0329               557.1450
 Red. masses --      2.5744                 4.8461                 3.5869
 Frc consts  --      0.3581                 0.7811                 0.6560
 IR Inten    --     23.8917                12.2621                14.8881

                     28                     29                     30
                      A                      A                      A
 Frequencies --    573.7024               613.4551               624.5994
 Red. masses --      5.2980                 1.9884                 2.9397
 Frc consts  --      1.0274                 0.4409                 0.6757
 IR Inten    --      0.6673               275.6900                77.3499

                     31                     32                     33
                      A                      A                      A
 Frequencies --    666.8449               727.3513               737.3935
 Red. masses --      3.8277                 4.7441                 5.4554
 Frc consts  --      1.0029                 1.4787                 1.7477
 IR Inten    --     10.7787                14.4012                 9.4446

                     34                     35                     36
                      A                      A                      A
 Frequencies --    789.6068               808.5567               818.4140
 Red. masses --      1.3593                 1.9262                 2.5595
 Frc consts  --      0.4993                 0.7419                 1.0101
 IR Inten    --      1.3766                11.5373                19.7640

                     37                     38                     39
                      A                      A                      A
 Frequencies --    868.2441               891.0154               904.2074
 Red. masses --      2.8472                 1.4306                 2.7890
 Frc consts  --      1.2646                 0.6692                 1.3435
 IR Inten    --      5.6315                10.8958                 6.6733

                     40                     41                     42
                      A                      A                      A
 Frequencies --    909.6549               935.4828               947.0132
 Red. masses --      1.4880                 1.2839                 3.2744
 Frc consts  --      0.7255                 0.6620                 1.7302
 IR Inten    --      1.1652                 2.0172                 5.3373

                     43                     44                     45
                      A                      A                      A
 Frequencies --    954.7472               993.3310              1010.6138
 Red. masses --      4.0417                 2.6952                 2.3975
 Frc consts  --      2.1707                 1.5669                 1.4427
 IR Inten    --      9.5910                23.7737                65.4647

                     46                     47                     48
                      A                      A                      A
 Frequencies --   1027.7881              1073.6562              1076.5111
 Red. masses --      1.9185                 2.2064                 2.3642
 Frc consts  --      1.1941                 1.4985                 1.6143
 IR Inten    --      5.6979                12.1714                20.1765

                     49                     50                     51
                      A                      A                      A
 Frequencies --   1100.4624              1125.8422              1165.8686
 Red. masses --      1.7758                 1.8698                 3.8756
 Frc consts  --      1.2670                 1.3963                 3.1037
 IR Inten    --     12.8665                 5.8301                24.3440

                     52                     53                     54
                      A                      A                      A
 Frequencies --   1180.6788              1186.3748              1213.1374
 Red. masses --      1.7276                 1.3578                 2.0613
 Frc consts  --      1.4189                 1.1259                 1.7874
 IR Inten    --     93.8446                 6.2110                89.3560

                     55                     56                     57
                      A                      A                      A
 Frequencies --   1266.1795              1288.0766              1298.0202
 Red. masses --      1.9552                 1.4823                 1.1718
 Frc consts  --      1.8468                 1.4490                 1.1633
 IR Inten    --     58.6123                19.8646                 4.8406

                     58                     59                     60
                      A                      A                      A
 Frequencies --   1307.6646              1319.6739              1328.2688
 Red. masses --      1.2090                 1.5108                 1.2715
 Frc consts  --      1.2181                 1.5502                 1.3217
 IR Inten    --      3.0633                12.1192                11.6220

                     61                     62                     63
                      A                      A                      A
 Frequencies --   1342.0922              1389.3911              1400.6512
 Red. masses --      4.0920                 2.1465                 1.3935
 Frc consts  --      4.3426                 2.4413                 1.6107
 IR Inten    --    102.7916                31.3589                 3.9330

                     64                     65                     66
                      A                      A                      A
 Frequencies --   1410.1888              1422.6894              1429.1920
 Red. masses --      1.8639                 1.4729                 1.3145
 Frc consts  --      2.1839                 1.7565                 1.5820
 IR Inten    --      6.4601                10.6283                 7.2586

                     67                     68                     69
                      A                      A                      A
 Frequencies --   1453.0280              1483.0744              1504.8088
 Red. masses --      1.2535                 3.4601                 1.0885
 Frc consts  --      1.5593                 4.4840                 1.4523
 IR Inten    --      7.6116                14.4830                 6.8258

                     70                     71                     72
                      A                      A                      A
 Frequencies --   1506.4140              1508.0116              1527.3921
 Red. masses --      1.0864                 1.0927                 1.1036
 Frc consts  --      1.4526                 1.4641                 1.5170
 IR Inten    --      0.5169                 1.6516                 1.4153

                     73                     74                     75
                      A                      A                      A
 Frequencies --   1537.7066              1539.5648              1566.6165
 Red. masses --      1.0789                 1.0536                 3.0013
 Frc consts  --      1.5030                 1.4713                 4.3400
 IR Inten    --     11.6300                 4.2232               213.5683

                     76                     77                     78
                      A                      A                      A
 Frequencies --   1639.1613              1649.3146              1684.1390
 Red. masses --      5.6544                 1.9583                 2.0836
 Frc consts  --      8.9512                 3.1385                 3.4820
 IR Inten    --     16.9022                45.1238                81.8400

                     79                     80                     81
                      A                      A                      A
 Frequencies --   2374.9574              2378.9417              2958.3008
 Red. masses --     12.6063                12.6234                 1.0723
 Frc consts  --     41.8938                42.0913                 5.5293
 IR Inten    --      1.4704                 3.1263                35.6073

                     82                     83                     84
                      A                      A                      A
 Frequencies --   2965.9239              3036.4426              3056.6530
 Red. masses --      1.0709                 1.0603                 1.0355
 Frc consts  --      5.5503                 5.7600                 5.7005
 IR Inten    --     34.1556                30.8037                20.4140

                     85                     86                     87
                      A                      A                      A
 Frequencies --   3067.8424              3081.9221              3084.7673
 Red. masses --      1.0923                 1.0674                 1.0883
 Frc consts  --      6.0570                 5.9737                 6.1014
 IR Inten    --     10.2383                46.1733                 5.2987

                     88                     89                     90
                      A                      A                      A
 Frequencies --   3116.0739              3122.2896              3128.4068
 Red. masses --      1.0874                 1.1022                 1.1085
 Frc consts  --      6.2210                 6.3308                 6.3919
 IR Inten    --      1.0800                36.0971                33.5612

                     91                     92                     93
                      A                      A                      A
 Frequencies --   3134.1310              3181.5317              3200.2553
 Red. masses --      1.1037                 1.0871                 1.0937
 Frc consts  --      6.3877                 6.4833                 6.5994
 IR Inten    --     23.2372                17.9516                15.1080

                     94                     95                     96
                      A                      A                      A
 Frequencies --   3237.2289              3558.7349              3666.7432
 Red. masses --      1.0908                 1.0465                 1.0995
 Frc consts  --      6.7349                 7.8089                 8.7096
 IR Inten    --      1.6461                24.0448                20.9362

 - Thermochemistry -
 -------------------
 Temperature   298.150 Kelvin.  Pressure   1.00000 Atm.
 Atom     1 has atomic number  6 and mass  12.00000

 Molecular mass:   244.13241 amu.
 Principal axes and moments of inertia in atomic units:
                           1         2         3
     Eigenvalues --  2612.410326901.510308304.16696
           X            0.99979  -0.02050  -0.00270
           Y            0.02055   0.99952   0.02305
           Z            0.00223  -0.02310   0.99973
 This molecule is an asymmetric top.
 Rotational symmetry number  1.
 Warning -- assumption of classical behavior for rotation
           may cause significant error
 Rotational temperatures (Kelvin)      0.03315     0.01255     0.01043
 Rotational constants (GHZ):           0.69083     0.26150     0.21733
 Zero-point vibrational energy     731299.7 (Joules/Mol)
                                  174.78481 (Kcal/Mol)
 Warning -- explicit consideration of  29 degrees of freedom as
           vibrations may cause significant error
 Vibrational temperatures:     34.82    58.16    75.42    80.00    98.75
          (Kelvin)            112.78   166.67   185.97   214.19   241.89
                              283.51   322.52   365.55   387.63   436.82
                              452.81   479.60   520.04   547.96   550.46
                              573.92   599.21   638.51   659.74   699.05
                              752.53   801.61   825.43   882.63   898.66
                              959.44  1046.50  1060.94  1136.07  1163.33
                             1177.52  1249.21  1281.97  1300.95  1308.79
                             1345.95  1362.54  1373.67  1429.18  1454.05
                             1478.76  1544.75  1548.86  1583.32  1619.84
                             1677.42  1698.73  1706.93  1745.43  1821.75
                             1853.25  1867.56  1881.44  1898.72  1911.08
                             1930.97  1999.02  2015.22  2028.95  2046.93
                             2056.29  2090.58  2133.81  2165.08  2167.39
                             2169.69  2197.58  2212.42  2215.09  2254.01
                             2358.39  2373.00  2423.10  3417.03  3422.77
                             4256.33  4267.30  4368.76  4397.84  4413.94
                             4434.20  4438.29  4483.34  4492.28  4501.08
                             4509.32  4577.51  4604.45  4657.65  5120.23
                             5275.63

 Zero-point correction=                           0.278537 (Hartree/Particle)
 Thermal correction to Energy=                    0.296805
 Thermal correction to Enthalpy=                  0.297750
 Thermal correction to Gibbs Free Energy=         0.230926
 Sum of electronic and zero-point Energies=           -798.973875
 Sum of electronic and thermal Energies=              -798.955607
 Sum of electronic and thermal Enthalpies=            -798.954663
 Sum of electronic and thermal Free Energies=         -799.021487

                     E (Thermal)             CV                S
                      KCal/Mol        Cal/Mol-Kelvin    Cal/Mol-Kelvin
 Total                  186.248             67.504            140.643
 Electronic               0.000              0.000              0.000
 Translational            0.889              2.981             42.378
 Rotational               0.889              2.981             33.370
 Vibrational            184.471             61.543             64.894
 Vibration     1          0.593              1.985              6.256
 Vibration     2          0.594              1.981              5.238
 Vibration     3          0.596              1.977              4.724
 Vibration     4          0.596              1.975              4.607
 Vibration     5          0.598              1.969              4.192
 Vibration     6          0.600              1.964              3.931
 Vibration     7          0.608              1.936              3.169
 Vibration     8          0.612              1.924              2.957
 Vibration     9          0.618              1.904              2.687
 Vibration    10          0.625              1.882              2.456
 Vibration    11          0.636              1.844              2.160
 Vibration    12          0.649              1.804              1.925
 Vibration    13          0.665              1.756              1.702
 Vibration    14          0.674              1.729              1.600
 Vibration    15          0.695              1.667              1.397
 Vibration    16          0.702              1.646              1.337
 Vibration    17          0.715              1.609              1.244
 Vibration    18          0.736              1.552              1.116
 Vibration    19          0.751              1.511              1.036
 Vibration    20          0.752              1.507              1.029
 Vibration    21          0.765              1.472              0.967
 Vibration    22          0.780              1.434              0.904
 Vibration    23          0.803              1.375              0.815
 Vibration    24          0.817              1.342              0.770
 Vibration    25          0.842              1.281              0.694
 Vibration    26          0.878              1.199              0.603
 Vibration    27          0.913              1.124              0.530
 Vibration    28          0.930              1.088              0.497
 Vibration    29          0.973              1.003              0.427

 Optimization completed.
    -- Stationary point found.
 Normal termination of Gaussian 16 at Fri Dec 11 23:22:02 2020.

 ----------------------------------------------------------------------
 # B3LYP/6-311++G(d,p) empiricaldispersion=gd3bj scf=xqc pop=npa geom=c
 heck
 ----------------------------------------------------------------------

 --------------------------------------
 CID_63671934_JID_8911_Energie_neutraal
 --------------------------------------
 Structure from the checkpoint file:  "JID_8911.chk"
 Charge =  0 Multiplicity = 1

 SCF Done:  E(RB3LYP) =  -799.477195100     A.U. after   17 cycles
 Normal termination of Gaussian 16 at Fri Dec 11 23:29:22 2020.

 ----------------------------------------------------------------------
 # B3LYP/6-311++G(d,p) empiricaldispersion=gd3bj scf=xqc pop=npa geom=c
 heck
 ----------------------------------------------------------------------

 ------------------------------------
 CID_63671934_JID_8911_Energie_kation
 ------------------------------------
 Structure from the checkpoint file:  "JID_8911.chk"
 Charge =  1 Multiplicity = 2

 SCF Done:  E(UB3LYP) =  -799.198954076     A.U. after   23 cycles
 Normal termination of Gaussian 16 at Fri Dec 11 23:43:45 2020.
 Gaussian 16:  ES64L-G16RevA.03 25-Dec-2016

 ----------------------------------------------------------------------
 # B3LYP/6-311++G(d,p) empiricaldispersion=gd3bj scf=xqc pop=npa geom=c
 heck
 ----------------------------------------------------------------------

 -----------------------------------
 CID_63671934_JID_8911_Energie_anion
 -----------------------------------
 Structure from the checkpoint file:  "JID_8911.chk"
 Charge = -1 Multiplicity = 2

                         Standard orientation:
 ---------------------------------------------------------------------
 Center     Atomic      Atomic             Coordinates (Angstroms)
 Number     Number       Type             X           Y           Z
 ---------------------------------------------------------------------
      1          6           0        3.104259   -1.456003    1.177060
      2          6           0        3.665052   -1.677097   -0.230705
      3          6           0        2.724490   -1.228385   -1.343876
      4          8           0        2.514441    0.197135   -1.311496
      5          6           0        1.415976    0.682837   -0.645944
      6          6           0        1.637927    1.829034    0.152450
      7          6           0        0.555457    2.367785    0.856882
      8          6           0       -0.707948    1.779594    0.796015
      9          6           0       -0.920001    0.665220   -0.017157
     10          6           0        0.144244    0.138350   -0.756734
     11          7           0       -2.186359   -0.019664   -0.101677
     12          6           0       -3.343075    0.869363   -0.166548
     13          6           0       -4.538196    0.148076   -0.631022
     14          7           0       -5.481155   -0.437741   -0.967596
     15          6           0       -2.358014   -1.055716    0.924549
     16          6           0       -1.294691   -2.065397    0.852058
     17          7           0       -0.451485   -2.860277    0.806060
     18          7           0        2.906892    2.393832    0.181377
     19          1           0        2.130858   -1.944747    1.293894
     20          1           0        2.973125   -0.389888    1.388385
     21          1           0        3.783967   -1.864157    1.932958
     22          1           0        4.624234   -1.155313   -0.347137
     23          1           0        3.868362   -2.745464   -0.386824
     24          1           0        3.155994   -1.436353   -2.327332
     25          1           0        1.769507   -1.756887   -1.267391
     26          1           0        0.715405    3.245505    1.477684
     27          1           0       -1.516452    2.198207    1.388147
     28          1           0       -0.041388   -0.713661   -1.398657
     29          1           0       -3.596260    1.349612    0.796429
     30          1           0       -3.112034    1.669657   -0.875294
     31          1           0       -2.365903   -0.640766    1.948878
     32          1           0       -3.318465   -1.559051    0.762469
     33          1           0        3.630625    1.773710   -0.160037
     34          1           0        3.154752    2.873491    1.036478
 ---------------------------------------------------------------------

 SCF Done:  E(UB3LYP) =  -799.470919527     A.U. after   33 cycles
 SCF Done:  E(UB3LYP) =  -799.470919527     a.u. after    1 cycles

 The electronic state is 2-A.
 Alpha  occ. eigenvalues --  -19.06248 -14.25712 -14.23821 -14.23755 -14.22506
 Alpha  occ. eigenvalues --  -10.16448 -10.16261 -10.14280 -10.14051 -10.13678
 Alpha  occ. eigenvalues --  -10.13583 -10.12371 -10.11624 -10.08990 -10.08553
 Alpha  occ. eigenvalues --  -10.08268 -10.08064 -10.06960  -0.97710  -0.88414
 Alpha  occ. eigenvalues --   -0.83381  -0.82991  -0.82763  -0.75217  -0.70681
 Alpha  occ. eigenvalues --   -0.69686  -0.66391  -0.65711  -0.61219  -0.59375
 Alpha  occ. eigenvalues --   -0.53912  -0.51512  -0.50179  -0.47103  -0.45211
 Alpha  occ. eigenvalues --   -0.43981  -0.42780  -0.42350  -0.41206  -0.39729
 Alpha  occ. eigenvalues --   -0.38674  -0.37316  -0.36427  -0.35881  -0.35116
 Alpha  occ. eigenvalues --   -0.34678  -0.33392  -0.31797  -0.30797  -0.29465
 Alpha  occ. eigenvalues --   -0.29241  -0.28724  -0.27949  -0.27287  -0.26592
 Alpha  occ. eigenvalues --   -0.26407  -0.26016  -0.25822  -0.25066  -0.24810
 Alpha  occ. eigenvalues --   -0.22941  -0.21980  -0.17226  -0.15108  -0.11349
 Alpha  occ. eigenvalues --    0.03783
 Alpha virt. eigenvalues --    0.05394   0.06390   0.07288   0.07494   0.07757
 Alpha virt. eigenvalues --    0.08115   0.08226   0.08349   0.08618   0.09665
 Alpha virt. eigenvalues --    0.09926   0.10409   0.10473   0.10864   0.11246

  Beta  occ. eigenvalues --  -19.06244 -14.25700 -14.23812 -14.23749 -14.22468
  Beta  occ. eigenvalues --  -10.16413 -10.16206 -10.14278 -10.14047 -10.13672
  Beta  occ. eigenvalues --  -10.13577 -10.12371 -10.11626 -10.08980 -10.08552
  Beta  occ. eigenvalues --  -10.08237 -10.08044 -10.06945  -0.97704  -0.88389
  Beta  occ. eigenvalues --   -0.83359  -0.82959  -0.82731  -0.75188  -0.70663
  Beta  occ. eigenvalues --   -0.69617  -0.66347  -0.65681  -0.61182  -0.59320
  Beta  occ. eigenvalues --   -0.53875  -0.51473  -0.50144  -0.47072  -0.45165
  Beta  occ. eigenvalues --   -0.43941  -0.42727  -0.42288  -0.41149  -0.39714
  Beta  occ. eigenvalues --   -0.38600  -0.37275  -0.36386  -0.35852  -0.35082
  Beta  occ. eigenvalues --   -0.34651  -0.33372  -0.31769  -0.30760  -0.29454
  Beta  occ. eigenvalues --   -0.29230  -0.28708  -0.27913  -0.27270  -0.26567
  Beta  occ. eigenvalues --   -0.26387  -0.25985  -0.25792  -0.25050  -0.24790
  Beta  occ. eigenvalues --   -0.22918  -0.21962  -0.17149  -0.15093  -0.11325
  Beta virt. eigenvalues --    0.05864   0.06596   0.06923   0.07418   0.07749
  Beta virt. eigenvalues --    0.07937   0.08364   0.08522   0.08825   0.08919
  Beta virt. eigenvalues --    0.09886   0.10035   0.10570   0.10782   0.11039

 Mulliken charges and spin densities:
               1          2
     1  C   -0.159149  -0.263537
     2  C   -0.373813  -0.125567
     3  C    0.167941  -0.180025
     4  O   -0.131203   0.005058
     5  C   -0.463065   0.133331
     6  C    1.095218  -0.892481
     7  C   -0.229934  -0.062678
     8  C    0.305287  -0.479531
     9  C   -0.285579  -0.188156
    10  C   -0.327721   0.334666
    11  N    0.385104   0.056900
    12  C    0.487147  -0.251767
    13  C    0.648467  -0.941563
    14  N   -0.299496   0.003867
    15  C    0.665948  -0.853110
    16  C   -0.184915   0.112870
    17  N   -0.256481   0.000145
    18  N   -0.446151   0.100196
    19  H    0.158904   0.015756
    20  H   -0.014807   0.163700
    21  H   -0.063464   0.204786
    22  H   -0.019798   0.172086
    23  H    0.094936   0.028717
    24  H    0.070101   0.098691
    25  H    0.089504   0.001805
    26  H   -0.716407   0.909522
    27  H   -0.657060   0.825344
    28  H    0.155252   0.036486
    29  H   -0.481780   0.684492
    30  H   -0.035170   0.251395
    31  H   -0.365502   0.559706
    32  H    0.218947  -0.007853
    33  H    0.127202   0.139742
    34  H   -0.158462   0.407006
 Sum of Mulliken charges =  -1.00000   1.00000

 Dipole moment (field-independent basis, Debye):
    X=              3.6992    Y=             -4.5636    Z=             -4.4703  Tot=              7.3820
 Quadrupole moment (field-independent basis, Debye-Ang):
   XX=           -195.6460   YY=           -161.1847   ZZ=           -145.9040
   XY=             -6.1321   XZ=             -3.2400   YZ=             -8.3917

 Summary of Natural Population Analysis:

                                       Natural Population
                Natural  -----------------------------------------------
    Atom  No    Charge         Core      Valence    Rydberg      Total
 -----------------------------------------------------------------------
      C    1   -0.29353      0.99966     2.28854    0.00534     3.29353
      C    2   -0.20205      0.99964     2.19423    0.00818     3.20205
      C    3   -0.00659      0.99955     1.99687    0.01017     3.00659
      O    4   -0.29268      0.99986     3.28316    0.00966     4.29268
      C    5    0.14136      0.99934     1.84561    0.01369     2.85864
      C    6    0.06845      0.99946     1.92003    0.01207     2.93155
      C    7   -0.11170      0.99953     2.10150    0.01067     3.11170
      C    8   -0.11183      0.99950     2.10199    0.01034     3.11183
      C    9    0.05491      0.99946     1.93218    0.01345     2.94509
      C   10   -0.12527      0.99946     2.11703    0.00878     3.12527
      N   11   -0.26576      0.99968     2.75209    0.01399     3.76576
      C   12   -0.14184      0.99952     2.13048    0.01184     3.14184
      C   13    0.16015      0.99965     1.82421    0.01599     2.83985
      N   14   -0.17897      0.99979     2.66824    0.01094     3.67897
      C   15   -0.13979      0.99951     2.12964    0.01064     3.13979
      C   16    0.16594      0.99965     1.81839    0.01602     2.83406
      N   17   -0.18012      0.99978     2.66993    0.01041     3.68012
      N   18   -0.39489      0.99971     2.88497    0.01021     3.89489
      H   19    0.10748      0.00000     0.39143    0.00109     0.39252
      H   20    0.10126      0.00000     0.39702    0.00172     0.39874
      H   21    0.09771      0.00000     0.40149    0.00080     0.40229
      H   22    0.09574      0.00000     0.40301    0.00125     0.40426
      H   23    0.09605      0.00000     0.40305    0.00090     0.40395
      H   24    0.08783      0.00000     0.41127    0.00090     0.41217
      H   25    0.08911      0.00000     0.40955    0.00134     0.41089
      H   26    0.10502      0.00000     0.39304    0.00194     0.39498
      H   27    0.10878      0.00000     0.38758    0.00364     0.39122
      H   28    0.10935      0.00000     0.38913    0.00152     0.39065
      H   29    0.11375      0.00000     0.38069    0.00556     0.38625
      H   30    0.12597      0.00000     0.37258    0.00145     0.37403
      H   31    0.11299      0.00000     0.38457    0.00244     0.38701
      H   32    0.12077      0.00000     0.37773    0.00151     0.37923
      H   33    0.19247      0.00000     0.30514    0.00239     0.30753
      H   34    0.18994      0.00000     0.30681    0.00326     0.31006
 =======================================================================
   * Total *   -0.00000     17.99274    46.77319    0.23407    65.00000

 Normal termination of Gaussian 16 at Sat Dec 12 00:03:39 2020.
