 Gaussian 16, Revision A.03,

 -----------------------------------------------------------
 # opt freq B3LYP/6-31G(d) empiricaldispersion=gd3bj scf=xqc
 -----------------------------------------------------------

 -------------------------------
 CID_65274893_JID_10672_neutraal
 -------------------------------
 Symbolic Z-matrix:
 Charge =  0 Multiplicity = 1

 SCF Done:  E(RB3LYP) =  -1214.52695352     A.U. after   15 cycles
 SCF Done:  E(RB3LYP) =  -1214.53260556     A.U. after   12 cycles
 SCF Done:  E(RB3LYP) =  -1214.53327221     A.U. after   11 cycles
 SCF Done:  E(RB3LYP) =  -1214.53344745     A.U. after   12 cycles
 SCF Done:  E(RB3LYP) =  -1214.53352749     A.U. after   11 cycles
 SCF Done:  E(RB3LYP) =  -1214.53356314     A.U. after   10 cycles
 SCF Done:  E(RB3LYP) =  -1214.53358321     A.U. after   11 cycles
 SCF Done:  E(RB3LYP) =  -1214.53359258     A.U. after   10 cycles
 SCF Done:  E(RB3LYP) =  -1214.53359576     A.U. after    9 cycles
 SCF Done:  E(RB3LYP) =  -1214.53359657     A.U. after    8 cycles
 SCF Done:  E(RB3LYP) =  -1214.53359670     A.U. after    7 cycles
 Optimization completed.
    -- Stationary point found.
 Normal termination of Gaussian 16 at Sat Dec 12 16:25:01 2020.

 --------------------------------------------------------------------
 #N Geom=AllCheck Guess=TCheck SCRF=Check GenChk RB3LYP/6-31G(d) Freq
 --------------------------------------------------------------------

 Structure from the checkpoint file:  "JID_10672.chk"
 -------------------------------
 CID_65274893_JID_10672_neutraal
 -------------------------------
 Charge =  0 Multiplicity = 1

 SCF Done:  E(RB3LYP) =  -1214.53359670     A.U. after    1 cycles

  Exact polarizability: 301.644   9.068 190.875   6.171 -14.567 120.228
 Approx polarizability: 409.518  19.500 335.765  14.626 -26.139 193.140

                      1                      2                      3
                      A                      A                      A
 Frequencies --     23.4455                29.6926                45.1673
 Red. masses --      4.0519                 3.7504                 4.9258
 Frc consts  --      0.0013                 0.0019                 0.0059
 IR Inten    --      0.2492                 0.0355                 0.0258

                      4                      5                      6
                      A                      A                      A
 Frequencies --     50.6416                79.7581               101.2072
 Red. masses --      5.3311                 4.2338                 4.4041
 Frc consts  --      0.0081                 0.0159                 0.0266
 IR Inten    --      0.0173                 0.0200                 0.4477

                      7                      8                      9
                      A                      A                      A
 Frequencies --    119.2961               142.2216               185.6117
 Red. masses --      5.1505                 4.5211                 3.5708
 Frc consts  --      0.0432                 0.0539                 0.0725
 IR Inten    --      1.0803                 0.3320                 3.0630

                     10                     11                     12
                      A                      A                      A
 Frequencies --    201.2791               229.0608               231.4500
 Red. masses --      6.6708                 1.0625                 2.8846
 Frc consts  --      0.1592                 0.0328                 0.0910
 IR Inten    --      2.2453                 0.1258                 2.7896

                     13                     14                     15
                      A                      A                      A
 Frequencies --    264.1290               280.8256               306.4231
 Red. masses --      1.2329                 7.1179                 2.9568
 Frc consts  --      0.0507                 0.3307                 0.1636
 IR Inten    --      1.2268                 1.0846                 1.7154

                     16                     17                     18
                      A                      A                      A
 Frequencies --    323.3646               340.6743               371.6572
 Red. masses --      1.3967                 2.6337                 5.2250
 Frc consts  --      0.0860                 0.1801                 0.4252
 IR Inten    --     22.9542                 7.7876                 1.4385

                     19                     20                     21
                      A                      A                      A
 Frequencies --    373.5874               408.2554               445.0376
 Red. masses --      4.5990                 5.4389                 4.4859
 Frc consts  --      0.3782                 0.5341                 0.5235
 IR Inten    --     23.2930                 0.6890                 1.7200

                     22                     23                     24
                      A                      A                      A
 Frequencies --    474.3388               482.9627               489.8460
 Red. masses --      3.4534                 2.8906                 2.0757
 Frc consts  --      0.4578                 0.3973                 0.2935
 IR Inten    --      8.1066                43.3151               116.8711

                     25                     26                     27
                      A                      A                      A
 Frequencies --    523.8209               564.6306               570.7107
 Red. masses --      2.1895                 4.1459                 5.2490
 Frc consts  --      0.3540                 0.7788                 1.0073
 IR Inten    --    116.6498                 7.4311                 5.4648

                     28                     29                     30
                      A                      A                      A
 Frequencies --    596.8503               620.7020               643.7559
 Red. masses --     10.3599                 3.8979                 5.5052
 Frc consts  --      2.1744                 0.8848                 1.3442
 IR Inten    --      0.6274                 0.7835                 1.8260

                     31                     32                     33
                      A                      A                      A
 Frequencies --    682.9213               690.7753               739.7372
 Red. masses --      6.0540                 3.7321                 6.2360
 Frc consts  --      1.6636                 1.0492                 2.0105
 IR Inten    --      8.1390                 7.3472                 3.5555

                     34                     35                     36
                      A                      A                      A
 Frequencies --    748.3742               762.3443               762.9171
 Red. masses --      4.1443                 1.5408                 3.9780
 Frc consts  --      1.3676                 0.5276                 1.3642
 IR Inten    --      0.7689                52.7178                 5.4917

                     37                     38                     39
                      A                      A                      A
 Frequencies --    765.7186               826.0515               848.6371
 Red. masses --      9.5575                 1.4283                 4.1042
 Frc consts  --      3.3017                 0.5742                 1.7415
 IR Inten    --     12.0868                10.9841                 1.6175

                     40                     41                     42
                      A                      A                      A
 Frequencies --    859.3819               885.1490               887.9655
 Red. masses --      1.5296                 1.3909                 3.3468
 Frc consts  --      0.6656                 0.6421                 1.5548
 IR Inten    --      1.6717                14.0000                27.4682

                     43                     44                     45
                      A                      A                      A
 Frequencies --    923.8446               938.0117               949.0437
 Red. masses --      4.9713                 1.3424                 1.1657
 Frc consts  --      2.4999                 0.6959                 0.6186
 IR Inten    --     64.0708                 1.5082                 1.8104

                     46                     47                     48
                      A                      A                      A
 Frequencies --    967.7800               978.4593               979.7146
 Red. masses --      1.2373                 7.1322                 1.5243
 Frc consts  --      0.6828                 4.0231                 0.8620
 IR Inten    --      0.0147                37.4917                 0.0338

                     49                     50                     51
                      A                      A                      A
 Frequencies --    992.4688              1049.0690              1063.4107
 Red. masses --      5.1071                 2.0294                 2.2265
 Frc consts  --      2.9639                 1.3159                 1.4835
 IR Inten    --     54.9427                38.7172                 8.8191

                     52                     53                     54
                      A                      A                      A
 Frequencies --   1088.9326              1097.1694              1108.0388
 Red. masses --      1.8422                 1.6629                 2.9374
 Frc consts  --      1.2870                 1.1794                 2.1248
 IR Inten    --      6.2528                68.4772                 8.2770

                     55                     56                     57
                      A                      A                      A
 Frequencies --   1131.5891              1172.5833              1196.3166
 Red. masses --      2.3285                 1.3029                 1.0941
 Frc consts  --      1.7567                 1.0555                 0.9226
 IR Inten    --      0.6249                 2.9133                 8.7595

                     58                     59                     60
                      A                      A                      A
 Frequencies --   1205.8327              1217.7630              1254.5813
 Red. masses --      1.8610                 1.5816                 4.8768
 Frc consts  --      1.5943                 1.3819                 4.5226
 IR Inten    --      0.8172                48.3820                41.2539

                     61                     62                     63
                      A                      A                      A
 Frequencies --   1294.3274              1305.3774              1345.6421
 Red. masses --      2.5846                 2.5341                 2.1125
 Frc consts  --      2.5511                 2.5441                 2.2538
 IR Inten    --      5.2959                16.2180                36.0683

                     64                     65                     66
                      A                      A                      A
 Frequencies --   1349.2299              1352.4798              1362.1255
 Red. masses --      3.3923                 1.9815                 1.3222
 Frc consts  --      3.6385                 2.1355                 1.4454
 IR Inten    --     29.3854               108.0027                 1.3993

                     67                     68                     69
                      A                      A                      A
 Frequencies --   1366.9660              1383.8717              1422.4528
 Red. masses --      4.3774                 3.8349                 1.2283
 Frc consts  --      4.8193                 4.3271                 1.4642
 IR Inten    --     21.2281                30.5525                 3.2398

                     70                     71                     72
                      A                      A                      A
 Frequencies --   1434.5225              1447.1050              1450.1579
 Red. masses --      3.2847                 1.6765                 4.3171
 Frc consts  --      3.9826                 2.0685                 5.3490
 IR Inten    --     41.4550                 6.4162                99.7228

                     73                     74                     75
                      A                      A                      A
 Frequencies --   1508.4567              1517.3351              1522.0067
 Red. masses --      2.7424                 1.0427                 1.0481
 Frc consts  --      3.6767                 1.4144                 1.4305
 IR Inten    --     30.0334                 1.6380                 0.3897

                     76                     77                     78
                      A                      A                      A
 Frequencies --   1529.5771              1532.0680              1544.7666
 Red. masses --      1.2845                 1.4836                 2.3545
 Frc consts  --      1.7707                 2.0517                 3.3103
 IR Inten    --     32.4337                98.7963                35.9551

                     79                     80                     81
                      A                      A                      A
 Frequencies --   1554.1402              1602.5736              1624.9596
 Red. masses --      1.9254                 9.0666                 6.1180
 Frc consts  --      2.7400                13.7192                 9.5179
 IR Inten    --     27.5070               388.3290               144.5427

                     82                     83                     84
                      A                      A                      A
 Frequencies --   1638.4758              1667.8037              1688.2657
 Red. masses --      5.0305                 3.8724                 1.3664
 Frc consts  --      7.9568                 6.3463                 2.2947
 IR Inten    --     14.1329                 7.4985               118.5653

                     85                     86                     87
                      A                      A                      A
 Frequencies --   3051.9297              3055.3302              3080.7364
 Red. masses --      1.0341                 1.0348                 1.0855
 Frc consts  --      5.6747                 5.6913                 6.0702
 IR Inten    --     25.7988                22.9691                 4.3497

                     88                     89                     90
                      A                      A                      A
 Frequencies --   3121.6690              3124.3811              3128.5892
 Red. masses --      1.1032                 1.1028                 1.1034
 Frc consts  --      6.3340                 6.3427                 6.3635
 IR Inten    --     10.2796                47.7419                 9.6126

                     91                     92                     93
                      A                      A                      A
 Frequencies --   3134.4536              3175.6057              3188.3360
 Red. masses --      1.1017                 1.0869                 1.0876
 Frc consts  --      6.3774                 6.4582                 6.5142
 IR Inten    --     51.0355                13.0133                 0.7004

                     94                     95                     96
                      A                      A                      A
 Frequencies --   3196.7493              3214.9863              3254.3884
 Red. masses --      1.0925                 1.0969                 1.0960
 Frc consts  --      6.5780                 6.6799                 6.8388
 IR Inten    --     31.0334                24.4146                 2.5342

                     97                     98                     99
                      A                      A                      A
 Frequencies --   3310.0506              3581.3600              3685.9451
 Red. masses --      1.0983                 1.0471                 1.0996
 Frc consts  --      7.0900                 7.9128                 8.8018
 IR Inten    --      5.5222                17.7810                27.6672

 - Thermochemistry -
 -------------------
 Temperature   298.150 Kelvin.  Pressure   1.00000 Atm.
 Atom     1 has atomic number  6 and mass  12.00000

 Molecular mass:   285.10482 amu.
 Principal axes and moments of inertia in atomic units:
                           1         2         3
     Eigenvalues --  2643.82948********************
           X            0.99982  -0.01875  -0.00217
           Y            0.01872   0.99973  -0.01412
           Z            0.00244   0.01408   0.99990
 This molecule is an asymmetric top.
 Rotational symmetry number  1.
 Warning -- assumption of classical behavior for rotation
           may cause significant error
 Rotational temperatures (Kelvin)      0.03276     0.00651     0.00583
 Rotational constants (GHZ):           0.68262     0.13563     0.12155
 Zero-point vibrational energy     729986.3 (Joules/Mol)
                                  174.47092 (Kcal/Mol)
 Warning -- explicit consideration of  29 degrees of freedom as
           vibrations may cause significant error
 Vibrational temperatures:     33.73    42.72    64.99    72.86   114.75
          (Kelvin)            145.61   171.64   204.63   267.05   289.60
                              329.57   333.00   380.02   404.05   440.87
                              465.25   490.15   534.73   537.51   587.39
                              640.31   682.47   694.88   704.78   753.66
                              812.38   821.13   858.73   893.05   926.22
                              982.57   993.87  1064.32  1076.74  1096.84
                             1097.67  1101.70  1188.50  1221.00  1236.46
                             1273.53  1277.58  1329.21  1349.59  1365.46
                             1392.42  1407.78  1409.59  1427.94  1509.38
                             1530.01  1566.73  1578.58  1594.22  1628.10
                             1687.09  1721.23  1734.92  1752.09  1805.06
                             1862.25  1878.15  1936.08  1941.24  1945.92
                             1959.79  1966.76  1991.08  2046.59  2063.96
                             2082.06  2086.45  2170.33  2183.11  2189.83
                             2200.72  2204.30  2222.57  2236.06  2305.75
                             2337.95  2357.40  2399.60  2429.04  4391.05
                             4395.94  4432.49  4491.39  4495.29  4501.34
                             4509.78  4568.99  4587.30  4599.41  4625.65
                             4682.34  4762.42  5152.78  5303.25

 Zero-point correction=                           0.278037 (Hartree/Particle)
 Thermal correction to Energy=                    0.296100
 Thermal correction to Enthalpy=                  0.297045
 Thermal correction to Gibbs Free Energy=         0.230001
 Sum of electronic and zero-point Energies=          -1214.255560
 Sum of electronic and thermal Energies=             -1214.237496
 Sum of electronic and thermal Enthalpies=           -1214.236552
 Sum of electronic and thermal Free Energies=        -1214.303595

                     E (Thermal)             CV                S
                      KCal/Mol        Cal/Mol-Kelvin    Cal/Mol-Kelvin
 Total                  185.806             69.282            141.104
 Electronic               0.000              0.000              0.000
 Translational            0.889              2.981             42.841
 Rotational               0.889              2.981             34.612
 Vibrational            184.028             63.321             63.651
 Vibration     1          0.593              1.985              6.319
 Vibration     2          0.593              1.984              5.850
 Vibration     3          0.595              1.979              5.018
 Vibration     4          0.595              1.977              4.792
 Vibration     5          0.600              1.963              3.897
 Vibration     6          0.604              1.948              3.431
 Vibration     7          0.609              1.933              3.112
 Vibration     8          0.616              1.911              2.774
 Vibration     9          0.632              1.860              2.271
 Vibration    10          0.638              1.838              2.121
 Vibration    11          0.652              1.797              1.886
 Vibration    12          0.653              1.793              1.868
 Vibration    13          0.671              1.739              1.634
 Vibration    14          0.681              1.709              1.529
 Vibration    15          0.697              1.662              1.382
 Vibration    16          0.708              1.629              1.293
 Vibration    17          0.720              1.594              1.209
 Vibration    18          0.743              1.530              1.073
 Vibration    19          0.745              1.526              1.065
 Vibration    20          0.773              1.452              0.933
 Vibration    21          0.804              1.372              0.811
 Vibration    22          0.831              1.307              0.725
 Vibration    23          0.839              1.288              0.702
 Vibration    24          0.846              1.273              0.684
 Vibration    25          0.879              1.197              0.601
 Vibration    26          0.920              1.108              0.515
 Vibration    27          0.927              1.095              0.503
 Vibration    28          0.955              1.038              0.455
 Vibration    29          0.981              0.988              0.415

                           ! Non-Optimized Parameters !
 Normal termination of Gaussian 16 at Sat Dec 12 16:40:03 2020.

 ----------------------------------------------------------------------
 # B3LYP/6-311++G(d,p) empiricaldispersion=gd3bj scf=xqc pop=npa geom=c
 heck
 ----------------------------------------------------------------------

 ---------------------------------------
 CID_65274893_JID_10672_Energie_neutraal
 ---------------------------------------
 Structure from the checkpoint file:  "JID_10672.chk"
 Charge =  0 Multiplicity = 1

 SCF Done:  E(RB3LYP) =  -1214.77592371     A.U. after   17 cycles
 Normal termination of Gaussian 16 at Sat Dec 12 16:47:05 2020.

 ----------------------------------------------------------------------
 # B3LYP/6-311++G(d,p) empiricaldispersion=gd3bj scf=xqc pop=npa geom=c
 heck
 ----------------------------------------------------------------------

 -------------------------------------
 CID_65274893_JID_10672_Energie_kation
 -------------------------------------
 Structure from the checkpoint file:  "JID_10672.chk"
 Charge =  1 Multiplicity = 2

 SCF Done:  E(UB3LYP) =  -1214.49858316     A.U. after   27 cycles
 Normal termination of Gaussian 16 at Sat Dec 12 17:01:16 2020.
 Gaussian 16:  ES64L-G16RevA.03 25-Dec-2016

 ----------------------------------------------------------------------
 # B3LYP/6-311++G(d,p) empiricaldispersion=gd3bj scf=xqc pop=npa geom=c
 heck
 ----------------------------------------------------------------------

 ------------------------------------
 CID_65274893_JID_10672_Energie_anion
 ------------------------------------
 Structure from the checkpoint file:  "JID_10672.chk"
 Charge = -1 Multiplicity = 2

                         Standard orientation:
 ---------------------------------------------------------------------
 Center     Atomic      Atomic             Coordinates (Angstroms)
 Number     Number       Type             X           Y           Z
 ---------------------------------------------------------------------
      1          6           0       -4.471047    1.876391    1.729285
      2          6           0       -4.690305    1.293365    0.323559
      3          6           0       -4.551224    2.375897   -0.759489
      4          6           0       -3.725168    0.167002    0.066256
      5          7           0       -4.149431   -1.054447   -0.165844
      6         16           0       -2.804263   -2.052490   -0.409708
      7          6           0       -1.740423   -0.694143   -0.170610
      8          7           0       -2.366023    0.421924    0.074258
      9          7           0       -0.364831   -0.804067   -0.236986
     10          6           0        0.570010    0.184005   -0.053639
     11          6           0        1.806674   -0.405672   -0.211993
     12          6           0        1.500924   -1.777552   -0.492517
     13          7           0        0.199277   -2.015613   -0.506235
     14          6           0        3.127183    0.245869   -0.159852
     15          6           0        3.374254    1.380898   -0.943887
     16          6           0        4.613166    2.014739   -0.944254
     17          6           0        5.634644    1.500041   -0.142872
     18          6           0        5.410312    0.384244    0.654928
     19          6           0        4.158384   -0.253580    0.672050
     20          7           0        3.933835   -1.305141    1.554773
     21          1           0       -3.458462    2.282611    1.822080
     22          1           0       -4.604254    1.110734    2.500844
     23          1           0       -5.185957    2.684201    1.920530
     24          1           0       -5.693058    0.856901    0.268198
     25          1           0       -3.541381    2.799129   -0.750626
     26          1           0       -4.741156    1.965153   -1.756736
     27          1           0       -5.266615    3.185996   -0.580103
     28          1           0        0.270491    1.193548    0.179196
     29          1           0        2.193257   -2.580245   -0.712238
     30          1           0        2.574747    1.746050   -1.582750
     31          1           0        4.782960    2.886957   -1.567369
     32          1           0        6.613396    1.971804   -0.134800
     33          1           0        6.201871    0.003508    1.295989
     34          1           0        3.104700   -1.860771    1.402179
     35          1           0        4.743578   -1.853369    1.809397
 ---------------------------------------------------------------------

 SCF Done:  E(UB3LYP) =  -1214.79296773     A.U. after   33 cycles
 SCF Done:  E(UB3LYP) =  -1214.79296773     a.u. after    1 cycles

 The electronic state is 2-A.
 Alpha  occ. eigenvalues --  -88.74491 -14.26636 -14.22200 -14.19426 -14.17445
 Alpha  occ. eigenvalues --  -14.16315 -10.11655 -10.10786 -10.09668 -10.07716
 Alpha  occ. eigenvalues --  -10.07663 -10.07312 -10.07191 -10.06986 -10.06861
 Alpha  occ. eigenvalues --  -10.06456 -10.06304 -10.05815 -10.05804 -10.04918
 Alpha  occ. eigenvalues --   -7.82961  -5.79361  -5.78904  -5.78467  -0.92698
 Alpha  occ. eigenvalues --   -0.85814  -0.82620  -0.74616  -0.74228  -0.70537
 Alpha  occ. eigenvalues --   -0.68853  -0.68078  -0.63981  -0.63057  -0.60254
 Alpha  occ. eigenvalues --   -0.58357  -0.53506  -0.50970  -0.50610  -0.49853
 Alpha  occ. eigenvalues --   -0.46596  -0.43788  -0.42532  -0.41971  -0.40903
 Alpha  occ. eigenvalues --   -0.38868  -0.36896  -0.35006  -0.34154  -0.33938
 Alpha  occ. eigenvalues --   -0.33586  -0.33423  -0.31607  -0.31375  -0.31316
 Alpha  occ. eigenvalues --   -0.29304  -0.28664  -0.28265  -0.27382  -0.27129
 Alpha  occ. eigenvalues --   -0.26437  -0.24871  -0.24114  -0.23188  -0.22241
 Alpha  occ. eigenvalues --   -0.21921  -0.18794  -0.17689  -0.17542  -0.15833
 Alpha  occ. eigenvalues --   -0.14189  -0.13943  -0.13203  -0.11598  -0.09722
 Alpha  occ. eigenvalues --    0.03662
 Alpha virt. eigenvalues --    0.06318   0.07388   0.07497   0.08083   0.08821
 Alpha virt. eigenvalues --    0.09532   0.09588   0.10339   0.10565   0.10726
 Alpha virt. eigenvalues --    0.11239   0.12293   0.12637   0.13053   0.13173

  Beta  occ. eigenvalues --  -88.74439 -14.26721 -14.22176 -14.19131 -14.17151
  Beta  occ. eigenvalues --  -14.16186 -10.11649 -10.10295 -10.09689 -10.07707
  Beta  occ. eigenvalues --  -10.07623 -10.07308 -10.07193 -10.06961 -10.06870
  Beta  occ. eigenvalues --  -10.06385 -10.05954 -10.05813 -10.05802 -10.04930
  Beta  occ. eigenvalues --   -7.82914  -5.79343  -5.78889  -5.78279  -0.92415
  Beta  occ. eigenvalues --   -0.85453  -0.82575  -0.74368  -0.73902  -0.70290
  Beta  occ. eigenvalues --   -0.68743  -0.67756  -0.63775  -0.62899  -0.60037
  Beta  occ. eigenvalues --   -0.58351  -0.53251  -0.50935  -0.50273  -0.49732
  Beta  occ. eigenvalues --   -0.46479  -0.43523  -0.42436  -0.41861  -0.40672
  Beta  occ. eigenvalues --   -0.38723  -0.36783  -0.34891  -0.33885  -0.33759
  Beta  occ. eigenvalues --   -0.33385  -0.32995  -0.31456  -0.31209  -0.31177
  Beta  occ. eigenvalues --   -0.29201  -0.28603  -0.28067  -0.27213  -0.26688
  Beta  occ. eigenvalues --   -0.26211  -0.24824  -0.23893  -0.23169  -0.22031
  Beta  occ. eigenvalues --   -0.21831  -0.17884  -0.17272  -0.16877  -0.15253
  Beta  occ. eigenvalues --   -0.13700  -0.13380  -0.12029  -0.10712  -0.09035
  Beta virt. eigenvalues --    0.06277   0.07364   0.07459   0.08208   0.08773
  Beta virt. eigenvalues --    0.09169   0.09580   0.10046   0.10328   0.10539
  Beta virt. eigenvalues --    0.10709   0.11221   0.12261   0.12830   0.13037

 Mulliken charges and spin densities:
               1          2
     1  C   -0.552075  -0.000855
     2  C    0.157487  -0.000950
     3  C   -0.550147  -0.004689
     4  C   -1.024470  -0.035214
     5  N   -0.039900   0.125874
     6  S    0.267576   0.132055
     7  C    0.003370   0.216159
     8  N   -0.054040   0.084965
     9  N    0.284736  -0.054181
    10  C   -0.545010   0.229685
    11  C    0.513742   0.042389
    12  C   -0.320752   0.033693
    13  N   -0.081769   0.142093
    14  C    1.220826   0.019942
    15  C   -0.114758   0.003643
    16  C   -0.504988  -0.008978
    17  C   -0.213761   0.034427
    18  C   -0.492172   0.053725
    19  C   -0.984656  -0.038734
    20  N   -0.249992  -0.029650
    21  H    0.149121  -0.000133
    22  H    0.134117   0.000150
    23  H    0.118428   0.008085
    24  H    0.157650  -0.000985
    25  H    0.147003   0.004044
    26  H    0.133892   0.000258
    27  H    0.116964   0.009208
    28  H    0.223636  -0.023460
    29  H    0.126873  -0.009723
    30  H    0.149730   0.012366
    31  H    0.133941   0.000803
    32  H    0.121643  -0.002090
    33  H    0.102295   0.006142
    34  H    0.262260   0.030089
    35  H    0.203200   0.019847
 Sum of Mulliken charges =  -1.00000   1.00000

 Dipole moment (field-independent basis, Debye):
    X=              4.4687    Y=              2.3894    Z=              0.9909  Tot=              5.1634
 Quadrupole moment (field-independent basis, Debye-Ang):
   XX=           -183.1282   YY=           -143.1684   ZZ=           -137.4830
   XY=            -16.2615   XZ=              0.8773   YZ=             -5.7972

 Summary of Natural Population Analysis:

                                       Natural Population
                Natural  -----------------------------------------------
    Atom  No    Charge         Core      Valence    Rydberg      Total
 -----------------------------------------------------------------------
      C    1   -0.28101      0.99966     2.27674    0.00461     3.28101
      C    2   -0.12630      0.99956     2.11790    0.00884     3.12630
      C    3   -0.28099      0.99966     2.27673    0.00460     3.28099
      C    4    0.18599      0.99961     1.79465    0.01975     2.81401
      N    5   -0.30091      0.99968     2.78623    0.01499     3.80091
      S    6    0.27348      4.99948     2.70117    0.02587     7.72652
      C    7    0.20733      0.99959     1.77463    0.01844     2.79267
      N    8   -0.27264      0.99962     2.76212    0.01090     3.77264
      N    9   -0.13022      0.99960     2.61614    0.01448     3.63022
      C   10    0.07548      0.99952     1.91564    0.00936     2.92452
      C   11   -0.09696      0.99951     2.08764    0.00982     3.09696
      C   12   -0.00481      0.99961     1.99042    0.01478     3.00481
      N   13   -0.11073      0.99972     2.60011    0.01089     3.61073
      C   14   -0.03771      0.99947     2.02915    0.00909     3.03771
      C   15   -0.08060      0.99954     2.07279    0.00827     3.08060
      C   16   -0.12976      0.99957     2.12051    0.00968     3.12976
      C   17   -0.09656      0.99958     2.08767    0.00931     3.09656
      C   18   -0.13017      0.99954     2.12177    0.00887     3.13017
      C   19    0.09223      0.99947     1.89857    0.00973     2.90777
      N   20   -0.39796      0.99971     2.88887    0.00938     3.89796
      H   21    0.10426      0.00000     0.39483    0.00091     0.39574
      H   22    0.09967      0.00000     0.39955    0.00079     0.40033
      H   23    0.08913      0.00000     0.40999    0.00088     0.41087
      H   24    0.09962      0.00000     0.39848    0.00190     0.40038
      H   25    0.10415      0.00000     0.39493    0.00092     0.39585
      H   26    0.09965      0.00000     0.39957    0.00079     0.40035
      H   27    0.08914      0.00000     0.40998    0.00089     0.41086
      H   28    0.10646      0.00000     0.39253    0.00102     0.39354
      H   29    0.09058      0.00000     0.40841    0.00101     0.40942
      H   30    0.10172      0.00000     0.39686    0.00142     0.39828
      H   31    0.09564      0.00000     0.40332    0.00104     0.40436
      H   32    0.09331      0.00000     0.40566    0.00103     0.40669
      H   33    0.09228      0.00000     0.40616    0.00156     0.40772
      H   34    0.19733      0.00000     0.30113    0.00154     0.30267
      H   35    0.17988      0.00000     0.31837    0.00175     0.32012
 =======================================================================
   * Total *    0.00000     23.99169    50.75921    0.24910    75.00000

 Normal termination of Gaussian 16 at Sat Dec 12 17:18:28 2020.
