 Gaussian 16, Revision A.03,

 -----------------------------------------------------------
 # opt freq B3LYP/6-31G(d) empiricaldispersion=gd3bj scf=xqc
 -----------------------------------------------------------

 -------------------------------
 CID_130510388_JID_1784_neutraal
 -------------------------------
 Symbolic Z-matrix:
 Charge =  0 Multiplicity = 1

 SCF Done:  E(RB3LYP) =  -483.177211761     A.U. after   13 cycles
 SCF Done:  E(RB3LYP) =  -483.180030368     A.U. after   11 cycles
 SCF Done:  E(RB3LYP) =  -483.180367076     A.U. after   10 cycles
 SCF Done:  E(RB3LYP) =  -483.180434614     A.U. after   10 cycles
 SCF Done:  E(RB3LYP) =  -483.180521511     A.U. after   10 cycles
 SCF Done:  E(RB3LYP) =  -483.180555587     A.U. after   10 cycles
 SCF Done:  E(RB3LYP) =  -483.180584377     A.U. after   10 cycles
 SCF Done:  E(RB3LYP) =  -483.180598557     A.U. after   10 cycles
 SCF Done:  E(RB3LYP) =  -483.180608486     A.U. after    9 cycles
 SCF Done:  E(RB3LYP) =  -483.180609633     A.U. after    7 cycles
 SCF Done:  E(RB3LYP) =  -483.180609755     A.U. after    7 cycles
 Optimization completed.
    -- Stationary point found.
 Normal termination of Gaussian 16 at Tue Dec  8 21:06:38 2020.

 --------------------------------------------------------------------
 #N Geom=AllCheck Guess=TCheck SCRF=Check GenChk RB3LYP/6-31G(d) Freq
 --------------------------------------------------------------------

 Structure from the checkpoint file:  "JID_1784.chk"
 -------------------------------
 CID_130510388_JID_1784_neutraal
 -------------------------------
 Charge =  0 Multiplicity = 1

 SCF Done:  E(RB3LYP) =  -483.180609755     A.U. after    1 cycles

  Exact polarizability: 126.980   1.734  93.009  -8.388   0.016  85.060
 Approx polarizability: 160.887   1.390 134.914 -15.880   1.346 132.048

                      1                      2                      3
                      A                      A                      A
 Frequencies --     59.0887                77.3883               108.4145
 Red. masses --      2.9852                 2.5585                 3.5959
 Frc consts  --      0.0061                 0.0090                 0.0249
 IR Inten    --      0.2737                 1.1480                 1.9041

                      4                      5                      6
                      A                      A                      A
 Frequencies --    135.5226               166.8413               224.1266
 Red. masses --      2.5052                 2.0813                 1.5557
 Frc consts  --      0.0271                 0.0341                 0.0460
 IR Inten    --      0.6024                 0.0709                 2.5341

                      7                      8                      9
                      A                      A                      A
 Frequencies --    239.9104               282.1463               302.0292
 Red. masses --      1.0537                 2.8162                 2.7824
 Frc consts  --      0.0357                 0.1321                 0.1495
 IR Inten    --      0.1622                 3.8611                 1.4472

                     10                     11                     12
                      A                      A                      A
 Frequencies --    313.7053               338.2865               368.4117
 Red. masses --      1.8973                 3.3944                 1.7809
 Frc consts  --      0.1100                 0.2289                 0.1424
 IR Inten    --      0.2070                 0.2235                52.6478

                     13                     14                     15
                      A                      A                      A
 Frequencies --    404.0038               418.2945               433.6044
 Red. masses --      2.0675                 1.8159                 2.1590
 Frc consts  --      0.1988                 0.1872                 0.2392
 IR Inten    --     37.0337                60.1443                16.2051

                     16                     17                     18
                      A                      A                      A
 Frequencies --    494.8636               636.5665               677.7841
 Red. masses --      2.8732                 2.1936                 1.5556
 Frc consts  --      0.4146                 0.5237                 0.4210
 IR Inten    --      9.9728                 7.8076                 5.7651

                     19                     20                     21
                      A                      A                      A
 Frequencies --    748.4266               795.1787               805.0849
 Red. masses --      3.8758                 1.7333                 3.5547
 Frc consts  --      1.2791                 0.6457                 1.3575
 IR Inten    --      2.4591                32.2782                 6.9789

                     22                     23                     24
                      A                      A                      A
 Frequencies --    818.1904               832.3811               889.3159
 Red. masses --      1.7952                 2.5318                 1.8404
 Frc consts  --      0.7080                 1.0335                 0.8576
 IR Inten    --     13.9661                37.1715                22.5193

                     25                     26                     27
                      A                      A                      A
 Frequencies --    909.2822               923.1496               946.4014
 Red. masses --      1.8424                 2.0008                 2.2676
 Frc consts  --      0.8975                 1.0046                 1.1966
 IR Inten    --      9.2024                 7.4771                 7.8831

                     28                     29                     30
                      A                      A                      A
 Frequencies --    959.6747               964.2924               988.0508
 Red. masses --      1.3009                 1.7804                 1.6698
 Frc consts  --      0.7059                 0.9754                 0.9604
 IR Inten    --      3.4984                12.1664                 2.2858

                     31                     32                     33
                      A                      A                      A
 Frequencies --   1012.9082              1054.3532              1077.8323
 Red. masses --      2.2782                 1.8778                 1.4869
 Frc consts  --      1.3772                 1.2299                 1.0177
 IR Inten    --     25.4337                 7.8112                 6.0812

                     34                     35                     36
                      A                      A                      A
 Frequencies --   1084.8048              1092.1605              1120.1852
 Red. masses --      2.3094                 1.6875                 3.2865
 Frc consts  --      1.6012                 1.1860                 2.4298
 IR Inten    --     12.5663                 4.6954                19.9234

                     37                     38                     39
                      A                      A                      A
 Frequencies --   1139.4822              1166.1216              1200.8847
 Red. masses --      1.2600                 1.6449                 2.0015
 Frc consts  --      0.9639                 1.3179                 1.7006
 IR Inten    --      1.8743                25.9862                10.3015

                     40                     41                     42
                      A                      A                      A
 Frequencies --   1207.2420              1247.7045              1289.2718
 Red. masses --      2.0283                 1.3111                 1.3376
 Frc consts  --      1.7417                 1.2026                 1.3100
 IR Inten    --     16.5398                11.8845                13.2797

                     43                     44                     45
                      A                      A                      A
 Frequencies --   1306.9039              1316.8749              1334.0017
 Red. masses --      1.2420                 1.3730                 1.3076
 Frc consts  --      1.2499                 1.4028                 1.3710
 IR Inten    --     10.4278                 9.6965                14.9028

                     46                     47                     48
                      A                      A                      A
 Frequencies --   1359.3049              1373.7751              1390.2282
 Red. masses --      1.4662                 1.6968                 1.5431
 Frc consts  --      1.5962                 1.8868                 1.7572
 IR Inten    --     12.0607                 0.9233                 7.0658

                     49                     50                     51
                      A                      A                      A
 Frequencies --   1405.9647              1421.4212              1446.4515
 Red. masses --      1.4159                 1.3708                 1.2604
 Frc consts  --      1.6491                 1.6318                 1.5537
 IR Inten    --      2.8761                17.0561                 4.3978

                     52                     53                     54
                      A                      A                      A
 Frequencies --   1448.0350              1507.1463              1511.6355
 Red. masses --      1.4106                 1.0858                 1.0694
 Frc consts  --      1.7427                 1.4532                 1.4398
 IR Inten    --     18.3728                 0.5842                 4.9799

                     55                     56                     57
                      A                      A                      A
 Frequencies --   1521.4191              1528.1111              1532.1995
 Red. masses --      1.0618                 1.0468                 1.1020
 Frc consts  --      1.4481                 1.4403                 1.5243
 IR Inten    --      4.5286                 4.6491                12.7648

                     58                     59                     60
                      A                      A                      A
 Frequencies --   1535.0151              1537.1065              1545.9207
 Red. masses --      1.0861                 1.0518                 1.0798
 Frc consts  --      1.5078                 1.4642                 1.5204
 IR Inten    --     19.7392                 9.0210                 1.7862

                     61                     62                     63
                      A                      A                      A
 Frequencies --   1693.6188              2988.4863              3002.9234
 Red. masses --      6.3249                 1.0828                 1.0714
 Frc consts  --     10.6889                 5.6980                 5.6923
 IR Inten    --      1.4355                44.4661                75.2062

                     64                     65                     66
                      A                      A                      A
 Frequencies --   3022.2596              3039.3654              3046.0136
 Red. masses --      1.0609                 1.0635                 1.0438
 Frc consts  --      5.7095                 5.7885                 5.7058
 IR Inten    --     26.8623                29.8492                28.9597

                     67                     68                     69
                      A                      A                      A
 Frequencies --   3059.5148              3062.2297              3069.7821
 Red. masses --      1.0997                 1.0922                 1.0448
 Frc consts  --      6.0652                 6.0341                 5.8011
 IR Inten    --     32.6540                37.4967                 7.9991

                     70                     71                     72
                      A                      A                      A
 Frequencies --   3077.4409              3104.4844              3140.1002
 Red. masses --      1.0891                 1.1006                 1.1003
 Frc consts  --      6.0769                 6.2495                 6.3921
 IR Inten    --     48.0113                60.4908                18.8635

                     73                     74                     75
                      A                      A                      A
 Frequencies --   3152.5185              3156.9720              3203.8394
 Red. masses --      1.0985                 1.1028                 1.0859
 Frc consts  --      6.4320                 6.4755                 6.5674
 IR Inten    --     26.0826                14.1895                 9.5141

                     76                     77                     78
                      A                      A                      A
 Frequencies --   3228.9944              3478.1978              3698.1115
 Red. masses --      1.1032                 1.0733                 1.0654
 Frc consts  --      6.7771                 7.6503                 8.5849
 IR Inten    --     17.7030                11.1065                12.9143

 - Thermochemistry -
 -------------------
 Temperature   298.150 Kelvin.  Pressure   1.00000 Atm.
 Atom     1 has atomic number  6 and mass  12.00000

 Molecular mass:   155.13101 amu.
 Principal axes and moments of inertia in atomic units:
                           1         2         3
     Eigenvalues --   788.641592767.299972975.83177
           X            0.99999  -0.00226  -0.00306
           Y            0.00218   0.99964  -0.02658
           Z            0.00312   0.02657   0.99964
 This molecule is an asymmetric top.
 Rotational symmetry number  1.
 Warning -- assumption of classical behavior for rotation
           may cause significant error
 Rotational temperatures (Kelvin)      0.10983     0.03130     0.02911
 Rotational constants (GHZ):           2.28842     0.65217     0.60647
 Zero-point vibrational energy     665122.1 (Joules/Mol)
                                  158.96800 (Kcal/Mol)
 Warning -- explicit consideration of  16 degrees of freedom as
           vibrations may cause significant error
 Vibrational temperatures:     85.02   111.34   155.98   194.99   240.05
          (Kelvin)            322.47   345.18   405.95   434.55   451.35
                              486.72   530.06   581.27   601.83   623.86
                              712.00   915.88   975.18  1076.82  1144.08
                             1158.34  1177.19  1197.61  1279.53  1308.25
                             1328.21  1361.66  1380.76  1387.40  1421.58
                             1457.35  1516.98  1550.76  1560.79  1571.38
                             1611.70  1639.46  1677.79  1727.81  1736.95
                             1795.17  1854.97  1880.34  1894.69  1919.33
                             1955.74  1976.56  2000.23  2022.87  2045.11
                             2081.12  2083.40  2168.45  2174.91  2188.98
                             2198.61  2204.49  2208.54  2211.55  2224.24
                             2436.74  4299.77  4320.54  4348.36  4372.97
                             4382.53  4401.96  4405.87  4416.73  4427.75
                             4466.66  4517.90  4535.77  4542.18  4609.61
                             4645.80  5004.35  5320.76

 Zero-point correction=                           0.253332 (Hartree/Particle)
 Thermal correction to Energy=                    0.265239
 Thermal correction to Enthalpy=                  0.266183
 Thermal correction to Gibbs Free Energy=         0.216016
 Sum of electronic and zero-point Energies=           -482.927278
 Sum of electronic and thermal Energies=              -482.915371
 Sum of electronic and thermal Enthalpies=            -482.914427
 Sum of electronic and thermal Free Energies=         -482.964594

                     E (Thermal)             CV                S
                      KCal/Mol        Cal/Mol-Kelvin    Cal/Mol-Kelvin
 Total                  166.440             45.936            105.586
 Electronic               0.000              0.000              0.000
 Translational            0.889              2.981             41.027
 Rotational               0.889              2.981             30.253
 Vibrational            164.662             39.974             34.307
 Vibration     1          0.596              1.974              4.487
 Vibration     2          0.599              1.964              3.956
 Vibration     3          0.606              1.942              3.297
 Vibration     4          0.613              1.918              2.866
 Vibration     5          0.624              1.883              2.471
 Vibration     6          0.649              1.804              1.926
 Vibration     7          0.657              1.779              1.804
 Vibration     8          0.681              1.707              1.521
 Vibration     9          0.694              1.670              1.406
 Vibration    10          0.702              1.648              1.343
 Vibration    11          0.719              1.599              1.220
 Vibration    12          0.741              1.537              1.086
 Vibration    13          0.769              1.461              0.948
 Vibration    14          0.781              1.430              0.898
 Vibration    15          0.794              1.397              0.847
 Vibration    16          0.850              1.261              0.671

 Optimization completed.
    -- Stationary point found.
 Normal termination of Gaussian 16 at Tue Dec  8 21:13:04 2020.

 ----------------------------------------------------------------------
 # B3LYP/6-311++G(d,p) empiricaldispersion=gd3bj scf=xqc pop=npa geom=c
 heck
 ----------------------------------------------------------------------

 ---------------------------------------
 CID_130510388_JID_1784_Energie_neutraal
 ---------------------------------------
 Structure from the checkpoint file:  "JID_1784.chk"
 Charge =  0 Multiplicity = 1

 SCF Done:  E(RB3LYP) =  -483.328305007     A.U. after   14 cycles
 Normal termination of Gaussian 16 at Tue Dec  8 21:16:01 2020.

 ----------------------------------------------------------------------
 # B3LYP/6-311++G(d,p) empiricaldispersion=gd3bj scf=xqc pop=npa geom=c
 heck
 ----------------------------------------------------------------------

 -------------------------------------
 CID_130510388_JID_1784_Energie_kation
 -------------------------------------
 Structure from the checkpoint file:  "JID_1784.chk"
 Charge =  1 Multiplicity = 2

 SCF Done:  E(UB3LYP) =  -483.016694702     A.U. after   22 cycles
 Normal termination of Gaussian 16 at Tue Dec  8 21:21:40 2020.
 Gaussian 16:  ES64L-G16RevA.03 25-Dec-2016

 ----------------------------------------------------------------------
 # B3LYP/6-311++G(d,p) empiricaldispersion=gd3bj scf=xqc pop=npa geom=c
 heck
 ----------------------------------------------------------------------

 ------------------------------------
 CID_130510388_JID_1784_Energie_anion
 ------------------------------------
 Structure from the checkpoint file:  "JID_1784.chk"
 Charge = -1 Multiplicity = 2

                         Standard orientation:
 ---------------------------------------------------------------------
 Center     Atomic      Atomic             Coordinates (Angstroms)
 Number     Number       Type             X           Y           Z
 ---------------------------------------------------------------------
      1          6           0        3.371249   -0.533617    0.890374
      2          6           0        2.899566   -0.401901   -0.561258
      3          6           0        1.395906   -0.632740   -0.775465
      4          6           0        0.428277    0.390144   -0.144535
      5          6           0        0.842980    1.831709   -0.439746
      6          6           0       -1.016758    0.139927   -0.663250
      7          6           0       -1.546941   -1.266866   -0.436862
      8          6           0       -2.745547   -1.227346    0.146873
      9          6           0       -3.178322    0.206317    0.350480
     10          7           0       -1.981097    1.017006    0.043534
     11          8           0        0.419412    0.277831    1.291074
     12          1           0        2.900102    0.210956    1.535756
     13          1           0        4.459285   -0.419098    0.956903
     14          1           0        3.115403   -1.521882    1.293387
     15          1           0        3.183348    0.581425   -0.955793
     16          1           0        3.436136   -1.134984   -1.178272
     17          1           0        1.194741   -0.660157   -1.855661
     18          1           0        1.139565   -1.630535   -0.392892
     19          1           0        0.979890    1.973732   -1.516891
     20          1           0        0.074980    2.529886   -0.099429
     21          1           0        1.781232    2.072056    0.066567
     22          1           0       -1.020189    0.364405   -1.742389
     23          1           0       -1.040406   -2.163868   -0.777166
     24          1           0       -3.373924   -2.083267    0.374894
     25          1           0       -3.544187    0.418666    1.363109
     26          1           0       -4.002868    0.452780   -0.337206
     27          1           0       -1.533265    1.236365    0.932849
     28          1           0        0.060082   -0.601934    1.499227
 ---------------------------------------------------------------------

 SCF Done:  E(UB3LYP) =  -483.313013988     A.U. after   29 cycles

 The electronic state is 2-A.
 Alpha  occ. eigenvalues --  -19.01977 -14.18937 -10.12825 -10.09658 -10.09309
 Alpha  occ. eigenvalues --  -10.06946 -10.06564 -10.06237 -10.06212 -10.05680
 Alpha  occ. eigenvalues --  -10.04975  -0.92533  -0.81713  -0.70062  -0.66508
 Alpha  occ. eigenvalues --   -0.65521  -0.60733  -0.58340  -0.52034  -0.48480
 Alpha  occ. eigenvalues --   -0.46857  -0.44112  -0.41947  -0.38150  -0.37811
 Alpha  occ. eigenvalues --   -0.34741  -0.34353  -0.32605  -0.31812  -0.29662
 Alpha  occ. eigenvalues --   -0.28595  -0.28168  -0.28124  -0.27959  -0.26331
 Alpha  occ. eigenvalues --   -0.25083  -0.24317  -0.24215  -0.23001  -0.21205
 Alpha  occ. eigenvalues --   -0.17491  -0.15452  -0.12919   0.04601
 Alpha virt. eigenvalues --    0.06657   0.07885   0.08050   0.08814   0.09209
 Alpha virt. eigenvalues --    0.09606   0.09975   0.10434   0.11202   0.11749
 Alpha virt. eigenvalues --    0.11986   0.12375   0.13608   0.14233   0.14359

  Beta  occ. eigenvalues --  -19.01954 -14.18930 -10.12822 -10.09651 -10.09290
  Beta  occ. eigenvalues --  -10.06918 -10.06551 -10.06214 -10.06190 -10.05660
  Beta  occ. eigenvalues --  -10.04952  -0.92485  -0.81691  -0.70027  -0.66467
  Beta  occ. eigenvalues --   -0.65488  -0.60694  -0.58290  -0.51983  -0.48423
  Beta  occ. eigenvalues --   -0.46795  -0.44057  -0.41902  -0.38114  -0.37772
  Beta  occ. eigenvalues --   -0.34701  -0.34323  -0.32569  -0.31776  -0.29630
  Beta  occ. eigenvalues --   -0.28566  -0.28137  -0.28094  -0.27919  -0.26296
  Beta  occ. eigenvalues --   -0.25042  -0.24284  -0.24182  -0.22961  -0.21170
  Beta  occ. eigenvalues --   -0.17463  -0.15417  -0.12895
  Beta virt. eigenvalues --    0.06868   0.07627   0.08466   0.08764   0.09331
  Beta virt. eigenvalues --    0.09864   0.09952   0.10192   0.10848   0.11664
  Beta virt. eigenvalues --    0.12088   0.12508   0.12626   0.13783   0.14514

 Mulliken charges and spin densities:
               1          2
     1  C    0.217209  -0.823426
     2  C    0.004089  -0.300732
     3  C   -0.587301   0.319660
     4  C    0.533793  -0.421971
     5  C    0.771128  -1.368243
     6  C   -0.179696  -0.031747
     7  C   -0.403189   0.206690
     8  C    0.306450  -0.368001
     9  C    1.079434  -1.639059
    10  N   -0.049209  -0.013963
    11  O   -0.170378   0.016261
    12  H   -0.011813   0.195725
    13  H   -0.159619   0.286908
    14  H   -0.153087   0.285990
    15  H   -0.005085   0.133969
    16  H   -0.560547   0.727308
    17  H   -0.264296   0.451250
    18  H    0.283165  -0.158481
    19  H   -0.176701   0.342233
    20  H    0.149599  -0.019567
    21  H    0.153997  -0.002317
    22  H   -0.039538   0.255788
    23  H   -0.776816   0.958320
    24  H   -0.880721   1.060786
    25  H   -0.293466   0.433590
    26  H   -0.050557   0.203981
    27  H    0.166027   0.108714
    28  H    0.097130   0.160335
 Sum of Mulliken charges =  -1.00000   1.00000

 Dipole moment (field-independent basis, Debye):
    X=              0.7438    Y=              4.0060    Z=              0.6587  Tot=              4.1274
 Quadrupole moment (field-independent basis, Debye-Ang):
   XX=           -139.1971   YY=           -111.6458   ZZ=           -104.4115
   XY=             -1.7436   XZ=              3.9525   YZ=             -1.0341

 Summary of Natural Population Analysis:

                                       Natural Population
                Natural  -----------------------------------------------
    Atom  No    Charge         Core      Valence    Rydberg      Total
 -----------------------------------------------------------------------
      C    1   -0.28822      0.99966     2.28264    0.00591     3.28822
      C    2   -0.18973      0.99964     2.18147    0.00862     3.18973
      C    3   -0.20113      0.99957     2.19049    0.01106     3.20113
      C    4    0.13173      0.99950     1.85278    0.01599     2.86827
      C    5   -0.29396      0.99960     2.28781    0.00654     3.29396
      C    6   -0.03081      0.99954     2.01663    0.01464     3.03081
      C    7   -0.11600      0.99950     2.10475    0.01175     3.11600
      C    8   -0.09010      0.99951     2.08098    0.00960     3.09010
      C    9   -0.10129      0.99963     2.09006    0.01160     3.10129
      N   10   -0.34310      0.99976     2.83200    0.01134     3.84310
      O   11   -0.38477      0.99989     3.37796    0.00692     4.38477
      H   12    0.10452      0.00000     0.39438    0.00110     0.39548
      H   13    0.09393      0.00000     0.40521    0.00086     0.40607
      H   14    0.09605      0.00000     0.40287    0.00107     0.40395
      H   15    0.09288      0.00000     0.40590    0.00121     0.40712
      H   16    0.09735      0.00000     0.40119    0.00146     0.40265
      H   17    0.10329      0.00000     0.39484    0.00187     0.39671
      H   18    0.09940      0.00000     0.39841    0.00218     0.40060
      H   19    0.10186      0.00000     0.39714    0.00100     0.39814
      H   20    0.10739      0.00000     0.39148    0.00113     0.39261
      H   21    0.10296      0.00000     0.39613    0.00091     0.39704
      H   22    0.09664      0.00000     0.40178    0.00157     0.40336
      H   23    0.10818      0.00000     0.38979    0.00203     0.39182
      H   24    0.10342      0.00000     0.39380    0.00278     0.39658
      H   25    0.09503      0.00000     0.40351    0.00146     0.40497
      H   26    0.09026      0.00000     0.40839    0.00136     0.40974
      H   27    0.17997      0.00000     0.31658    0.00345     0.32003
      H   28    0.23421      0.00000     0.26242    0.00337     0.26579
 =======================================================================
   * Total *   -0.00000     10.99581    31.86139    0.14280    43.00000

 Normal termination of Gaussian 16 at Tue Dec  8 21:30:05 2020.
