 Gaussian 16, Revision A.03,

 -----------------------------------------------------------
 # opt freq B3LYP/6-31G(d) empiricaldispersion=gd3bj scf=xqc
 -----------------------------------------------------------

 ------------------------------
 CID_90296862_JID_4331_neutraal
 ------------------------------
 Symbolic Z-matrix:
 Charge =  0 Multiplicity = 1

 SCF Done:  E(RB3LYP) =  -1357.18451477     A.U. after   14 cycles
 SCF Done:  E(RB3LYP) =  -1357.19414661     A.U. after   12 cycles
 SCF Done:  E(RB3LYP) =  -1357.19146989     A.U. after   12 cycles
 SCF Done:  E(RB3LYP) =  -1357.19684817     A.U. after   12 cycles
 SCF Done:  E(RB3LYP) =  -1357.20020397     A.U. after   13 cycles
 SCF Done:  E(RB3LYP) =  -1357.20345864     A.U. after   12 cycles
 SCF Done:  E(RB3LYP) =  -1357.20548101     A.U. after   13 cycles
 SCF Done:  E(RB3LYP) =  -1357.20749238     A.U. after   12 cycles
 SCF Done:  E(RB3LYP) =  -1357.20851280     A.U. after   12 cycles
 SCF Done:  E(RB3LYP) =  -1357.20998354     A.U. after   13 cycles
 SCF Done:  E(RB3LYP) =  -1357.21173342     A.U. after    9 cycles
 SCF Done:  E(RB3LYP) =  -1357.21173548     A.U. after    8 cycles
 SCF Done:  E(RB3LYP) =  -1357.21173634     A.U. after    8 cycles
 SCF Done:  E(RB3LYP) =  -1357.21173648     A.U. after    7 cycles
 Optimization completed.
    -- Stationary point found.
 Normal termination of Gaussian 16 at Thu Dec 10 09:38:05 2020.

 --------------------------------------------------------------------
 #N Geom=AllCheck Guess=TCheck SCRF=Check GenChk RB3LYP/6-31G(d) Freq
 --------------------------------------------------------------------

 Structure from the checkpoint file:  "JID_4331.chk"
 ------------------------------
 CID_90296862_JID_4331_neutraal
 ------------------------------
 Charge =  0 Multiplicity = 1

 SCF Done:  E(RB3LYP) =  -1357.21173648     A.U. after    1 cycles

  Exact polarizability: 176.988  -6.633 130.052   5.961   3.025 124.488
 Approx polarizability: 239.776 -14.447 200.573  11.588  -0.363 190.916

                      1                      2                      3
                      A                      A                      A
 Frequencies --     32.7916                60.8844                65.5680
 Red. masses --      5.2852                 5.1760                 4.2401
 Frc consts  --      0.0033                 0.0113                 0.0107
 IR Inten    --      1.3966                 1.0452                 0.2690

                      4                      5                      6
                      A                      A                      A
 Frequencies --    112.4672               130.0326               157.0914
 Red. masses --      4.8565                 3.9693                 7.8801
 Frc consts  --      0.0362                 0.0395                 0.1146
 IR Inten    --      0.9818                 0.0913                 0.7458

                      7                      8                      9
                      A                      A                      A
 Frequencies --    171.3277               205.5871               225.5824
 Red. masses --      5.4874                 3.1598                 2.0472
 Frc consts  --      0.0949                 0.0787                 0.0614
 IR Inten    --      6.6224                 1.6360                13.6320

                     10                     11                     12
                      A                      A                      A
 Frequencies --    231.4794               246.5872               274.3504
 Red. masses --      1.3619                 2.8404                 1.1471
 Frc consts  --      0.0430                 0.1018                 0.0509
 IR Inten    --      4.4194                 0.8793                 1.3448

                     13                     14                     15
                      A                      A                      A
 Frequencies --    279.2415               285.0179               286.0530
 Red. masses --      1.1948                 2.7747                 2.1202
 Frc consts  --      0.0549                 0.1328                 0.1022
 IR Inten    --     28.4880                 3.9288                11.7090

                     16                     17                     18
                      A                      A                      A
 Frequencies --    290.0290               310.7929               317.7660
 Red. masses --      2.3151                 2.1719                 1.7711
 Frc consts  --      0.1147                 0.1236                 0.1054
 IR Inten    --      4.7019                 2.9875                 4.4445

                     19                     20                     21
                      A                      A                      A
 Frequencies --    326.8406               329.5698               348.5816
 Red. masses --      1.3676                 1.8538                 2.1561
 Frc consts  --      0.0861                 0.1186                 0.1544
 IR Inten    --    100.4012                 7.4605                38.6608

                     22                     23                     24
                      A                      A                      A
 Frequencies --    365.7123               385.8808               390.0458
 Red. masses --      1.3293                 1.2836                 2.1510
 Frc consts  --      0.1048                 0.1126                 0.1928
 IR Inten    --     53.7280                42.7549                 4.3120

                     25                     26                     27
                      A                      A                      A
 Frequencies --    408.7326               434.3896               456.1376
 Red. masses --      2.5124                 2.8744                 2.7944
 Frc consts  --      0.2473                 0.3196                 0.3426
 IR Inten    --      6.3570                43.5259                11.6206

                     28                     29                     30
                      A                      A                      A
 Frequencies --    463.7246               519.9816               544.4620
 Red. masses --      2.6703                 2.7895                 3.4472
 Frc consts  --      0.3383                 0.4444                 0.6021
 IR Inten    --      6.1532                 8.3523                66.5694

                     31                     32                     33
                      A                      A                      A
 Frequencies --    563.0686               604.0956               709.3534
 Red. masses --      2.9484                 3.2948                 4.1350
 Frc consts  --      0.5508                 0.7084                 1.2259
 IR Inten    --      3.7615                 5.8176                 3.0172

                     34                     35                     36
                      A                      A                      A
 Frequencies --    754.5579               801.4433               846.9078
 Red. masses --      3.5938                 3.2493                 2.2064
 Frc consts  --      1.2056                 1.2297                 0.9324
 IR Inten    --      8.4851                 0.9332                65.3621

                     37                     38                     39
                      A                      A                      A
 Frequencies --    857.7828               900.0849               919.4722
 Red. masses --      2.0812                 1.7067                 1.8414
 Frc consts  --      0.9022                 0.8146                 0.9172
 IR Inten    --      2.8993                17.5689                 8.3074

                     40                     41                     42
                      A                      A                      A
 Frequencies --    941.4786               959.5401               964.8880
 Red. masses --      2.0853                 1.5334                 1.4594
 Frc consts  --      1.0890                 0.8318                 0.8005
 IR Inten    --     18.6735                 3.7567                 0.3288

                     43                     44                     45
                      A                      A                      A
 Frequencies --    990.2145              1020.3258              1039.8996
 Red. masses --      1.8408                 1.6742                 1.6117
 Frc consts  --      1.0634                 1.0269                 1.0268
 IR Inten    --     20.9276                19.2511                31.4815

                     46                     47                     48
                      A                      A                      A
 Frequencies --   1047.2377              1054.0694              1084.3985
 Red. masses --      1.3603                 3.4261                 3.4446
 Frc consts  --      0.8790                 2.2428                 2.3865
 IR Inten    --      5.1405                41.8263                83.9550

                     49                     50                     51
                      A                      A                      A
 Frequencies --   1107.3163              1129.0170              1165.6531
 Red. masses --      1.1250                 1.8318                 1.5726
 Frc consts  --      0.8128                 1.3757                 1.2589
 IR Inten    --      1.0061                 3.7426                 1.9224

                     52                     53                     54
                      A                      A                      A
 Frequencies --   1190.7394              1203.9327              1241.3837
 Red. masses --      1.4839                 1.7188                 2.0307
 Frc consts  --      1.2396                 1.4679                 1.8438
 IR Inten    --     15.2404                10.3035                 6.4041

                     55                     56                     57
                      A                      A                      A
 Frequencies --   1251.3311              1293.0556              1306.0903
 Red. masses --      2.6052                 2.0818                 1.5871
 Frc consts  --      2.4034                 2.0508                 1.5952
 IR Inten    --      8.1629                19.4565                 9.6970

                     58                     59                     60
                      A                      A                      A
 Frequencies --   1309.5273              1338.6957              1402.0302
 Red. masses --      1.9174                 1.4201                 1.2108
 Frc consts  --      1.9373                 1.4995                 1.4023
 IR Inten    --      7.6350                 6.4357                 1.8263

                     61                     62                     63
                      A                      A                      A
 Frequencies --   1407.3894              1420.8765              1426.8502
 Red. masses --      1.1942                 1.2544                 1.2284
 Frc consts  --      1.3936                 1.4920                 1.4735
 IR Inten    --      9.9960                14.9907                 6.1271

                     64                     65                     66
                      A                      A                      A
 Frequencies --   1429.7442              1440.8247              1455.0834
 Red. masses --      1.2324                 1.1783                 1.2206
 Frc consts  --      1.4843                 1.4413                 1.5227
 IR Inten    --     16.7642                27.3803                 9.6891

                     67                     68                     69
                      A                      A                      A
 Frequencies --   1457.1662              1504.7962              1515.9535
 Red. masses --      1.2416                 1.0774                 1.0496
 Frc consts  --      1.5533                 1.4374                 1.4211
 IR Inten    --     13.2163                12.5590                 0.2422

                     70                     71                     72
                      A                      A                      A
 Frequencies --   1522.2562              1528.9444              1533.9456
 Red. masses --      1.0590                 1.0535                 1.0488
 Frc consts  --      1.4458                 1.4511                 1.4539
 IR Inten    --      5.3638                 9.0538                 3.0536

                     73                     74                     75
                      A                      A                      A
 Frequencies --   1535.9492              1538.0132              1542.3982
 Red. masses --      1.0713                 1.0503                 1.0531
 Frc consts  --      1.4891                 1.4638                 1.4761
 IR Inten    --      5.4690                 2.8342                 0.2397

                     76                     77                     78
                      A                      A                      A
 Frequencies --   1554.9340              1559.9750              1643.3453
 Red. masses --      1.0546                 1.0532                 1.0846
 Frc consts  --      1.5024                 1.5101                 1.7257
 IR Inten    --     18.5585                10.1153                11.5750

                     79                     80                     81
                      A                      A                      A
 Frequencies --   3011.0600              3039.0579              3045.1562
 Red. masses --      1.0712                 1.0418                 1.0400
 Frc consts  --      5.7224                 5.6692                 5.6819
 IR Inten    --     54.7935                29.2148                26.8613

                     82                     83                     84
                      A                      A                      A
 Frequencies --   3049.9011              3051.1205              3083.9024
 Red. masses --      1.0431                 1.0433                 1.0840
 Frc consts  --      5.7169                 5.7226                 6.0742
 IR Inten    --     44.7149                20.3303                11.5527

                     85                     86                     87
                      A                      A                      A
 Frequencies --   3086.1250              3096.5589              3105.1676
 Red. masses --      1.0702                 1.0951                 1.0999
 Frc consts  --      6.0054                 6.1867                 6.2482
 IR Inten    --      3.2775                39.5614                10.7947

                     88                     89                     90
                      A                      A                      A
 Frequencies --   3111.4005              3114.5223              3126.5799
 Red. masses --      1.0939                 1.0926                 1.0938
 Frc consts  --      6.2391                 6.2446                 6.2996
 IR Inten    --     54.7180                32.3330                27.3607

                     91                     92                     93
                      A                      A                      A
 Frequencies --   3141.8773              3150.9782              3153.1581
 Red. masses --      1.1016                 1.0990                 1.1021
 Frc consts  --      6.4068                 6.4291                 6.4562
 IR Inten    --     18.6037                 9.3886                18.7079

                     94                     95                     96
                      A                      A                      A
 Frequencies --   3154.2023              3166.5298              3507.7082
 Red. masses --      1.0975                 1.0970                 1.0449
 Frc consts  --      6.4335                 6.4805                 7.5748
 IR Inten    --     17.6268                 9.6775                 9.7229

                     97                     98                     99
                      A                      A                      A
 Frequencies --   3620.8515              3743.2489              3760.1030
 Red. masses --      1.1011                 1.0655                 1.0660
 Frc consts  --      8.5055                 8.7965                 8.8801
 IR Inten    --     15.0418                 7.2939                15.8877

 - Thermochemistry -
 -------------------
 Temperature   298.150 Kelvin.  Pressure   1.00000 Atm.
 Atom     1 has atomic number  6 and mass  12.00000

 Molecular mass:   239.10137 amu.
 Principal axes and moments of inertia in atomic units:
                           1         2         3
     Eigenvalues --  2174.910835471.435425866.98821
           X            0.99982  -0.01868  -0.00456
           Y            0.01900   0.99632   0.08363
           Z            0.00298  -0.08370   0.99649
 This molecule is an asymmetric top.
 Rotational symmetry number  1.
 Warning -- assumption of classical behavior for rotation
           may cause significant error
 Rotational temperatures (Kelvin)      0.03982     0.01583     0.01476
 Rotational constants (GHZ):           0.82980     0.32985     0.30761
 Zero-point vibrational energy     801449.9 (Joules/Mol)
                                  191.55112 (Kcal/Mol)
 Warning -- explicit consideration of  32 degrees of freedom as
           vibrations may cause significant error
 Vibrational temperatures:     47.18    87.60    94.34   161.82   187.09
          (Kelvin)            226.02   246.50   295.79   324.56   333.05
                              354.78   394.73   401.77   410.08   411.57
                              417.29   447.16   457.19   470.25   474.18
                              501.53   526.18   555.20   561.19   588.08
                              624.99   656.28   667.20   748.14   783.36
                              810.13   869.16  1020.60  1085.64  1153.10
                             1218.51  1234.16  1295.02  1322.92  1354.58
                             1380.56  1388.26  1424.70  1468.02  1496.18
                             1506.74  1516.57  1560.21  1593.18  1624.40
                             1677.11  1713.21  1732.19  1786.07  1800.39
                             1860.42  1879.17  1884.12  1926.08  2017.21
                             2024.92  2044.32  2052.92  2057.08  2073.03
                             2093.54  2096.54  2165.07  2181.12  2190.19
                             2199.81  2207.01  2209.89  2212.86  2219.17
                             2237.20  2244.46  2364.41  4332.24  4372.53
                             4381.30  4388.13  4389.88  4437.05  4440.25
                             4455.26  4467.64  4476.61  4481.10  4498.45
                             4520.46  4533.55  4536.69  4538.19  4555.93
                             5046.81  5209.60  5385.70  5409.95

 Zero-point correction=                           0.305256 (Hartree/Particle)
 Thermal correction to Energy=                    0.323353
 Thermal correction to Enthalpy=                  0.324297
 Thermal correction to Gibbs Free Energy=         0.260897
 Sum of electronic and zero-point Energies=          -1356.906480
 Sum of electronic and thermal Energies=             -1356.888384
 Sum of electronic and thermal Enthalpies=           -1356.887439
 Sum of electronic and thermal Free Energies=        -1356.950839

                     E (Thermal)             CV                S
                      KCal/Mol        Cal/Mol-Kelvin    Cal/Mol-Kelvin
 Total                  202.907             69.087            133.436
 Electronic               0.000              0.000              0.000
 Translational            0.889              2.981             42.316
 Rotational               0.889              2.981             32.612
 Vibrational            201.130             63.125             58.507
 Vibration     1          0.594              1.983              5.653
 Vibration     2          0.597              1.973              4.428
 Vibration     3          0.597              1.971              4.282
 Vibration     4          0.607              1.939              3.226
 Vibration     5          0.612              1.923              2.946
 Vibration     6          0.621              1.895              2.585
 Vibration     7          0.626              1.878              2.421
 Vibration     8          0.640              1.832              2.083
 Vibration     9          0.650              1.802              1.914
 Vibration    10          0.653              1.793              1.867
 Vibration    11          0.661              1.768              1.755
 Vibration    12          0.677              1.721              1.569
 Vibration    13          0.680              1.712              1.538
 Vibration    14          0.683              1.701              1.503
 Vibration    15          0.684              1.700              1.497
 Vibration    16          0.686              1.692              1.474
 Vibration    17          0.700              1.653              1.358
 Vibration    18          0.704              1.640              1.322
 Vibration    19          0.711              1.622              1.276
 Vibration    20          0.712              1.616              1.262
 Vibration    21          0.726              1.578              1.173
 Vibration    22          0.739              1.543              1.098
 Vibration    23          0.755              1.500              1.016
 Vibration    24          0.758              1.491              1.000
 Vibration    25          0.773              1.451              0.931
 Vibration    26          0.795              1.395              0.844
 Vibration    27          0.814              1.347              0.777
 Vibration    28          0.821              1.331              0.755
 Vibration    29          0.875              1.206              0.610
 Vibration    30          0.900              1.152              0.556
 Vibration    31          0.919              1.111              0.518
 Vibration    32          0.963              1.023              0.443

                           ! Non-Optimized Parameters !
 Normal termination of Gaussian 16 at Thu Dec 10 09:51:38 2020.

 ----------------------------------------------------------------------
 # B3LYP/6-311++G(d,p) empiricaldispersion=gd3bj scf=xqc pop=npa geom=c
 heck
 ----------------------------------------------------------------------

 --------------------------------------
 CID_90296862_JID_4331_Energie_neutraal
 --------------------------------------
 Structure from the checkpoint file:  "JID_4331.chk"
 Charge =  0 Multiplicity = 1

 SCF Done:  E(RB3LYP) =  -1357.45337077     A.U. after   16 cycles
 Normal termination of Gaussian 16 at Thu Dec 10 09:59:16 2020.

 ----------------------------------------------------------------------
 # B3LYP/6-311++G(d,p) empiricaldispersion=gd3bj scf=xqc pop=npa geom=c
 heck
 ----------------------------------------------------------------------

 ------------------------------------
 CID_90296862_JID_4331_Energie_kation
 ------------------------------------
 Structure from the checkpoint file:  "JID_4331.chk"
 Charge =  1 Multiplicity = 2

 SCF Done:  E(UB3LYP) =  -1357.13676678     A.U. after   33 cycles
 SCF Done:  E(UB3LYP) =  -1357.13676678     a.u. after    1 cycles
 Normal termination of Gaussian 16 at Thu Dec 10 10:21:57 2020.
 Gaussian 16:  ES64L-G16RevA.03 25-Dec-2016

 ----------------------------------------------------------------------
 # B3LYP/6-311++G(d,p) empiricaldispersion=gd3bj scf=xqc pop=npa geom=c
 heck
 ----------------------------------------------------------------------

 -----------------------------------
 CID_90296862_JID_4331_Energie_anion
 -----------------------------------
 Structure from the checkpoint file:  "JID_4331.chk"
 Charge = -1 Multiplicity = 2

                         Standard orientation:
 ---------------------------------------------------------------------
 Center     Atomic      Atomic             Coordinates (Angstroms)
 Number     Number       Type             X           Y           Z
 ---------------------------------------------------------------------
      1          6           0        3.479022    0.361421    0.049428
      2          6           0        2.226434   -0.222716   -0.631072
      3          6           0        2.513598   -0.327876   -2.145862
      4          6           0        2.011719   -1.669820   -0.143086
      5          8           0        2.051237   -1.863570    1.270162
      6          6           0        0.973387    0.720423   -0.509135
      7          6           0        0.098721    0.826807    0.785004
      8          6           0        0.913060    1.184085    2.043634
      9          6           0       -0.937311    1.942482    0.535962
     10          6           0       -0.658868   -0.478879    1.118824
     11         16           0       -1.631761   -1.277769   -0.233709
     12         16           0       -3.579179   -0.576034   -0.011940
     13          7           0       -3.701054    0.816721   -1.012930
     14          8           0        1.366862    2.034273   -0.934705
     15          1           0        4.333055   -0.313304   -0.093189
     16          1           0        3.349149    0.520021    1.123196
     17          1           0        3.755471    1.318146   -0.402790
     18          1           0        3.462886   -0.843911   -2.331020
     19          1           0        1.719938   -0.886870   -2.656609
     20          1           0        2.565516    0.669230   -2.588972
     21          1           0        1.038646   -2.046024   -0.472288
     22          1           0        2.773066   -2.305827   -0.619461
     23          1           0        2.955926   -1.682283    1.565018
     24          1           0        0.278833    0.395699   -1.289914
     25          1           0        1.535803    2.074253    1.885170
     26          1           0        0.237689    1.416737    2.874981
     27          1           0        1.555454    0.356331    2.350446
     28          1           0       -1.488374    1.767305   -0.392137
     29          1           0       -1.657121    1.969195    1.363485
     30          1           0       -0.459665    2.921586    0.461865
     31          1           0        0.031553   -1.249989    1.461561
     32          1           0       -1.361396   -0.285672    1.935375
     33          1           0       -4.362028    0.679978   -1.771358
     34          1           0       -3.915740    1.653238   -0.478939
     35          1           0        1.870402    2.434778   -0.209380
 ---------------------------------------------------------------------

 SCF Done:  E(UB3LYP) =  -1357.44480295     A.U. after   33 cycles
 SCF Done:  E(UB3LYP) =  -1357.44480295     a.u. after    1 cycles

 The electronic state is 2-A.
 Alpha  occ. eigenvalues --  -88.78620 -88.75933 -19.03233 -19.02229 -14.22816
 Alpha  occ. eigenvalues --  -10.12304 -10.12243 -10.09420 -10.09290 -10.09245
 Alpha  occ. eigenvalues --  -10.06461 -10.06456 -10.06385 -10.05004  -7.86825
 Alpha  occ. eigenvalues --   -7.84445  -5.83307  -5.82939  -5.82075  -5.80878
 Alpha  occ. eigenvalues --   -5.80431  -5.79820  -0.93410  -0.92642  -0.80546
 Alpha  occ. eigenvalues --   -0.73591  -0.71456  -0.67360  -0.60449  -0.59225
 Alpha  occ. eigenvalues --   -0.58802  -0.58203  -0.57677  -0.51036  -0.46960
 Alpha  occ. eigenvalues --   -0.45208  -0.42842  -0.40963  -0.39336  -0.37583
 Alpha  occ. eigenvalues --   -0.36558  -0.35632  -0.35143  -0.34154  -0.33882
 Alpha  occ. eigenvalues --   -0.32024  -0.30727  -0.30195  -0.29278  -0.28935
 Alpha  occ. eigenvalues --   -0.28249  -0.27977  -0.27735  -0.25788  -0.25067
 Alpha  occ. eigenvalues --   -0.24847  -0.23976  -0.23094  -0.22642  -0.21463
 Alpha  occ. eigenvalues --   -0.18664  -0.17292  -0.16495  -0.14777  -0.14771
 Alpha  occ. eigenvalues --    0.03912
 Alpha virt. eigenvalues --    0.05265   0.06584   0.07168   0.07858   0.08400
 Alpha virt. eigenvalues --    0.09132   0.09767   0.10134   0.10308   0.10970
 Alpha virt. eigenvalues --    0.11253   0.11804   0.12475   0.12594   0.13117

  Beta  occ. eigenvalues --  -88.78607 -88.75930 -19.03202 -19.02213 -14.22723
  Beta  occ. eigenvalues --  -10.12293 -10.12239 -10.09416 -10.09287 -10.09242
  Beta  occ. eigenvalues --  -10.06454 -10.06432 -10.06335 -10.04984  -7.86813
  Beta  occ. eigenvalues --   -7.84442  -5.83288  -5.82910  -5.82068  -5.80877
  Beta  occ. eigenvalues --   -5.80429  -5.79811  -0.93344  -0.92606  -0.80381
  Beta  occ. eigenvalues --   -0.73570  -0.71433  -0.67310  -0.60381  -0.59164
  Beta  occ. eigenvalues --   -0.58749  -0.58163  -0.57646  -0.50982  -0.46915
  Beta  occ. eigenvalues --   -0.45167  -0.42791  -0.40851  -0.39295  -0.37556
  Beta  occ. eigenvalues --   -0.36528  -0.35580  -0.35116  -0.34123  -0.33823
  Beta  occ. eigenvalues --   -0.32000  -0.30691  -0.30155  -0.29251  -0.28902
  Beta  occ. eigenvalues --   -0.28219  -0.27938  -0.27705  -0.25768  -0.25042
  Beta  occ. eigenvalues --   -0.24825  -0.23948  -0.23065  -0.22619  -0.21439
  Beta  occ. eigenvalues --   -0.18637  -0.17272  -0.16398  -0.14729  -0.14716
  Beta virt. eigenvalues --    0.06319   0.06593   0.06789   0.07698   0.08312
  Beta virt. eigenvalues --    0.08725   0.09636   0.10018   0.10196   0.10708
  Beta virt. eigenvalues --    0.11261   0.11596   0.12082   0.12581   0.12697

 Mulliken charges and spin densities:
               1          2
     1  C    1.166793  -1.762958
     2  C   -2.018173   2.473678
     3  C   -0.070425  -0.459891
     4  C    0.147710  -0.648640
     5  O   -0.172034  -0.036952
     6  C    1.536829  -2.206157
     7  C   -1.053288   1.650596
     8  C    0.748514  -1.399465
     9  C   -0.113027  -0.466059
    10  C   -0.765356   0.255519
    11  S   -0.296796  -0.078066
    12  S    0.278648  -0.182169
    13  N   -0.232774  -0.244810
    14  O   -0.112449   0.001996
    15  H   -0.797848   0.973764
    16  H   -0.276664   0.411606
    17  H   -0.049703   0.202192
    18  H    0.061210   0.092726
    19  H    0.081827   0.035768
    20  H    0.123563   0.071282
    21  H    0.130142  -0.002758
    22  H   -0.006008   0.172808
    23  H   -0.053448   0.322871
    24  H    0.314342  -0.115559
    25  H   -0.249635   0.392731
    26  H    0.024868   0.120923
    27  H    0.210732  -0.062285
    28  H    0.327474  -0.056121
    29  H   -0.081988   0.241560
    30  H    0.000384   0.134475
    31  H    0.150336   0.141902
    32  H    0.236576   0.001848
    33  H   -0.141221   0.457783
    34  H   -0.127475   0.390752
    35  H    0.078364   0.175106
 Sum of Mulliken charges =  -1.00000   1.00000

 Dipole moment (field-independent basis, Debye):
    X=             -1.2649    Y=             -1.6302    Z=             -0.0571  Tot=              2.0642
 Quadrupole moment (field-independent basis, Debye-Ang):
   XX=           -191.4289   YY=           -144.1809   ZZ=           -135.8044
   XY=              7.7624   XZ=            -12.8812   YZ=              4.7875

 Summary of Natural Population Analysis:

                                       Natural Population
                Natural  -----------------------------------------------
    Atom  No    Charge         Core      Valence    Rydberg      Total
 -----------------------------------------------------------------------
      C    1   -0.30046      0.99962     2.29163    0.00921     3.30046
      C    2   -0.06565      0.99955     2.05273    0.01337     3.06565
      C    3   -0.28563      0.99963     2.27935    0.00665     3.28563
      C    4   -0.01108      0.99950     1.99770    0.01388     3.01108
      O    5   -0.37473      0.99990     3.36814    0.00669     4.37473
      C    6    0.06971      0.99946     1.91399    0.01684     2.93029
      C    7   -0.05929      0.99954     2.04513    0.01463     3.05929
      C    8   -0.28948      0.99962     2.28195    0.00791     3.28948
      C    9   -0.29105      0.99963     2.28223    0.00919     3.29105
      C   10   -0.25523      0.99951     2.24521    0.01051     3.25523
      S   11    0.02816      4.99965     2.95384    0.01835     7.97184
      S   12    0.12189      4.99972     2.84877    0.02962     7.87811
      N   13   -0.48545      0.99978     2.97152    0.01415     3.98545
      O   14   -0.37417      0.99990     3.36779    0.00648     4.37417
      H   15    0.10361      0.00000     0.39446    0.00193     0.39639
      H   16    0.10386      0.00000     0.39433    0.00182     0.39614
      H   17    0.10545      0.00000     0.39322    0.00133     0.39455
      H   18    0.09802      0.00000     0.40118    0.00080     0.40198
      H   19    0.09834      0.00000     0.40091    0.00075     0.40166
      H   20    0.11087      0.00000     0.38825    0.00088     0.38913
      H   21    0.09094      0.00000     0.40720    0.00187     0.40906
      H   22    0.08158      0.00000     0.41730    0.00113     0.41842
      H   23    0.23485      0.00000     0.26081    0.00435     0.26515
      H   24    0.09873      0.00000     0.39929    0.00198     0.40127
      H   25    0.09586      0.00000     0.40284    0.00130     0.40414
      H   26    0.10024      0.00000     0.39878    0.00098     0.39976
      H   27    0.10796      0.00000     0.39067    0.00137     0.39204
      H   28    0.11201      0.00000     0.38594    0.00205     0.38799
      H   29    0.09512      0.00000     0.40368    0.00120     0.40488
      H   30    0.10319      0.00000     0.39585    0.00096     0.39681
      H   31    0.12340      0.00000     0.37427    0.00233     0.37660
      H   32    0.10674      0.00000     0.39182    0.00144     0.39326
      H   33    0.18698      0.00000     0.30877    0.00425     0.31302
      H   34    0.18752      0.00000     0.30759    0.00489     0.31248
      H   35    0.22720      0.00000     0.26981    0.00299     0.27280
 =======================================================================
   * Total *    0.00000     21.99500    42.78694    0.21806    65.00000

 Normal termination of Gaussian 16 at Thu Dec 10 10:44:24 2020.
