 Gaussian 16, Revision A.03,

 -----------------------------------------------------------
 # opt freq B3LYP/6-31G(d) empiricaldispersion=gd3bj scf=xqc
 -----------------------------------------------------------

 -------------------------------
 CID_85432990_JID_10056_neutraal
 -------------------------------
 Symbolic Z-matrix:
 Charge =  0 Multiplicity = 1

 SCF Done:  E(RB3LYP) =  -1186.22442129     A.U. after   15 cycles
 SCF Done:  E(RB3LYP) =  -1186.23265940     A.U. after   14 cycles
 SCF Done:  E(RB3LYP) =  -1186.23434965     A.U. after   13 cycles
 SCF Done:  E(RB3LYP) =  -1186.23700999     A.U. after   13 cycles
 SCF Done:  E(RB3LYP) =  -1186.24009626     A.U. after   14 cycles
 SCF Done:  E(RB3LYP) =  -1186.24226323     A.U. after   14 cycles
 SCF Done:  E(RB3LYP) =  -1186.24361727     A.U. after   13 cycles
 SCF Done:  E(RB3LYP) =  -1186.24386078     A.U. after   13 cycles
 SCF Done:  E(RB3LYP) =  -1186.24408365     A.U. after   12 cycles
 SCF Done:  E(RB3LYP) =  -1186.24422990     A.U. after   11 cycles
 SCF Done:  E(RB3LYP) =  -1186.24426700     A.U. after   11 cycles
 SCF Done:  E(RB3LYP) =  -1186.24428086     A.U. after   10 cycles
 SCF Done:  E(RB3LYP) =  -1186.24428518     A.U. after    8 cycles
 SCF Done:  E(RB3LYP) =  -1186.24428705     A.U. after    9 cycles
 SCF Done:  E(RB3LYP) =  -1186.24428740     A.U. after    8 cycles
 SCF Done:  E(RB3LYP) =  -1186.24428757     A.U. after    8 cycles
 Optimization completed.
    -- Stationary point found.
 Normal termination of Gaussian 16 at Mon Dec 14 13:33:01 2020.

 --------------------------------------------------------------------
 #N Geom=AllCheck Guess=TCheck SCRF=Check GenChk RB3LYP/6-31G(d) Freq
 --------------------------------------------------------------------

 Structure from the checkpoint file:  "JID_10056.chk"
 -------------------------------
 CID_85432990_JID_10056_neutraal
 -------------------------------
 Charge =  0 Multiplicity = 1

 SCF Done:  E(RB3LYP) =  -1186.24428757     A.U. after    1 cycles

  Exact polarizability: 348.084   9.260 197.283   3.876   9.702 134.870
 Approx polarizability: 469.748  43.202 351.866  20.178  41.115 238.325

                      1                      2                      3
                      A                      A                      A
 Frequencies --     25.9570                34.7398                40.8434
 Red. masses --      5.1917                 5.0686                 5.6479
 Frc consts  --      0.0021                 0.0036                 0.0056
 IR Inten    --      1.5575                 0.2881                 0.2700

                      4                      5                      6
                      A                      A                      A
 Frequencies --     75.8894                86.3123                98.9653
 Red. masses --      4.0567                 3.9239                 4.2708
 Frc consts  --      0.0138                 0.0172                 0.0246
 IR Inten    --      0.0362                 0.5192                 1.9812

                      7                      8                      9
                      A                      A                      A
 Frequencies --    131.4501               134.1194               172.8768
 Red. masses --      3.1326                 3.1465                 4.6342
 Frc consts  --      0.0319                 0.0333                 0.0816
 IR Inten    --      3.0913                 1.6365                 2.2207

                     10                     11                     12
                      A                      A                      A
 Frequencies --    184.3544               196.9295               218.9624
 Red. masses --      5.2255                 3.7562                 3.0676
 Frc consts  --      0.1046                 0.0858                 0.0867
 IR Inten    --      4.9163                 0.5907                 3.6096

                     13                     14                     15
                      A                      A                      A
 Frequencies --    238.1293               265.7689               286.9740
 Red. masses --      2.7618                 3.3943                 3.1317
 Frc consts  --      0.0923                 0.1413                 0.1520
 IR Inten    --      3.6445                 2.5031                 1.6622

                     16                     17                     18
                      A                      A                      A
 Frequencies --    321.1633               352.4172               390.7212
 Red. masses --      1.8804                 3.7601                 4.6357
 Frc consts  --      0.1143                 0.2751                 0.4170
 IR Inten    --      0.7245                 4.1762                 0.7474

                     19                     20                     21
                      A                      A                      A
 Frequencies --    403.4066               449.2790               463.7544
 Red. masses --      4.0732                 5.1731                 4.1241
 Frc consts  --      0.3905                 0.6152                 0.5226
 IR Inten    --      1.4731                 1.7808                 0.1661

                     22                     23                     24
                      A                      A                      A
 Frequencies --    492.1567               502.5227               536.9786
 Red. masses --      2.5479                 4.8504                 4.8716
 Frc consts  --      0.3636                 0.7217                 0.8276
 IR Inten    --      0.5825                 1.1532                 1.4464

                     25                     26                     27
                      A                      A                      A
 Frequencies --    581.7695               609.9265               640.9384
 Red. masses --      3.4866                 3.9918                 3.4291
 Frc consts  --      0.6953                 0.8749                 0.8300
 IR Inten    --      4.4691                60.0647                 5.9759

                     28                     29                     30
                      A                      A                      A
 Frequencies --    648.8763               656.4465               692.7278
 Red. masses --      3.1702                 3.2347                 3.9305
 Frc consts  --      0.7864                 0.8213                 1.1113
 IR Inten    --      2.3756                 6.9480                 1.8021

                     31                     32                     33
                      A                      A                      A
 Frequencies --    698.8883               720.0474               725.6679
 Red. masses --      4.2648                 2.5251                 1.2432
 Frc consts  --      1.2273                 0.7713                 0.3857
 IR Inten    --      1.7144                12.9913                40.5048

                     34                     35                     36
                      A                      A                      A
 Frequencies --    738.4691               749.7750               761.8896
 Red. masses --      3.2883                 3.6321                 5.3735
 Frc consts  --      1.0565                 1.2030                 1.8378
 IR Inten    --     12.6500                 1.6549                16.4429

                     37                     38                     39
                      A                      A                      A
 Frequencies --    822.0225               848.1555               853.4713
 Red. masses --      1.4241                 1.4617                 2.8673
 Frc consts  --      0.5670                 0.6195                 1.2306
 IR Inten    --     18.9628                 2.8714                 1.3351

                     40                     41                     42
                      A                      A                      A
 Frequencies --    861.8219               873.6776               884.4420
 Red. masses --      1.3453                 4.1227                 2.0856
 Frc consts  --      0.5887                 1.8541                 0.9612
 IR Inten    --      5.5748                30.1715                32.7109

                     43                     44                     45
                      A                      A                      A
 Frequencies --    893.2023               919.0267               921.6150
 Red. masses --      2.7087                 1.3971                 1.3340
 Frc consts  --      1.2732                 0.6952                 0.6676
 IR Inten    --      1.0413                38.9927                 2.9249

                     46                     47                     48
                      A                      A                      A
 Frequencies --    933.0495               971.8567               979.2820
 Red. masses --      1.5136                 2.4424                 2.2710
 Frc consts  --      0.7764                 1.3591                 1.2832
 IR Inten    --      0.5668                 6.8675                 7.8886

                     49                     50                     51
                      A                      A                      A
 Frequencies --   1003.1719              1022.5615              1030.8225
 Red. masses --      1.1558                 1.2881                 2.5632
 Frc consts  --      0.6853                 0.7935                 1.6047
 IR Inten    --     10.1296               128.9812                43.0982

                     52                     53                     54
                      A                      A                      A
 Frequencies --   1049.4296              1082.8757              1094.7684
 Red. masses --      1.7364                 2.0022                 1.7997
 Frc consts  --      1.1267                 1.3833                 1.2708
 IR Inten    --      7.1636                 1.4862                39.7193

                     55                     56                     57
                      A                      A                      A
 Frequencies --   1112.5855              1121.5926              1168.7121
 Red. masses --      1.8279                 1.1725                 1.2263
 Frc consts  --      1.3331                 0.8690                 0.9869
 IR Inten    --      2.1902                33.5698                 7.7555

                     58                     59                     60
                      A                      A                      A
 Frequencies --   1173.5762              1175.2289              1200.4939
 Red. masses --      2.7523                 1.3418                 1.4399
 Frc consts  --      2.2334                 1.0919                 1.2227
 IR Inten    --     27.6346                12.9751                 8.8016

                     61                     62                     63
                      A                      A                      A
 Frequencies --   1262.0253              1267.9539              1280.3848
 Red. masses --      1.5436                 3.1318                 1.2753
 Frc consts  --      1.4485                 2.9666                 1.2318
 IR Inten    --     17.8875                19.4159                13.3608

                     64                     65                     66
                      A                      A                      A
 Frequencies --   1284.9780              1302.5253              1316.2648
 Red. masses --      1.7441                 1.3003                 4.0020
 Frc consts  --      1.6967                 1.2997                 4.0852
 IR Inten    --     18.0585                 3.9136               479.8522

                     67                     68                     69
                      A                      A                      A
 Frequencies --   1337.1276              1348.4379              1357.5977
 Red. masses --      2.2981                 1.5927                 1.4686
 Frc consts  --      2.4208                 1.7063                 1.5948
 IR Inten    --     24.3347                18.5454                11.2936

                     70                     71                     72
                      A                      A                      A
 Frequencies --   1363.2762              1386.7500              1396.3909
 Red. masses --      1.2842                 1.4324                 1.4447
 Frc consts  --      1.4062                 1.6230                 1.6597
 IR Inten    --     21.8534                 1.2667                 4.3366

                     73                     74                     75
                      A                      A                      A
 Frequencies --   1399.4944              1410.4105              1447.9388
 Red. masses --      2.3396                 1.9192                 2.7558
 Frc consts  --      2.6999                 2.2494                 3.4041
 IR Inten    --     25.6183                73.4605                87.3741

                     76                     77                     78
                      A                      A                      A
 Frequencies --   1464.9805              1476.6868              1486.3599
 Red. masses --      1.6405                 5.8480                 3.3863
 Frc consts  --      2.0744                 7.5133                 4.4078
 IR Inten    --     21.1344               117.0988                24.2600

                     79                     80                     81
                      A                      A                      A
 Frequencies --   1506.9097              1517.1570              1517.3425
 Red. masses --      1.2394                 1.3763                 1.0925
 Frc consts  --      1.6582                 1.8664                 1.4819
 IR Inten    --      0.1593                21.6930                 3.0244

                     82                     83                     84
                      A                      A                      A
 Frequencies --   1526.5851              1531.1143              1580.3359
 Red. masses --      2.5273                 1.1058                 5.0591
 Frc consts  --      3.4702                 1.5274                 7.4443
 IR Inten    --     59.0989                 1.5014                35.5240

                     85                     86                     87
                      A                      A                      A
 Frequencies --   1624.4526              1684.8197              1701.3081
 Red. masses --      5.7338                 5.4155                11.9368
 Frc consts  --      8.9148                 9.0572                20.3565
 IR Inten    --     45.9326               425.9031               249.2240

                     88                     89                     90
                      A                      A                      A
 Frequencies --   1731.8482              3005.0345              3017.9330
 Red. masses --      4.6178                 1.0699                 1.0692
 Frc consts  --      8.1602                 5.6924                 5.7374
 IR Inten    --     55.2224                31.4378                40.9434

                     91                     92                     93
                      A                      A                      A
 Frequencies --   3037.5057              3044.1151              3063.3401
 Red. masses --      1.0675                 1.0643                 1.0886
 Frc consts  --      5.8027                 5.8108                 6.0186
 IR Inten    --     19.0626                18.0192                33.5494

                     94                     95                     96
                      A                      A                      A
 Frequencies --   3066.4707              3090.4704              3094.3822
 Red. masses --      1.0921                 1.0979                 1.1038
 Frc consts  --      6.0504                 6.1782                 6.2271
 IR Inten    --     43.1090                82.4775                49.6215

                     97                     98                     99
                      A                      A                      A
 Frequencies --   3184.5226              3190.5819              3202.2604
 Red. masses --      1.0874                 1.0625                 1.0892
 Frc consts  --      6.4971                 6.3725                 6.5808
 IR Inten    --      4.7532                 4.3502                 8.1214

                    100                    101                    102
                      A                      A                      A
 Frequencies --   3221.8997              3234.2062              3244.9718
 Red. masses --      1.0892                 1.0886                 1.0943
 Frc consts  --      6.6615                 6.7088                 6.7888
 IR Inten    --     10.2298                 3.5921                 3.7777

                    103                    104                    105
                      A                      A                      A
 Frequencies --   3245.5089              3265.7788              3281.6159
 Red. masses --      1.0952                 1.0971                 1.1174
 Frc consts  --      6.7970                 6.8939                 7.0901
 IR Inten    --      3.2826                 1.4787                 6.2508

 - Thermochemistry -
 -------------------
 Temperature   298.150 Kelvin.  Pressure   1.00000 Atm.
 Atom     1 has atomic number  6 and mass  12.00000

 Molecular mass:   283.10309 amu.
 Principal axes and moments of inertia in atomic units:
                           1         2         3
     Eigenvalues --  2300.21190********************
           X            0.99998  -0.00175  -0.00538
           Y            0.00166   0.99987  -0.01632
           Z            0.00541   0.01631   0.99985
 This molecule is an asymmetric top.
 Rotational symmetry number  1.
 Warning -- assumption of classical behavior for rotation
           may cause significant error
 Rotational temperatures (Kelvin)      0.03765     0.00610     0.00559
 Rotational constants (GHZ):           0.78460     0.12702     0.11655
 Zero-point vibrational energy     791506.7 (Joules/Mol)
                                  189.17465 (Kcal/Mol)
 Warning -- explicit consideration of  26 degrees of freedom as
           vibrations may cause significant error
 Vibrational temperatures:     37.35    49.98    58.76   109.19   124.18
          (Kelvin)            142.39   189.13   192.97   248.73   265.24
                              283.34   315.04   342.62   382.38   412.89
                              462.08   507.05   562.16   580.41   646.41
                              667.24   708.10   723.02   772.59   837.04
                              877.55   922.17   933.59   944.48   996.68
                             1005.54  1035.99  1044.07  1062.49  1078.76
                             1096.19  1182.71  1220.31  1227.95  1239.97
                             1257.03  1272.51  1285.12  1322.27  1326.00
                             1342.45  1398.29  1408.97  1443.34  1471.24
                             1483.12  1509.90  1558.02  1575.13  1600.76
                             1613.72  1681.52  1688.51  1690.89  1727.24
                             1815.77  1824.30  1842.19  1848.80  1874.04
                             1893.81  1923.83  1940.10  1953.28  1961.45
                             1995.22  2009.10  2013.56  2029.27  2083.26
                             2107.78  2124.62  2138.54  2168.11  2182.85
                             2183.12  2196.42  2202.93  2273.75  2337.22
                             2424.08  2447.80  2491.74  4323.57  4342.13
                             4370.29  4379.80  4407.46  4411.97  4446.50
                             4452.13  4581.82  4590.54  4607.34  4635.60
                             4653.30  4668.79  4669.56  4698.73  4721.51

 Zero-point correction=                           0.301469 (Hartree/Particle)
 Thermal correction to Energy=                    0.319388
 Thermal correction to Enthalpy=                  0.320332
 Thermal correction to Gibbs Free Energy=         0.253888
 Sum of electronic and zero-point Energies=          -1185.942819
 Sum of electronic and thermal Energies=             -1185.924900
 Sum of electronic and thermal Enthalpies=           -1185.923956
 Sum of electronic and thermal Free Energies=        -1185.990399

                     E (Thermal)             CV                S
                      KCal/Mol        Cal/Mol-Kelvin    Cal/Mol-Kelvin
 Total                  200.419             69.322            139.842
 Electronic               0.000              0.000              0.000
 Translational            0.889              2.981             42.820
 Rotational               0.889              2.981             34.580
 Vibrational            198.641             63.361             62.442
 Vibration     1          0.593              1.985              6.117
 Vibration     2          0.594              1.983              5.539
 Vibration     3          0.594              1.981              5.218
 Vibration     4          0.599              1.965              3.994
 Vibration     5          0.601              1.959              3.742
 Vibration     6          0.604              1.950              3.475
 Vibration     7          0.612              1.922              2.925
 Vibration     8          0.613              1.919              2.886
 Vibration     9          0.626              1.876              2.404
 Vibration    10          0.631              1.861              2.284
 Vibration    11          0.636              1.844              2.162
 Vibration    12          0.647              1.812              1.968
 Vibration    13          0.656              1.782              1.817
 Vibration    14          0.672              1.736              1.624
 Vibration    15          0.684              1.698              1.492
 Vibration    16          0.707              1.633              1.304
 Vibration    17          0.729              1.570              1.155
 Vibration    18          0.758              1.490              0.997
 Vibration    19          0.769              1.463              0.950
 Vibration    20          0.808              1.362              0.798
 Vibration    21          0.821              1.330              0.755
 Vibration    22          0.848              1.267              0.678
 Vibration    23          0.858              1.244              0.652
 Vibration    24          0.892              1.168              0.572
 Vibration    25          0.939              1.071              0.482
 Vibration    26          0.969              1.011              0.433

 Optimization completed.
    -- Stationary point found.
 Normal termination of Gaussian 16 at Mon Dec 14 13:52:49 2020.

 ----------------------------------------------------------------------
 # B3LYP/6-311++G(d,p) empiricaldispersion=gd3bj scf=xqc pop=npa geom=c
 heck
 ----------------------------------------------------------------------

 ---------------------------------------
 CID_85432990_JID_10056_Energie_neutraal
 ---------------------------------------
 Structure from the checkpoint file:  "JID_10056.chk"
 Charge =  0 Multiplicity = 1

 SCF Done:  E(RB3LYP) =  -1186.47621163     A.U. after   16 cycles
 Normal termination of Gaussian 16 at Mon Dec 14 14:02:38 2020.

 ----------------------------------------------------------------------
 # B3LYP/6-311++G(d,p) empiricaldispersion=gd3bj scf=xqc pop=npa geom=c
 heck
 ----------------------------------------------------------------------

 -------------------------------------
 CID_85432990_JID_10056_Energie_kation
 -------------------------------------
 Structure from the checkpoint file:  "JID_10056.chk"
 Charge =  1 Multiplicity = 2

 SCF Done:  E(UB3LYP) =  -1186.21009502     A.U. after   28 cycles
 Normal termination of Gaussian 16 at Mon Dec 14 14:27:11 2020.
 Gaussian 16:  ES64L-G16RevA.03 25-Dec-2016

 ----------------------------------------------------------------------
 # B3LYP/6-311++G(d,p) empiricaldispersion=gd3bj scf=xqc pop=npa geom=c
 heck
 ----------------------------------------------------------------------

 ------------------------------------
 CID_85432990_JID_10056_Energie_anion
 ------------------------------------
 Structure from the checkpoint file:  "JID_10056.chk"
 Charge = -1 Multiplicity = 2

                         Standard orientation:
 ---------------------------------------------------------------------
 Center     Atomic      Atomic             Coordinates (Angstroms)
 Number     Number       Type             X           Y           Z
 ---------------------------------------------------------------------
      1          6           0       -0.952065    2.621835   -1.365214
      2          6           0       -1.810967    2.152417   -0.462229
      3          7           0       -1.947761    0.794983   -0.090851
      4          6           0       -3.192531    0.194292    0.010708
      5          6           0       -3.022861   -1.166223    0.191484
      6          6           0       -4.181743   -2.110176    0.347819
      7          6           0       -5.470326   -1.325702    0.654289
      8          6           0       -5.632033   -0.124730   -0.289864
      9          6           0       -4.502244    0.907715   -0.104638
     10          6           0       -1.629158   -1.408529    0.188829
     11          6           0       -0.961174   -0.197260    0.024885
     12          6           0        0.463392   -0.037184    0.139349
     13          6           0        1.208376    1.067657    0.384389
     14          6           0        2.661012    1.061474    0.613669
     15          8           0        3.185653    1.940763    1.300751
     16          6           0        3.502525   -0.000198    0.017475
     17          6           0        3.302525   -0.819014   -1.074319
     18          6           0        4.416227   -1.657817   -1.355667
     19          6           0        5.451790   -1.461203   -0.477589
     20         16           0        5.097292   -0.238548    0.691097
     21          1           0       -0.256914    1.978563   -1.892143
     22          1           0       -0.905557    3.686648   -1.564397
     23          1           0       -2.509354    2.809500    0.047785
     24          1           0       -3.983303   -2.839302    1.143380
     25          1           0       -4.320307   -2.695034   -0.573673
     26          1           0       -5.438115   -0.965998    1.691836
     27          1           0       -6.339505   -1.988167    0.573315
     28          1           0       -5.621909   -0.482279   -1.328116
     29          1           0       -6.600269    0.362211   -0.129739
     30          1           0       -4.496150    1.614173   -0.944417
     31          1           0       -4.691663    1.507237    0.799599
     32          1           0       -1.135136   -2.358792    0.347801
     33          1           0        0.981705   -0.991807    0.094178
     34          1           0        0.747338    2.033330    0.554150
     35          1           0        2.400973   -0.792872   -1.673536
     36          1           0        4.448173   -2.368316   -2.174231
     37          1           0        6.407949   -1.967446   -0.459655
 ---------------------------------------------------------------------

 SCF Done:  E(UB3LYP) =  -1186.50400534     A.U. after   25 cycles

 The electronic state is 2-A.
 Alpha  occ. eigenvalues --  -88.74424 -18.92536 -14.24642 -10.10701 -10.08760
 Alpha  occ. eigenvalues --  -10.08571 -10.08511 -10.08327 -10.07985 -10.07790
 Alpha  occ. eigenvalues --  -10.07714 -10.07168 -10.06565 -10.05937 -10.05669
 Alpha  occ. eigenvalues --  -10.04993 -10.04583 -10.03340 -10.03132 -10.01813
 Alpha  occ. eigenvalues --   -7.83037  -5.79314  -5.78951  -5.78669  -0.87344
 Alpha  occ. eigenvalues --   -0.86575  -0.75212  -0.73926  -0.70188  -0.66552
 Alpha  occ. eigenvalues --   -0.65443  -0.62363  -0.61454  -0.61016  -0.59258
 Alpha  occ. eigenvalues --   -0.54214  -0.51544  -0.49977  -0.48846  -0.45582
 Alpha  occ. eigenvalues --   -0.44292  -0.43493  -0.41458  -0.40084  -0.39890
 Alpha  occ. eigenvalues --   -0.37551  -0.35790  -0.34594  -0.34453  -0.34194
 Alpha  occ. eigenvalues --   -0.32097  -0.31837  -0.30369  -0.30267  -0.28851
 Alpha  occ. eigenvalues --   -0.28350  -0.27913  -0.27530  -0.27253  -0.26438
 Alpha  occ. eigenvalues --   -0.25857  -0.25004  -0.24877  -0.23651  -0.23543
 Alpha  occ. eigenvalues --   -0.22708  -0.22134  -0.21303  -0.18737  -0.15485
 Alpha  occ. eigenvalues --   -0.13230  -0.12004  -0.11553  -0.09460  -0.07765
 Alpha  occ. eigenvalues --    0.02286
 Alpha virt. eigenvalues --    0.05917   0.07413   0.07744   0.08063   0.08247
 Alpha virt. eigenvalues --    0.08564   0.09573   0.09938   0.10412   0.10587
 Alpha virt. eigenvalues --    0.11048   0.11258   0.12016   0.12262   0.12693

  Beta  occ. eigenvalues --  -88.74399 -18.92019 -14.24583 -10.10694 -10.08757
  Beta  occ. eigenvalues --  -10.08588 -10.08512 -10.08122 -10.07979 -10.07777
  Beta  occ. eigenvalues --  -10.07599 -10.07007 -10.06575 -10.05862 -10.05724
  Beta  occ. eigenvalues --  -10.05074 -10.04460 -10.03130 -10.02825 -10.01812
  Beta  occ. eigenvalues --   -7.83015  -5.79299  -5.78936  -5.78596  -0.87203
  Beta  occ. eigenvalues --   -0.85682  -0.75062  -0.73873  -0.70058  -0.66292
  Beta  occ. eigenvalues --   -0.65225  -0.62225  -0.61175  -0.60890  -0.59051
  Beta  occ. eigenvalues --   -0.54018  -0.51301  -0.49835  -0.48387  -0.45280
  Beta  occ. eigenvalues --   -0.44217  -0.43366  -0.41364  -0.39944  -0.39762
  Beta  occ. eigenvalues --   -0.37443  -0.35635  -0.34480  -0.34387  -0.34050
  Beta  occ. eigenvalues --   -0.31988  -0.31674  -0.30222  -0.30150  -0.28787
  Beta  occ. eigenvalues --   -0.28152  -0.27714  -0.27423  -0.26867  -0.26235
  Beta  occ. eigenvalues --   -0.25491  -0.24937  -0.24562  -0.23498  -0.23184
  Beta  occ. eigenvalues --   -0.22476  -0.21670  -0.20409  -0.18226  -0.14252
  Beta  occ. eigenvalues --   -0.12820  -0.11374  -0.10607  -0.08942  -0.06744
  Beta virt. eigenvalues --    0.05873   0.07092   0.07583   0.08040   0.08235
  Beta virt. eigenvalues --    0.08480   0.08858   0.09564   0.09910   0.10434
  Beta virt. eigenvalues --    0.10617   0.11069   0.11902   0.12129   0.12255

 Mulliken charges and spin densities:
               1          2
     1  C   -0.295110   0.073444
     2  C   -0.129318   0.004955
     3  N    0.389056   0.026947
     4  C   -0.034091   0.088060
     5  C    0.308988  -0.037806
     6  C   -0.861305   0.007555
     7  C   -0.210680  -0.015169
     8  C   -0.415692   0.002925
     9  C   -0.522740  -0.010694
    10  C   -0.056982   0.182988
    11  C   -0.117475  -0.051264
    12  C   -0.087466   0.205761
    13  C   -0.034925  -0.027351
    14  C   -1.398462   0.154280
    15  O   -0.372706   0.183398
    16  C    0.923524   0.007278
    17  C    0.390953   0.091299
    18  C   -0.657197  -0.038838
    19  C    0.097674   0.105730
    20  S   -0.343888   0.043058
    21  H    0.161021  -0.001712
    22  H    0.115087  -0.003424
    23  H    0.151791   0.000974
    24  H    0.134172   0.000403
    25  H    0.140805  -0.001593
    26  H    0.119149   0.006300
    27  H    0.142941  -0.001704
    28  H    0.130785   0.001547
    29  H    0.141391   0.005678
    30  H    0.151560   0.003210
    31  H    0.133497   0.027631
    32  H    0.152239  -0.008693
    33  H    0.085038  -0.017891
    34  H    0.204795   0.001437
    35  H    0.149336  -0.003885
    36  H    0.114224   0.002708
    37  H    0.200012  -0.007542
 Sum of Mulliken charges =  -1.00000   1.00000

 Dipole moment (field-independent basis, Debye):
    X=             -8.6257    Y=             -2.8361    Z=             -2.6053  Tot=              9.4464
 Quadrupole moment (field-independent basis, Debye-Ang):
   XX=           -189.5454   YY=           -142.7016   ZZ=           -140.5183
   XY=            -14.5865   XZ=             -9.4339   YZ=             -4.7390

 Summary of Natural Population Analysis:

                                       Natural Population
                Natural  -----------------------------------------------
    Atom  No    Charge         Core      Valence    Rydberg      Total
 -----------------------------------------------------------------------
      C    1   -0.18612      0.99959     2.17967    0.00687     3.18612
      C    2    0.00451      0.99956     1.98507    0.01087     2.99549
      N    3   -0.20511      0.99958     2.69435    0.01118     3.70511
      C    4    0.11884      0.99947     1.87219    0.00950     2.88116
      C    5   -0.07728      0.99946     2.06929    0.00853     3.07728
      C    6   -0.18912      0.99961     2.18225    0.00726     3.18912
      C    7   -0.18609      0.99965     2.17941    0.00703     3.18609
      C    8   -0.18323      0.99965     2.17643    0.00715     3.18323
      C    9   -0.20436      0.99961     2.19825    0.00651     3.20436
      C   10   -0.07622      0.99948     2.06808    0.00866     3.07622
      C   11    0.05055      0.99951     1.93871    0.01124     2.94945
      C   12   -0.03919      0.99946     2.03160    0.00813     3.03919
      C   13   -0.13989      0.99953     2.13042    0.00993     3.13989
      C   14    0.24985      0.99955     1.72976    0.02084     2.75015
      O   15   -0.25302      0.99989     3.24691    0.00623     4.25302
      C   16   -0.12723      0.99947     2.11525    0.01251     3.12723
      C   17   -0.10131      0.99950     2.09272    0.00909     3.10131
      C   18   -0.15167      0.99954     2.14188    0.01024     3.15167
      C   19   -0.17397      0.99956     2.16287    0.01154     3.17397
      S   20    0.22284      4.99943     2.75367    0.02406     7.77716
      H   21    0.10317      0.00000     0.39567    0.00116     0.39683
      H   22    0.09223      0.00000     0.40678    0.00099     0.40777
      H   23    0.08993      0.00000     0.40893    0.00114     0.41007
      H   24    0.09733      0.00000     0.40135    0.00131     0.40267
      H   25    0.09249      0.00000     0.40608    0.00143     0.40751
      H   26    0.09303      0.00000     0.40570    0.00127     0.40697
      H   27    0.09214      0.00000     0.40666    0.00119     0.40786
      H   28    0.09297      0.00000     0.40574    0.00128     0.40703
      H   29    0.09263      0.00000     0.40615    0.00122     0.40737
      H   30    0.10363      0.00000     0.39517    0.00120     0.39637
      H   31    0.09725      0.00000     0.40130    0.00145     0.40275
      H   32    0.09697      0.00000     0.40211    0.00091     0.40303
      H   33    0.09786      0.00000     0.40119    0.00095     0.40214
      H   34    0.10040      0.00000     0.39748    0.00212     0.39960
      H   35    0.10845      0.00000     0.39062    0.00093     0.39155
      H   36    0.09790      0.00000     0.40096    0.00114     0.40210
      H   37    0.09887      0.00000     0.40013    0.00100     0.40113
 =======================================================================
   * Total *    0.00002     23.99108    50.78084    0.22806    74.99998

 Normal termination of Gaussian 16 at Mon Dec 14 14:49:10 2020.
