 Gaussian 16, Revision A.03,

 -----------------------------------------------------------
 # opt freq B3LYP/6-31G(d) empiricaldispersion=gd3bj scf=xqc
 -----------------------------------------------------------

 -----------------------------
 CID_45356561_JID_582_neutraal
 -----------------------------
 Symbolic Z-matrix:
 Charge =  0 Multiplicity = 1

 SCF Done:  E(RB3LYP) =  -494.663638232     A.U. after   15 cycles
 SCF Done:  E(RB3LYP) =  -494.667180130     A.U. after   12 cycles
 SCF Done:  E(RB3LYP) =  -494.667463678     A.U. after   11 cycles
 SCF Done:  E(RB3LYP) =  -494.667419460     A.U. after   11 cycles
 SCF Done:  E(RB3LYP) =  -494.667486988     A.U. after   10 cycles
 SCF Done:  E(RB3LYP) =  -494.667494237     A.U. after    9 cycles
 SCF Done:  E(RB3LYP) =  -494.667495386     A.U. after    9 cycles
 SCF Done:  E(RB3LYP) =  -494.667496667     A.U. after    9 cycles
 SCF Done:  E(RB3LYP) =  -494.667497034     A.U. after    8 cycles
 SCF Done:  E(RB3LYP) =  -494.667497125     A.U. after    7 cycles
 Optimization completed.
    -- Stationary point found.
 Normal termination of Gaussian 16 at Tue Dec  8 12:22:57 2020.

 --------------------------------------------------------------------
 #N Geom=AllCheck Guess=TCheck SCRF=Check GenChk RB3LYP/6-31G(d) Freq
 --------------------------------------------------------------------

 Structure from the checkpoint file:  "JID_582.chk"
 -----------------------------
 CID_45356561_JID_582_neutraal
 -----------------------------
 Charge =  0 Multiplicity = 1

 SCF Done:  E(RB3LYP) =  -494.667497125     A.U. after    1 cycles

  Exact polarizability:  97.802  -3.746  77.405  -2.702   0.620  57.920
 Approx polarizability: 146.743 -13.046 114.927  -7.089   0.680  82.092

                      1                      2                      3
                      A                      A                      A
 Frequencies --     72.8170                87.3280               212.8784
 Red. masses --      7.0103                 4.7182                 2.1934
 Frc consts  --      0.0219                 0.0212                 0.0586
 IR Inten    --      0.3925                 0.3046                 2.6075

                      4                      5                      6
                      A                      A                      A
 Frequencies --    238.8691               253.7091               291.7616
 Red. masses --      1.2335                 1.3627                 1.6192
 Frc consts  --      0.0415                 0.0517                 0.0812
 IR Inten    --      0.7771                 0.8901                 0.3070

                      7                      8                      9
                      A                      A                      A
 Frequencies --    329.4542               350.7561               362.2948
 Red. masses --      2.7682                11.4539                 2.6595
 Frc consts  --      0.1770                 0.8303                 0.2057
 IR Inten    --      0.1493                 2.0570                 2.9340

                     10                     11                     12
                      A                      A                      A
 Frequencies --    394.0850               461.2576               462.3203
 Red. masses --      2.1671                 3.2683                 3.6777
 Frc consts  --      0.1983                 0.4097                 0.4631
 IR Inten    --     21.7897                 1.9548                 3.3371

                     13                     14                     15
                      A                      A                      A
 Frequencies --    510.4650               580.6252               592.9909
 Red. masses --      3.3602                 1.4149                 3.3964
 Frc consts  --      0.5159                 0.2810                 0.7037
 IR Inten    --      7.0880                14.3665                33.2696

                     16                     17                     18
                      A                      A                      A
 Frequencies --    627.7623               666.8131               767.0330
 Red. masses --      2.3397                 3.1544                 4.5100
 Frc consts  --      0.5432                 0.8264                 1.5634
 IR Inten    --     76.2104                78.7136                 7.4395

                     19                     20                     21
                      A                      A                      A
 Frequencies --    808.4089               834.9353               925.1470
 Red. masses --     11.6093                 2.9387                 1.8788
 Frc consts  --      4.4701                 1.2070                 0.9474
 IR Inten    --      2.8098                 5.4479                 0.7217

                     22                     23                     24
                      A                      A                      A
 Frequencies --    956.9787               993.7749              1021.6579
 Red. masses --      1.4490                 2.0440                 1.5134
 Frc consts  --      0.7819                 1.1894                 0.9307
 IR Inten    --      0.7561                12.0141                 1.1324

                     25                     26                     27
                      A                      A                      A
 Frequencies --   1055.0153              1098.7379              1216.9039
 Red. masses --      1.5395                 2.0124                 2.0697
 Frc consts  --      1.0096                 1.4314                 1.8058
 IR Inten    --      2.6034                26.5455                 5.6799

                     28                     29                     30
                      A                      A                      A
 Frequencies --   1222.1949              1257.4618              1294.2625
 Red. masses --      2.5256                 2.7802                 2.5657
 Frc consts  --      2.2228                 2.5901                 2.5322
 IR Inten    --     17.4362                20.4189                32.4278

                     31                     32                     33
                      A                      A                      A
 Frequencies --   1330.6455              1374.6473              1410.0259
 Red. masses --      1.8196                 2.3310                 1.8447
 Frc consts  --      1.8982                 2.5952                 2.1608
 IR Inten    --     19.3120               221.9788                43.9744

                     34                     35                     36
                      A                      A                      A
 Frequencies --   1430.3213              1446.6424              1464.5552
 Red. masses --      1.2619                 1.3175                 1.7176
 Frc consts  --      1.5210                 1.6245                 2.1706
 IR Inten    --      8.1098                34.9139                18.3256

                     37                     38                     39
                      A                      A                      A
 Frequencies --   1489.1667              1513.3050              1515.0140
 Red. masses --      1.6967                 1.0534                 1.0558
 Frc consts  --      2.2168                 1.4213                 1.4277
 IR Inten    --     20.5195                 1.1917                 2.0100

                     40                     41                     42
                      A                      A                      A
 Frequencies --   1533.9124              1537.5589              1540.1140
 Red. masses --      1.0749                 1.0985                 1.0853
 Frc consts  --      1.4902                 1.5301                 1.5167
 IR Inten    --      1.1900                 1.5914                14.2557

                     43                     44                     45
                      A                      A                      A
 Frequencies --   1816.0501              1826.8792              3022.4249
 Red. masses --     10.1439                 9.6326                 1.0697
 Frc consts  --     19.7110                18.9414                 5.7575
 IR Inten    --    571.4133                86.9838                46.3225

                     46                     47                     48
                      A                      A                      A
 Frequencies --   3053.7842              3059.1941              3110.5348
 Red. masses --      1.0357                 1.0369                 1.0949
 Frc consts  --      5.6906                 5.7174                 6.2418
 IR Inten    --     14.3416                19.3049                13.3296

                     49                     50                     51
                      A                      A                      A
 Frequencies --   3120.6975              3126.9409              3137.4472
 Red. masses --      1.1022                 1.1016                 1.1035
 Frc consts  --      6.3242                 6.3464                 6.3999
 IR Inten    --      2.1471                41.7192                27.0590

                     52                     53                     54
                      A                      A                      A
 Frequencies --   3145.6167              3566.4768              3591.0100
 Red. masses --      1.1021                 1.0760                 1.0766
 Frc consts  --      6.4253                 8.0636                 8.1801
 IR Inten    --     16.7162                13.8768                20.0943

 - Thermochemistry -
 -------------------
 Temperature   298.150 Kelvin.  Pressure   1.00000 Atm.
 Atom     1 has atomic number  6 and mass  12.00000

 Molecular mass:   142.07423 amu.
 Principal axes and moments of inertia in atomic units:
                           1         2         3
     Eigenvalues --   806.083931621.821792014.82221
           X            0.99992   0.01218   0.00195
           Y           -0.01220   0.99991   0.00579
           Z           -0.00188  -0.00581   0.99998
 This molecule is an asymmetric top.
 Rotational symmetry number  1.
 Warning -- assumption of classical behavior for rotation
           may cause significant error
 Rotational temperatures (Kelvin)      0.10745     0.05341     0.04299
 Rotational constants (GHZ):           2.23890     1.11279     0.89573
 Zero-point vibrational energy     437304.9 (Joules/Mol)
                                  104.51837 (Kcal/Mol)
 Warning -- explicit consideration of  15 degrees of freedom as
           vibrations may cause significant error
 Vibrational temperatures:    104.77   125.65   306.28   343.68   365.03
          (Kelvin)            419.78   474.01   504.66   521.26   567.00
                              663.65   665.18   734.45   835.39   853.18
                              903.21   959.40  1103.59  1163.12  1201.29
                             1331.08  1376.88  1429.82  1469.94  1517.93
                             1580.84  1750.85  1758.47  1809.21  1862.16
                             1914.50  1977.81  2028.71  2057.91  2081.40
                             2107.17  2142.58  2177.31  2179.77  2206.96
                             2212.20  2215.88  2612.89  2628.47  4348.60
                             4393.71  4401.50  4475.37  4489.99  4498.97
                             4514.09  4525.84  5131.36  5166.66

 Zero-point correction=                           0.166561 (Hartree/Particle)
 Thermal correction to Energy=                    0.176216
 Thermal correction to Enthalpy=                  0.177160
 Thermal correction to Gibbs Free Energy=         0.132129
 Sum of electronic and zero-point Energies=           -494.500936
 Sum of electronic and thermal Energies=              -494.491281
 Sum of electronic and thermal Enthalpies=            -494.490337
 Sum of electronic and thermal Free Energies=         -494.535368

                     E (Thermal)             CV                S
                      KCal/Mol        Cal/Mol-Kelvin    Cal/Mol-Kelvin
 Total                  110.577             37.006             94.776
 Electronic               0.000              0.000              0.000
 Translational            0.889              2.981             40.765
 Rotational               0.889              2.981             29.356
 Vibrational            108.800             31.045             24.655
 Vibration     1          0.599              1.967              4.076
 Vibration     2          0.601              1.958              3.719
 Vibration     3          0.644              1.821              2.019
 Vibration     4          0.657              1.781              1.811
 Vibration     5          0.665              1.757              1.705
 Vibration     6          0.687              1.689              1.464
 Vibration     7          0.712              1.617              1.263
 Vibration     8          0.728              1.574              1.163
 Vibration     9          0.736              1.550              1.112
 Vibration    10          0.761              1.483              0.985
 Vibration    11          0.819              1.336              0.762
 Vibration    12          0.820              1.334              0.759
 Vibration    13          0.866              1.227              0.632
 Vibration    14          0.937              1.073              0.484
 Vibration    15          0.951              1.047              0.462

 Optimization completed.
    -- Stationary point found.
 Normal termination of Gaussian 16 at Tue Dec  8 12:29:00 2020.

 ----------------------------------------------------------------------
 # B3LYP/6-311++G(d,p) empiricaldispersion=gd3bj scf=xqc pop=npa geom=c
 heck
 ----------------------------------------------------------------------

 -------------------------------------
 CID_45356561_JID_582_Energie_neutraal
 -------------------------------------
 Structure from the checkpoint file:  "JID_582.chk"
 Charge =  0 Multiplicity = 1

 SCF Done:  E(RB3LYP) =  -494.819203012     A.U. after   14 cycles
 Normal termination of Gaussian 16 at Tue Dec  8 12:39:32 2020.

 ----------------------------------------------------------------------
 # B3LYP/6-311++G(d,p) empiricaldispersion=gd3bj scf=xqc pop=npa geom=c
 heck
 ----------------------------------------------------------------------

 -----------------------------------
 CID_45356561_JID_582_Energie_kation
 -----------------------------------
 Structure from the checkpoint file:  "JID_582.chk"
 Charge =  1 Multiplicity = 2

 SCF Done:  E(UB3LYP) =  -494.480160405     A.U. after   28 cycles
 Normal termination of Gaussian 16 at Tue Dec  8 12:49:40 2020.
 Gaussian 16:  ES64L-G16RevA.03 25-Dec-2016

 ----------------------------------------------------------------------
 # B3LYP/6-311++G(d,p) empiricaldispersion=gd3bj scf=xqc pop=npa geom=c
 heck
 ----------------------------------------------------------------------

 ----------------------------------
 CID_45356561_JID_582_Energie_anion
 ----------------------------------
 Structure from the checkpoint file:  "JID_582.chk"
 Charge = -1 Multiplicity = 2

                         Standard orientation:
 ---------------------------------------------------------------------
 Center     Atomic      Atomic             Coordinates (Angstroms)
 Number     Number       Type             X           Y           Z
 ---------------------------------------------------------------------
      1          6           0        1.556849   -0.215805    1.533677
      2          6           0        1.326658    0.025196    0.031828
      3          6           0        0.764298   -1.226384   -0.655714
      4          7           0       -0.588011   -1.492087   -0.190596
      5          6           0       -1.541516   -0.520869   -0.029195
      6          8           0       -2.714999   -0.762835    0.178251
      7          6           0       -1.024553    0.937100   -0.082235
      8          8           0       -1.800590    1.873658   -0.062019
      9          7           0        0.334934    1.089798   -0.179089
     10          6           0        2.631642    0.442773   -0.652285
     11          1           0        2.330808   -0.975324    1.692373
     12          1           0        0.636976   -0.551716    2.019759
     13          1           0        1.882933    0.710340    2.018142
     14          1           0        0.790545   -1.080724   -1.745507
     15          1           0        1.391545   -2.089331   -0.414813
     16          1           0       -0.953401   -2.435553   -0.240375
     17          1           0        0.645396    2.051963   -0.091591
     18          1           0        3.033540    1.352030   -0.190883
     19          1           0        3.387206   -0.342748   -0.548697
     20          1           0        2.470429    0.638440   -1.716925
 ---------------------------------------------------------------------

 SCF Done:  E(UB3LYP) =  -494.816904903     A.U. after   31 cycles

 The electronic state is 2-A.
 Alpha  occ. eigenvalues --  -18.96575 -18.96558 -14.22252 -14.21874 -10.14560
 Alpha  occ. eigenvalues --  -10.14446 -10.12262 -10.10294 -10.06337 -10.05500
 Alpha  occ. eigenvalues --   -0.93256  -0.90375  -0.83781  -0.79161  -0.68851
 Alpha  occ. eigenvalues --   -0.59323  -0.59143  -0.55172  -0.49783  -0.42034
 Alpha  occ. eigenvalues --   -0.41181  -0.39436  -0.37837  -0.34652  -0.33267
 Alpha  occ. eigenvalues --   -0.31323  -0.30187  -0.29935  -0.29162  -0.28067
 Alpha  occ. eigenvalues --   -0.27468  -0.26432  -0.24390  -0.23688  -0.15907
 Alpha  occ. eigenvalues --   -0.15057  -0.14051  -0.12666   0.04349
 Alpha virt. eigenvalues --    0.06633   0.07691   0.08762   0.09418   0.10429
 Alpha virt. eigenvalues --    0.11228   0.11697   0.12907   0.13206   0.14354
 Alpha virt. eigenvalues --    0.15809   0.16438   0.17350   0.18090   0.18492

  Beta  occ. eigenvalues --  -18.96441 -18.96400 -14.22234 -14.21816 -10.14456
  Beta  occ. eigenvalues --  -10.14327 -10.12262 -10.10250 -10.06294 -10.05454
  Beta  occ. eigenvalues --   -0.92995  -0.90129  -0.83665  -0.79041  -0.68767
  Beta  occ. eigenvalues --   -0.59229  -0.59033  -0.54819  -0.49658  -0.41918
  Beta  occ. eigenvalues --   -0.41092  -0.39238  -0.37738  -0.34481  -0.33089
  Beta  occ. eigenvalues --   -0.31096  -0.29876  -0.29835  -0.28847  -0.27914
  Beta  occ. eigenvalues --   -0.27341  -0.26241  -0.24322  -0.23237  -0.15709
  Beta  occ. eigenvalues --   -0.14627  -0.13633  -0.12469
  Beta virt. eigenvalues --    0.07251   0.08360   0.08572   0.09414   0.10261
  Beta virt. eigenvalues --    0.10951   0.11722   0.12034   0.13449   0.13634
  Beta virt. eigenvalues --    0.14634   0.15977   0.16628   0.17445   0.18208

 Mulliken charges and spin densities:
               1          2
     1  C    0.801214  -1.304004
     2  C   -1.472659   1.639109
     3  C    0.968280  -1.474769
     4  N   -0.409785   0.222851
     5  C    0.011361   0.188085
     6  O   -0.390894   0.061582
     7  C    0.270343  -0.076177
     8  O   -0.369506   0.043525
     9  N   -0.137612   0.032231
    10  C    1.176318  -1.658434
    11  H   -0.200372   0.348448
    12  H    0.039053   0.130956
    13  H   -0.197543   0.352267
    14  H   -0.044096   0.233623
    15  H   -0.775249   0.951925
    16  H    0.160057   0.142496
    17  H    0.262852   0.018415
    18  H   -0.318043   0.462584
    19  H   -0.242007   0.398351
    20  H   -0.131712   0.286937
 Sum of Mulliken charges =  -1.00000   1.00000

 Dipole moment (field-independent basis, Debye):
    X=              0.4520    Y=              0.6538    Z=             -0.6349  Tot=              1.0173
 Quadrupole moment (field-independent basis, Debye-Ang):
   XX=           -118.5118   YY=            -91.2598   ZZ=            -81.3062
   XY=             11.0988   XZ=              0.4415   YZ=              0.7681

 Summary of Natural Population Analysis:

                                       Natural Population
                Natural  -----------------------------------------------
    Atom  No    Charge         Core      Valence    Rydberg      Total
 -----------------------------------------------------------------------
      C    1   -0.28963      0.99961     2.28319    0.00684     3.28963
      C    2    0.05438      0.99958     1.93227    0.01377     2.94562
      C    3   -0.08480      0.99955     2.07292    0.01234     3.08480
      N    4   -0.32149      0.99969     2.81121    0.01059     3.82149
      C    5    0.31602      0.99966     1.65992    0.02440     2.68398
      O    6   -0.29143      0.99988     3.28562    0.00594     4.29143
      C    7    0.31748      0.99966     1.65959    0.02326     2.68252
      O    8   -0.29516      0.99988     3.28923    0.00606     4.29516
      N    9   -0.32282      0.99965     2.81202    0.01115     3.82282
      C   10   -0.28555      0.99962     2.27849    0.00744     3.28555
      H   11    0.10416      0.00000     0.39415    0.00169     0.39584
      H   12    0.10512      0.00000     0.39319    0.00169     0.39488
      H   13    0.10032      0.00000     0.39856    0.00113     0.39968
      H   14    0.09332      0.00000     0.40482    0.00185     0.40668
      H   15    0.10589      0.00000     0.39098    0.00312     0.39411
      H   16    0.19230      0.00000     0.30522    0.00248     0.30770
      H   17    0.19030      0.00000     0.30683    0.00287     0.30970
      H   18    0.10088      0.00000     0.39776    0.00136     0.39912
      H   19    0.10718      0.00000     0.39090    0.00192     0.39282
      H   20    0.10353      0.00000     0.39519    0.00129     0.39647
 =======================================================================
   * Total *    0.00000      9.99676    27.86205    0.14118    38.00000

 Normal termination of Gaussian 16 at Tue Dec  8 13:04:42 2020.
