 Gaussian 16, Revision A.03,

 -----------------------------------------------------------
 # opt freq B3LYP/6-31G(d) empiricaldispersion=gd3bj scf=xqc
 -----------------------------------------------------------

 ------------------------------
 CID_22539847_JID_8377_neutraal
 ------------------------------
 Symbolic Z-matrix:
 Charge =  0 Multiplicity = 1

 SCF Done:  E(RB3LYP) =  -795.437761693     A.U. after   15 cycles
 SCF Done:  E(RB3LYP) =  -795.448326145     A.U. after   13 cycles
 SCF Done:  E(RB3LYP) =  -795.451292864     A.U. after   12 cycles
 SCF Done:  E(RB3LYP) =  -795.452806223     A.U. after   12 cycles
 SCF Done:  E(RB3LYP) =  -795.454263096     A.U. after   13 cycles
 SCF Done:  E(RB3LYP) =  -795.454928336     A.U. after   12 cycles
 SCF Done:  E(RB3LYP) =  -795.455672908     A.U. after   12 cycles
 SCF Done:  E(RB3LYP) =  -795.456511224     A.U. after   12 cycles
 SCF Done:  E(RB3LYP) =  -795.456257925     A.U. after   13 cycles
 SCF Done:  E(RB3LYP) =  -795.457902892     A.U. after   12 cycles
 SCF Done:  E(RB3LYP) =  -795.459086861     A.U. after   10 cycles
 SCF Done:  E(RB3LYP) =  -795.459088393     A.U. after   10 cycles
 SCF Done:  E(RB3LYP) =  -795.459088906     A.U. after    8 cycles
 SCF Done:  E(RB3LYP) =  -795.459088985     A.U. after    8 cycles
 SCF Done:  E(RB3LYP) =  -795.459089005     A.U. after    7 cycles
 Optimization completed.
    -- Stationary point found.
 Normal termination of Gaussian 16 at Fri Dec 11 20:26:17 2020.

 --------------------------------------------------------------------
 #N Geom=AllCheck Guess=TCheck SCRF=Check GenChk RB3LYP/6-31G(d) Freq
 --------------------------------------------------------------------

 Structure from the checkpoint file:  "JID_8377.chk"
 ------------------------------
 CID_22539847_JID_8377_neutraal
 ------------------------------
 Charge =  0 Multiplicity = 1

 SCF Done:  E(RB3LYP) =  -795.459089005     A.U. after    1 cycles

  Exact polarizability: 218.093   5.277 155.199   5.611  10.010 121.218
 Approx polarizability: 309.996  23.162 244.529  16.246  30.158 211.885

                      1                      2                      3
                      A                      A                      A
 Frequencies --     22.6147                34.7953                49.1577
 Red. masses --      3.9773                 4.8923                 4.5036
 Frc consts  --      0.0012                 0.0035                 0.0064
 IR Inten    --      0.1133                 0.4487                 0.3413

                      4                      5                      6
                      A                      A                      A
 Frequencies --     82.7010               121.0261               142.9807
 Red. masses --      3.3785                 4.0670                 2.1468
 Frc consts  --      0.0136                 0.0351                 0.0259
 IR Inten    --      0.4457                 0.0425                 0.6160

                      7                      8                      9
                      A                      A                      A
 Frequencies --    169.8687               184.3960               197.0674
 Red. masses --      3.0881                 1.6230                 3.2987
 Frc consts  --      0.0525                 0.0325                 0.0755
 IR Inten    --      0.1810                16.6815                 5.7883

                     10                     11                     12
                      A                      A                      A
 Frequencies --    203.5192               232.2161               259.8487
 Red. masses --      2.0833                 3.8595                 1.8116
 Frc consts  --      0.0508                 0.1226                 0.0721
 IR Inten    --      8.8522                 2.4810                 0.7185

                     13                     14                     15
                      A                      A                      A
 Frequencies --    265.7875               288.3808               338.4358
 Red. masses --      5.0777                 2.3018                 3.3927
 Frc consts  --      0.2113                 0.1128                 0.2290
 IR Inten    --      1.8259                 1.2502                 6.3824

                     16                     17                     18
                      A                      A                      A
 Frequencies --    365.1316               371.6702               387.6442
 Red. masses --      3.3864                 3.5804                 1.3092
 Frc consts  --      0.2660                 0.2914                 0.1159
 IR Inten    --      7.5838                 7.9990                10.0092

                     19                     20                     21
                      A                      A                      A
 Frequencies --    419.2008               448.6818               479.9809
 Red. masses --      3.0552                 4.3399                 3.6519
 Frc consts  --      0.3163                 0.5148                 0.4957
 IR Inten    --      0.3075                15.4697                16.3824

                     22                     23                     24
                      A                      A                      A
 Frequencies --    535.7181               538.9463               573.8611
 Red. masses --      3.3798                 5.7288                 3.8505
 Frc consts  --      0.5715                 0.9804                 0.7471
 IR Inten    --     12.6069                19.7138                17.4593

                     25                     26                     27
                      A                      A                      A
 Frequencies --    605.6980               628.2347               635.1280
 Red. masses --      3.5726                 3.5765                 6.3224
 Frc consts  --      0.7722                 0.8317                 1.5026
 IR Inten    --     60.4398                39.6472                 0.0619

                     28                     29                     30
                      A                      A                      A
 Frequencies --    686.7377               702.4101               708.2053
 Red. masses --      2.9376                 2.6671                 3.0500
 Frc consts  --      0.8163                 0.7753                 0.9013
 IR Inten    --     92.5652                22.4504                44.4315

                     31                     32                     33
                      A                      A                      A
 Frequencies --    759.6591               767.9605               803.3431
 Red. masses --      2.7728                 1.9359                 3.6156
 Frc consts  --      0.9428                 0.6727                 1.3748
 IR Inten    --     37.0722                46.5205                31.7990

                     34                     35                     36
                      A                      A                      A
 Frequencies --    816.2442               831.8150               839.6882
 Red. masses --      1.5673                 2.0464                 1.2458
 Frc consts  --      0.6153                 0.8342                 0.5175
 IR Inten    --     29.9124                48.8098                32.1085

                     37                     38                     39
                      A                      A                      A
 Frequencies --    869.4245               890.6454               913.2559
 Red. masses --      2.0112                 1.5154                 3.5023
 Frc consts  --      0.8957                 0.7082                 1.7210
 IR Inten    --    135.4340                 8.9098                42.0136

                     40                     41                     42
                      A                      A                      A
 Frequencies --    947.5775               952.1863               956.9309
 Red. masses --      2.4043                 1.3359                 1.8642
 Frc consts  --      1.2720                 0.7136                 1.0058
 IR Inten    --     20.2579                 0.5429                14.8381

                     43                     44                     45
                      A                      A                      A
 Frequencies --    973.1652               980.7633              1015.0457
 Red. masses --      2.0199                 1.2453                 5.5700
 Frc consts  --      1.1271                 0.7057                 3.3812
 IR Inten    --     18.0407                 1.0340                 0.9785

                     46                     47                     48
                      A                      A                      A
 Frequencies --   1035.6134              1069.7093              1102.2679
 Red. masses --      2.2823                 2.1994                 2.5650
 Frc consts  --      1.4422                 1.4828                 1.8361
 IR Inten    --     30.7828                 8.0328                 2.4908

                     49                     50                     51
                      A                      A                      A
 Frequencies --   1127.2128              1161.0927              1173.2403
 Red. masses --      1.7672                 1.9010                 1.6982
 Frc consts  --      1.3230                 1.5100                 1.3773
 IR Inten    --      0.8035                 4.8119                68.0709

                     52                     53                     54
                      A                      A                      A
 Frequencies --   1195.9188              1197.7611              1216.4014
 Red. masses --      1.2718                 1.6126                 4.8804
 Frc consts  --      1.0717                 1.3631                 4.2546
 IR Inten    --      1.3611                 0.1799                44.7164

                     55                     56                     57
                      A                      A                      A
 Frequencies --   1232.5676              1265.0459              1292.4329
 Red. masses --      1.1873                 2.4545                 3.6570
 Frc consts  --      1.0628                 2.3144                 3.5991
 IR Inten    --      4.0065               219.5505                56.8556

                     58                     59                     60
                      A                      A                      A
 Frequencies --   1305.0700              1340.8944              1349.2782
 Red. masses --      2.7234                 1.5948                 3.5693
 Frc consts  --      2.7329                 1.6895                 3.8286
 IR Inten    --    104.3805                13.3378                 1.7263

                     61                     62                     63
                      A                      A                      A
 Frequencies --   1356.4294              1363.8034              1383.6871
 Red. masses --      1.8458                 2.2187                 1.3977
 Frc consts  --      2.0010                 2.4314                 1.5767
 IR Inten    --     23.9123                14.8918                 7.5469

                     64                     65                     66
                      A                      A                      A
 Frequencies --   1390.0225              1417.0867              1443.8306
 Red. masses --      1.7593                 1.3729                 1.3303
 Frc consts  --      2.0028                 1.6243                 1.6340
 IR Inten    --     22.0910                11.9174                19.2196

                     67                     68                     69
                      A                      A                      A
 Frequencies --   1468.1556              1487.9293              1507.5217
 Red. masses --      1.8325                 2.1138                 2.3018
 Frc consts  --      2.3272                 2.7573                 3.0821
 IR Inten    --     49.5673                38.9695                 1.3193

                     70                     71                     72
                      A                      A                      A
 Frequencies --   1521.1359              1522.5665              1531.7473
 Red. masses --      1.2343                 2.2492                 1.1118
 Frc consts  --      1.6827                 3.0721                 1.5369
 IR Inten    --     50.3133                88.1311                29.5865

                     73                     74                     75
                      A                      A                      A
 Frequencies --   1542.3467              1553.2124              1613.6120
 Red. masses --      1.1310                 1.9866                 4.0357
 Frc consts  --      1.5852                 2.8238                 6.1910
 IR Inten    --     18.5926               100.6950                16.9068

                     76                     77                     78
                      A                      A                      A
 Frequencies --   1632.1148              1641.5514              1669.5520
 Red. masses --      4.2477                 5.5484                 5.5693
 Frc consts  --      6.6667                 8.8090                 9.1464
 IR Inten    --    385.2987                 0.2357                56.4704

                     79                     80                     81
                      A                      A                      A
 Frequencies --   1681.5736              1745.7437              3026.6363
 Red. masses --      1.3989                 1.0611                 1.0674
 Frc consts  --      2.3306                 1.9053                 5.7610
 IR Inten    --     88.2481                27.8072                30.5960

                     82                     83                     84
                      A                      A                      A
 Frequencies --   3059.6971              3098.1249              3125.7774
 Red. masses --      1.0370                 1.0952                 1.1022
 Frc consts  --      5.7201                 6.1938                 6.3452
 IR Inten    --     24.0190                15.5352                31.9371

                     85                     86                     87
                      A                      A                      A
 Frequencies --   3146.1485              3182.5846              3190.0270
 Red. masses --      1.1015                 1.0853                 1.0900
 Frc consts  --      6.4238                 6.4766                 6.5351
 IR Inten    --     29.0391                 3.4257                20.5465

                     88                     89                     90
                      A                      A                      A
 Frequencies --   3190.7524              3209.6781              3229.1022
 Red. masses --      1.0908                 1.0952                 1.0918
 Frc consts  --      6.5428                 6.6477                 6.7075
 IR Inten    --     30.1955                37.4745                 6.2488

                     91                     92                     93
                      A                      A                      A
 Frequencies --   3237.2697              3427.3686              3484.5905
 Red. masses --      1.0908                 1.0499                 1.0480
 Frc consts  --      6.7352                 7.2662                 7.4974
 IR Inten    --     11.0532                 5.7897                 7.9188

                     94                     95                     96
                      A                      A                      A
 Frequencies --   3509.8735              3547.9520              3584.3321
 Red. masses --      1.0914                 1.0765                 1.0960
 Frc consts  --      7.9220                 7.9840                 8.2958
 IR Inten    --      1.6351                25.6091                26.4737

 - Thermochemistry -
 -------------------
 Temperature   298.150 Kelvin.  Pressure   1.00000 Atm.
 Atom     1 has atomic number  6 and mass  12.00000

 Molecular mass:   244.14364 amu.
 Principal axes and moments of inertia in atomic units:
                           1         2         3
     Eigenvalues --  2506.362976537.504197594.35683
           X            0.99998   0.00486   0.00283
           Y           -0.00481   0.99981  -0.01868
           Z           -0.00292   0.01866   0.99982
 This molecule is an asymmetric top.
 Rotational symmetry number  1.
 Warning -- assumption of classical behavior for rotation
           may cause significant error
 Rotational temperatures (Kelvin)      0.03456     0.01325     0.01141
 Rotational constants (GHZ):           0.72006     0.27606     0.23764
 Zero-point vibrational energy     746384.8 (Joules/Mol)
                                  178.39025 (Kcal/Mol)
 Warning -- explicit consideration of  25 degrees of freedom as
           vibrations may cause significant error
 Vibrational temperatures:     32.54    50.06    70.73   118.99   174.13
          (Kelvin)            205.72   244.40   265.30   283.54   292.82
                              334.11   373.86   382.41   414.92   486.93
                              525.34   534.75   557.73   603.14   645.55
                              690.59   770.78   775.42   825.66   871.46
                              903.89   913.81   988.06  1010.61  1018.95
                             1092.98  1104.92  1155.83  1174.39  1196.80
                             1208.12  1250.91  1281.44  1313.97  1363.35
                             1369.98  1376.81  1400.17  1411.10  1460.42
                             1490.02  1539.07  1585.92  1621.81  1670.55
                             1688.03  1720.66  1723.31  1750.13  1773.39
                             1820.12  1859.52  1877.70  1929.25  1941.31
                             1951.60  1962.21  1990.82  1999.93  2038.87
                             2077.35  2112.35  2140.80  2168.99  2188.58
                             2190.63  2203.84  2219.09  2234.73  2321.63
                             2348.25  2361.83  2402.11  2419.41  2511.74
                             4354.65  4402.22  4457.51  4497.30  4526.61
                             4579.03  4589.74  4590.78  4618.01  4645.96
                             4657.71  4931.22  5013.55  5049.93  5104.71
                             5157.05

 Zero-point correction=                           0.284283 (Hartree/Particle)
 Thermal correction to Energy=                    0.300805
 Thermal correction to Enthalpy=                  0.301750
 Thermal correction to Gibbs Free Energy=         0.239304
 Sum of electronic and zero-point Energies=           -795.174806
 Sum of electronic and thermal Energies=              -795.158284
 Sum of electronic and thermal Enthalpies=            -795.157339
 Sum of electronic and thermal Free Energies=         -795.219785

                     E (Thermal)             CV                S
                      KCal/Mol        Cal/Mol-Kelvin    Cal/Mol-Kelvin
 Total                  188.758             63.730            131.428
 Electronic               0.000              0.000              0.000
 Translational            0.889              2.981             42.379
 Rotational               0.889              2.981             33.187
 Vibrational            186.981             57.769             55.862
 Vibration     1          0.593              1.985              6.390
 Vibration     2          0.594              1.983              5.535
 Vibration     3          0.595              1.978              4.851
 Vibration     4          0.600              1.961              3.826
 Vibration     5          0.609              1.932              3.084
 Vibration     6          0.616              1.910              2.764
 Vibration     7          0.625              1.880              2.437
 Vibration     8          0.631              1.861              2.283
 Vibration     9          0.636              1.844              2.160
 Vibration    10          0.639              1.835              2.101
 Vibration    11          0.653              1.792              1.862
 Vibration    12          0.668              1.746              1.663
 Vibration    13          0.672              1.736              1.623
 Vibration    14          0.685              1.695              1.483
 Vibration    15          0.719              1.599              1.220
 Vibration    16          0.738              1.544              1.100
 Vibration    17          0.743              1.530              1.073
 Vibration    18          0.756              1.497              1.009
 Vibration    19          0.782              1.429              0.895
 Vibration    20          0.808              1.364              0.800
 Vibration    21          0.836              1.294              0.710
 Vibration    22          0.891              1.171              0.575
 Vibration    23          0.894              1.164              0.568
 Vibration    24          0.930              1.088              0.497
 Vibration    25          0.964              1.020              0.440

 Optimization completed.
    -- Stationary point found.
 Normal termination of Gaussian 16 at Fri Dec 11 20:39:47 2020.

 ----------------------------------------------------------------------
 # B3LYP/6-311++G(d,p) empiricaldispersion=gd3bj scf=xqc pop=npa geom=c
 heck
 ----------------------------------------------------------------------

 --------------------------------------
 CID_22539847_JID_8377_Energie_neutraal
 --------------------------------------
 Structure from the checkpoint file:  "JID_8377.chk"
 Charge =  0 Multiplicity = 1

 SCF Done:  E(RB3LYP) =  -795.685254870     A.U. after   15 cycles
 Normal termination of Gaussian 16 at Fri Dec 11 20:44:58 2020.

 ----------------------------------------------------------------------
 # B3LYP/6-311++G(d,p) empiricaldispersion=gd3bj scf=xqc pop=npa geom=c
 heck
 ----------------------------------------------------------------------

 ------------------------------------
 CID_22539847_JID_8377_Energie_kation
 ------------------------------------
 Structure from the checkpoint file:  "JID_8377.chk"
 Charge =  1 Multiplicity = 2

 SCF Done:  E(UB3LYP) =  -795.410438729     A.U. after   26 cycles
 Normal termination of Gaussian 16 at Fri Dec 11 20:57:03 2020.
 Gaussian 16:  ES64L-G16RevA.03 25-Dec-2016

 ----------------------------------------------------------------------
 # B3LYP/6-311++G(d,p) empiricaldispersion=gd3bj scf=xqc pop=npa geom=c
 heck
 ----------------------------------------------------------------------

 -----------------------------------
 CID_22539847_JID_8377_Energie_anion
 -----------------------------------
 Structure from the checkpoint file:  "JID_8377.chk"
 Charge = -1 Multiplicity = 2

                         Standard orientation:
 ---------------------------------------------------------------------
 Center     Atomic      Atomic             Coordinates (Angstroms)
 Number     Number       Type             X           Y           Z
 ---------------------------------------------------------------------
      1          6           0        0.103759    3.215551   -0.818698
      2          6           0        1.234861    2.347427   -0.275527
      3          7           0        0.908053    0.915261   -0.343131
      4          6           0        1.953263   -0.017561   -0.098615
      5          6           0        1.685141   -1.398614   -0.150518
      6          6           0        2.702445   -2.326143    0.042809
      7          6           0        4.013683   -1.912057    0.288049
      8          6           0        4.283970   -0.547793    0.344887
      9          6           0        3.269785    0.393962    0.161971
     10          6           0       -0.370363    0.583888    0.206547
     11          7           0       -0.643458    0.962028    1.470330
     12          6           0       -1.852732    0.663758    1.925923
     13          7           0       -2.817799   -0.004498    1.273657
     14          6           0       -2.536715   -0.378326    0.025656
     15          6           0       -1.298284   -0.067961   -0.593631
     16          7           0       -1.041768   -0.481859   -1.907043
     17          7           0       -3.486826   -1.066087   -0.705750
     18          7           0       -4.642889   -1.566724   -0.054257
     19          1           0       -0.171122    2.905218   -1.832966
     20          1           0        0.428556    4.260530   -0.855057
     21          1           0       -0.786031    3.162244   -0.186039
     22          1           0        2.124842    2.498994   -0.892974
     23          1           0        1.482706    2.646978    0.752920
     24          1           0        0.679327   -1.746588   -0.354230
     25          1           0        2.465210   -3.385604   -0.004642
     26          1           0        4.805514   -2.640192    0.435097
     27          1           0        5.293429   -0.199406    0.546725
     28          1           0        3.513939    1.445240    0.244839
     29          1           0       -2.090682    0.980710    2.938692
     30          1           0       -1.798238   -0.247064   -2.545675
     31          1           0       -0.161373   -0.091403   -2.234717
     32          1           0       -3.093211   -1.745892   -1.348716
     33          1           0       -4.411695   -1.663066    0.937881
     34          1           0       -5.341230   -0.824343   -0.090905
 ---------------------------------------------------------------------

 SCF Done:  E(UB3LYP) =  -795.675347242     A.U. after   33 cycles
 SCF Done:  E(UB3LYP) =  -795.675347242     a.u. after    1 cycles

 The electronic state is 2-A.
 Alpha  occ. eigenvalues --  -14.26133 -14.24097 -14.23366 -14.22129 -14.20855
 Alpha  occ. eigenvalues --  -14.20527 -10.14971 -10.13383 -10.13067 -10.12139
 Alpha  occ. eigenvalues --  -10.11684 -10.10110 -10.08370 -10.08283 -10.07670
 Alpha  occ. eigenvalues --  -10.07648 -10.07467 -10.05989  -0.91699  -0.88410
 Alpha  occ. eigenvalues --   -0.84723  -0.81745  -0.77904  -0.75278  -0.70977
 Alpha  occ. eigenvalues --   -0.66955  -0.65855  -0.65030  -0.62049  -0.55719
 Alpha  occ. eigenvalues --   -0.55152  -0.52842  -0.50746  -0.48884  -0.46219
 Alpha  occ. eigenvalues --   -0.45193  -0.42933  -0.41249  -0.40143  -0.39061
 Alpha  occ. eigenvalues --   -0.38781  -0.38606  -0.36492  -0.35852  -0.35409
 Alpha  occ. eigenvalues --   -0.34211  -0.33241  -0.32577  -0.31921  -0.29023
 Alpha  occ. eigenvalues --   -0.28775  -0.26969  -0.26732  -0.25965  -0.24997
 Alpha  occ. eigenvalues --   -0.24471  -0.23582  -0.21231  -0.19818  -0.19300
 Alpha  occ. eigenvalues --   -0.16787  -0.16212  -0.16112  -0.11880  -0.11633
 Alpha  occ. eigenvalues --    0.04323
 Alpha virt. eigenvalues --    0.06322   0.06730   0.06904   0.07257   0.07838
 Alpha virt. eigenvalues --    0.08118   0.08352   0.08810   0.09090   0.09222
 Alpha virt. eigenvalues --    0.09964   0.10490   0.10743   0.11721   0.12213

  Beta  occ. eigenvalues --  -14.26122 -14.24081 -14.23367 -14.22076 -14.20768
  Beta  occ. eigenvalues --  -14.20512 -10.14924 -10.13264 -10.13065 -10.12121
  Beta  occ. eigenvalues --  -10.11681 -10.10087 -10.08363 -10.08279 -10.07667
  Beta  occ. eigenvalues --  -10.07640 -10.07462 -10.05953  -0.91628  -0.88331
  Beta  occ. eigenvalues --   -0.84650  -0.81676  -0.77808  -0.75255  -0.70894
  Beta  occ. eigenvalues --   -0.66909  -0.65793  -0.64976  -0.62001  -0.55618
  Beta  occ. eigenvalues --   -0.55083  -0.52780  -0.50704  -0.48840  -0.46159
  Beta  occ. eigenvalues --   -0.45153  -0.42883  -0.41195  -0.40051  -0.39010
  Beta  occ. eigenvalues --   -0.38722  -0.38549  -0.36444  -0.35800  -0.35360
  Beta  occ. eigenvalues --   -0.34160  -0.33193  -0.32525  -0.31765  -0.28972
  Beta  occ. eigenvalues --   -0.28735  -0.26915  -0.26701  -0.25924  -0.24924
  Beta  occ. eigenvalues --   -0.24373  -0.23402  -0.21140  -0.19765  -0.19210
  Beta  occ. eigenvalues --   -0.16609  -0.16164  -0.16042  -0.11721  -0.11550
  Beta virt. eigenvalues --    0.06291   0.06888   0.07332   0.07528   0.07890
  Beta virt. eigenvalues --    0.07940   0.08287   0.08548   0.09041   0.09169
  Beta virt. eigenvalues --    0.09455   0.10462   0.10624   0.10931   0.11993

 Mulliken charges and spin densities:
               1          2
     1  C    0.584342  -1.238376
     2  C    0.290442  -0.328288
     3  N    0.697301  -0.154749
     4  C    1.086807  -0.967192
     5  C   -0.215707   0.001388
     6  C   -0.570218   0.414986
     7  C    0.083532  -0.422006
     8  C   -0.664934   0.283092
     9  C    0.024896   0.010085
    10  C   -1.549643   1.086983
    11  N   -0.099837   0.041895
    12  C   -0.254228   0.258204
    13  N   -0.175108   0.032110
    14  C    1.652741  -2.383600
    15  C   -0.143811   0.362078
    16  N   -0.808660   0.426427
    17  N   -0.176297   0.037980
    18  N   -0.188793  -0.131270
    19  H   -0.255173   0.425844
    20  H   -0.322260   0.468320
    21  H    0.056106   0.107905
    22  H   -0.255002   0.394356
    23  H    0.199438  -0.019196
    24  H    0.057793   0.100885
    25  H   -0.009545   0.179078
    26  H    0.083284   0.039545
    27  H   -0.022656   0.178909
    28  H   -0.113429   0.273214
    29  H    0.091671   0.083964
    30  H   -0.470041   0.752148
    31  H    0.028595   0.258694
    32  H    0.096145   0.185622
    33  H    0.203015   0.037490
    34  H    0.059235   0.203474
 Sum of Mulliken charges =  -1.00000   1.00000

 Dipole moment (field-independent basis, Debye):
    X=              1.7811    Y=             -2.2411    Z=              4.8352  Tot=              5.6191
 Quadrupole moment (field-independent basis, Debye-Ang):
   XX=           -167.1634   YY=           -148.7551   ZZ=           -150.2610
   XY=             -8.6094   XZ=             -7.5943   YZ=              4.4172

 Summary of Natural Population Analysis:

                                       Natural Population
                Natural  -----------------------------------------------
    Atom  No    Charge         Core      Valence    Rydberg      Total
 -----------------------------------------------------------------------
      C    1   -0.28939      0.99966     2.28456    0.00518     3.28939
      C    2   -0.08252      0.99962     2.07173    0.01118     3.08252
      N    3   -0.27285      0.99963     2.75875    0.01447     3.77285
      C    4    0.10357      0.99946     1.88578    0.01118     2.89643
      C    5   -0.11872      0.99952     2.11020    0.00900     3.11872
      C    6   -0.09470      0.99957     2.08615    0.00899     3.09470
      C    7   -0.12577      0.99956     2.11604    0.01017     3.12577
      C    8   -0.09377      0.99957     2.08504    0.00916     3.09377
      C    9   -0.12854      0.99952     2.11988    0.00914     3.12854
      C   10    0.20493      0.99944     1.77781    0.01782     2.79507
      N   11   -0.25933      0.99967     2.75059    0.00907     3.75933
      C   12    0.13445      0.99966     1.84761    0.01828     2.86555
      N   13   -0.27095      0.99967     2.76141    0.00988     3.77095
      C   14    0.20102      0.99949     1.78273    0.01676     2.79898
      C   15    0.03407      0.99936     1.95347    0.01310     2.96593
      N   16   -0.40592      0.99972     2.89457    0.01163     3.90592
      N   17   -0.22697      0.99966     2.71314    0.01416     3.72697
      N   18   -0.31795      0.99978     2.80782    0.01036     3.81795
      H   19    0.10266      0.00000     0.39541    0.00194     0.39734
      H   20    0.10145      0.00000     0.39756    0.00099     0.39855
      H   21    0.10146      0.00000     0.39718    0.00136     0.39854
      H   22    0.09810      0.00000     0.39992    0.00198     0.40190
      H   23    0.09012      0.00000     0.40769    0.00219     0.40988
      H   24    0.10974      0.00000     0.38820    0.00206     0.39026
      H   25    0.09891      0.00000     0.40032    0.00077     0.40109
      H   26    0.09769      0.00000     0.40159    0.00072     0.40231
      H   27    0.09791      0.00000     0.40133    0.00076     0.40209
      H   28    0.10553      0.00000     0.39323    0.00124     0.39447
      H   29    0.07973      0.00000     0.41923    0.00104     0.42027
      H   30    0.19260      0.00000     0.29856    0.00884     0.30740
      H   31    0.19503      0.00000     0.30195    0.00301     0.30497
      H   32    0.18954      0.00000     0.30693    0.00353     0.31046
      H   33    0.17623      0.00000     0.32119    0.00257     0.32377
      H   34    0.17265      0.00000     0.32526    0.00209     0.32735
 =======================================================================
   * Total *   -0.00000     17.99255    46.76282    0.24463    65.00000

 Normal termination of Gaussian 16 at Fri Dec 11 21:12:36 2020.
