 Gaussian 16, Revision A.03,

 -----------------------------------------------------------
 # opt freq B3LYP/6-31G(d) empiricaldispersion=gd3bj scf=xqc
 -----------------------------------------------------------

 ------------------------------
 CID_13358837_JID_4863_neutraal
 ------------------------------
 Symbolic Z-matrix:
 Charge =  0 Multiplicity = 1

 SCF Done:  E(RB3LYP) =  -576.433426052     A.U. after   15 cycles
 SCF Done:  E(RB3LYP) =  -576.438091373     A.U. after   12 cycles
 SCF Done:  E(RB3LYP) =  -576.438661726     A.U. after   11 cycles
 SCF Done:  E(RB3LYP) =  -576.438847984     A.U. after   11 cycles
 SCF Done:  E(RB3LYP) =  -576.438893325     A.U. after   10 cycles
 SCF Done:  E(RB3LYP) =  -576.438909555     A.U. after    9 cycles
 SCF Done:  E(RB3LYP) =  -576.438911682     A.U. after    8 cycles
 SCF Done:  E(RB3LYP) =  -576.438912778     A.U. after    8 cycles
 SCF Done:  E(RB3LYP) =  -576.438913293     A.U. after    8 cycles
 SCF Done:  E(RB3LYP) =  -576.438913497     A.U. after    8 cycles
 SCF Done:  E(RB3LYP) =  -576.438913598     A.U. after    7 cycles
 Optimization completed.
    -- Stationary point found.
 Normal termination of Gaussian 16 at Thu Dec 10 10:47:32 2020.

 --------------------------------------------------------------------
 #N Geom=AllCheck Guess=TCheck SCRF=Check GenChk RB3LYP/6-31G(d) Freq
 --------------------------------------------------------------------

 Structure from the checkpoint file:  "JID_4863.chk"
 ------------------------------
 CID_13358837_JID_4863_neutraal
 ------------------------------
 Charge =  0 Multiplicity = 1

 SCF Done:  E(RB3LYP) =  -576.438913598     A.U. after    1 cycles

  Exact polarizability: 185.123  -0.992 144.283   8.860  -0.200  87.711
 Approx polarizability: 273.349  -2.721 220.861  23.004   2.660 133.674

                      1                      2                      3
                      A                      A                      A
 Frequencies --     42.4901                76.7795               101.3850
 Red. masses --      3.9763                 2.8924                 2.8545
 Frc consts  --      0.0042                 0.0100                 0.0173
 IR Inten    --      0.0549                 0.0805                 1.9697

                      4                      5                      6
                      A                      A                      A
 Frequencies --    106.6565               158.6086               202.1798
 Red. masses --      2.8896                 2.4413                 1.6590
 Frc consts  --      0.0194                 0.0362                 0.0400
 IR Inten    --      0.4797                 4.7131                 3.2999

                      7                      8                      9
                      A                      A                      A
 Frequencies --    220.8974               238.5792               286.7881
 Red. masses --      1.4363                 1.6787                 2.5744
 Frc consts  --      0.0413                 0.0563                 0.1248
 IR Inten    --      2.8083                 1.6568                 0.6625

                     10                     11                     12
                      A                      A                      A
 Frequencies --    319.3660               342.2599               346.1221
 Red. masses --      2.6260                 2.4015                 2.3169
 Frc consts  --      0.1578                 0.1657                 0.1635
 IR Inten    --      1.4022                 1.8283                 1.2595

                     13                     14                     15
                      A                      A                      A
 Frequencies --    371.1740               404.9970               435.0320
 Red. masses --      2.4174                 3.1880                 4.1049
 Frc consts  --      0.1962                 0.3081                 0.4577
 IR Inten    --      0.3598                 6.1141                 1.2838

                     16                     17                     18
                      A                      A                      A
 Frequencies --    480.6162               516.7761               526.7878
 Red. masses --      3.1374                 3.0182                 4.5989
 Frc consts  --      0.4270                 0.4749                 0.7519
 IR Inten    --      0.5962                 1.4470                 0.7457

                     19                     20                     21
                      A                      A                      A
 Frequencies --    562.1345               578.6560               682.0207
 Red. masses --      4.7296                 4.5259                 2.9379
 Frc consts  --      0.8805                 0.8929                 0.8052
 IR Inten    --      1.5163                 0.9530                10.3281

                     22                     23                     24
                      A                      A                      A
 Frequencies --    721.8310               734.8783               747.8096
 Red. masses --      3.7723                 3.9171                 1.2671
 Frc consts  --      1.1580                 1.2464                 0.4175
 IR Inten    --      2.6020                 1.5731                61.7080

                     25                     26                     27
                      A                      A                      A
 Frequencies --    753.1569               806.6407               837.7712
 Red. masses --      2.8834                 4.1671                 1.5427
 Frc consts  --      0.9637                 1.5975                 0.6380
 IR Inten    --      2.8472                 6.9567                 0.2131

                     28                     29                     30
                      A                      A                      A
 Frequencies --    881.0008               888.4995               941.9892
 Red. masses --      2.0565                 1.3633                 1.2581
 Frc consts  --      0.9405                 0.6341                 0.6578
 IR Inten    --      4.0524                 4.5930                 0.5648

                     31                     32                     33
                      A                      A                      A
 Frequencies --    943.4981               949.4302               983.5332
 Red. masses --      1.3572                 2.0936                 1.9513
 Frc consts  --      0.7118                 1.1119                 1.1121
 IR Inten    --     31.6090                 8.4267                 1.4947

                     34                     35                     36
                      A                      A                      A
 Frequencies --   1036.2113              1065.8283              1079.0959
 Red. masses --      1.1199                 2.9090                 1.9716
 Frc consts  --      0.7085                 1.9470                 1.3527
 IR Inten    --      8.6843                 3.2625                 7.3787

                     37                     38                     39
                      A                      A                      A
 Frequencies --   1095.4819              1110.0036              1148.5577
 Red. masses --      2.0853                 2.6740                 1.6130
 Frc consts  --      1.4745                 1.9412                 1.2537
 IR Inten    --     18.2489                 6.9416                12.4484

                     40                     41                     42
                      A                      A                      A
 Frequencies --   1153.1439              1157.0144              1179.8969
 Red. masses --      1.3960                 1.3196                 1.7869
 Frc consts  --      1.0937                 1.0408                 1.4656
 IR Inten    --     23.4195                18.9562                 4.1866

                     43                     44                     45
                      A                      A                      A
 Frequencies --   1182.7608              1201.3965              1255.4244
 Red. masses --      1.8429                 1.0969                 1.9871
 Frc consts  --      1.5189                 0.9328                 1.8453
 IR Inten    --      4.9237                 0.0388                66.6234

                     46                     47                     48
                      A                      A                      A
 Frequencies --   1269.7333              1289.7255              1310.7030
 Red. masses --      2.2708                 1.7120                 1.9135
 Frc consts  --      2.1570                 1.6779                 1.9368
 IR Inten    --      0.5625                48.5765               124.5749

                     49                     50                     51
                      A                      A                      A
 Frequencies --   1312.0105              1335.2266              1364.5246
 Red. masses --      1.5656                 1.6766                 1.9291
 Frc consts  --      1.5878                 1.7612                 2.1162
 IR Inten    --     23.1816                37.7562                56.8716

                     52                     53                     54
                      A                      A                      A
 Frequencies --   1366.8524              1389.1030              1412.7375
 Red. masses --      1.7710                 3.2029                 1.9284
 Frc consts  --      1.9494                 3.6414                 2.2676
 IR Inten    --     15.7485                29.8571                45.1976

                     55                     56                     57
                      A                      A                      A
 Frequencies --   1424.6136              1479.5020              1486.4460
 Red. masses --      1.6783                 1.2115                 1.2950
 Frc consts  --      2.0068                 1.5624                 1.6859
 IR Inten    --     37.3999                10.0416                 4.1269

                     58                     59                     60
                      A                      A                      A
 Frequencies --   1491.6710              1505.7422              1514.7275
 Red. masses --      1.2115                 1.6090                 1.0755
 Frc consts  --      1.5883                 2.1493                 1.4538
 IR Inten    --      1.0683                 9.0331                 3.6053

                     61                     62                     63
                      A                      A                      A
 Frequencies --   1516.5678              1532.1458              1547.6080
 Red. masses --      1.1292                 1.1820                 1.0756
 Frc consts  --      1.5303                 1.6348                 1.5178
 IR Inten    --     10.6274                19.4783                42.1419

                     64                     65                     66
                      A                      A                      A
 Frequencies --   1549.0580              1567.5170              1639.6208
 Red. masses --      1.1167                 2.5302                 6.1533
 Frc consts  --      1.5788                 3.6629                 9.7465
 IR Inten    --     28.3121               179.0692                 6.2246

                     67                     68                     69
                      A                      A                      A
 Frequencies --   1658.4922              1727.1462              2973.4423
 Red. masses --      5.4210                 4.4755                 1.0685
 Frc consts  --      8.7853                 7.8659                 5.5662
 IR Inten    --     44.2297                 3.8385                44.4746

                     70                     71                     72
                      A                      A                      A
 Frequencies --   2981.9331              3003.2998              3047.1502
 Red. masses --      1.0612                 1.0514                 1.0854
 Frc consts  --      5.5596                 5.5876                 5.9379
 IR Inten    --    127.3653                64.3870                40.2344

                     73                     74                     75
                      A                      A                      A
 Frequencies --   3083.1702              3085.2871              3098.2135
 Red. masses --      1.0867                 1.0784                 1.0908
 Frc consts  --      6.0865                 6.0484                 6.1689
 IR Inten    --     37.2356                30.5443                31.8103

                     76                     77                     78
                      A                      A                      A
 Frequencies --   3133.6326              3137.2811              3149.9425
 Red. masses --      1.1011                 1.0993                 1.0598
 Frc consts  --      6.3706                 6.3751                 6.1954
 IR Inten    --     24.5275                20.8097                17.0258

                     79                     80                     81
                      A                      A                      A
 Frequencies --   3178.8895              3186.0821              3202.8174
 Red. masses --      1.0917                 1.0854                 1.0926
 Frc consts  --      6.4997                 6.4914                 6.6037
 IR Inten    --      2.7410                 1.8975                33.9172

                     82                     83                     84
                      A                      A                      A
 Frequencies --   3226.4008              3230.2268              3232.5788
 Red. masses --      1.0902                 1.0921                 1.1145
 Frc consts  --      6.6863                 6.7137                 6.8615
 IR Inten    --     32.8240                 5.2011                18.2889

 - Thermochemistry -
 -------------------
 Temperature   298.150 Kelvin.  Pressure   1.00000 Atm.
 Atom     1 has atomic number  6 and mass  12.00000

 Molecular mass:   188.13135 amu.
 Principal axes and moments of inertia in atomic units:
                           1         2         3
     Eigenvalues --  1774.855892846.317114058.85867
           X            0.99967   0.02569   0.00157
           Y           -0.02569   0.99967  -0.00034
           Z           -0.00158   0.00030   1.00000
 This molecule is an asymmetric top.
 Rotational symmetry number  1.
 Warning -- assumption of classical behavior for rotation
           may cause significant error
 Rotational temperatures (Kelvin)      0.04880     0.03043     0.02134
 Rotational constants (GHZ):           1.01684     0.63406     0.44464
 Zero-point vibrational energy     684844.0 (Joules/Mol)
                                  163.68165 (Kcal/Mol)
 Warning -- explicit consideration of  20 degrees of freedom as
           vibrations may cause significant error
 Vibrational temperatures:     61.13   110.47   145.87   153.45   228.20
          (Kelvin)            290.89   317.82   343.26   412.62   459.50
                              492.44   497.99   534.04   582.70   625.91
                              691.50   743.53   757.93   808.79   832.56
                              981.28  1038.55  1057.33  1075.93  1083.62
                             1160.58  1205.37  1267.56  1278.35  1355.31
                             1357.48  1366.02  1415.08  1490.88  1533.49
                             1552.58  1576.15  1597.05  1652.52  1659.12
                             1664.69  1697.61  1701.73  1728.54  1806.28
                             1826.86  1855.63  1885.81  1887.69  1921.09
                             1963.25  1966.60  1998.61  2032.61  2049.70
                             2128.67  2138.66  2146.18  2166.43  2179.35
                             2182.00  2204.42  2226.66  2228.75  2255.31
                             2359.05  2386.20  2484.98  4278.12  4290.34
                             4321.08  4384.17  4435.99  4439.04  4457.64
                             4508.60  4513.85  4532.06  4573.71  4584.06
                             4608.14  4642.07  4647.58  4650.96

 Zero-point correction=                           0.260843 (Hartree/Particle)
 Thermal correction to Energy=                    0.273834
 Thermal correction to Enthalpy=                  0.274778
 Thermal correction to Gibbs Free Energy=         0.221654
 Sum of electronic and zero-point Energies=           -576.178070
 Sum of electronic and thermal Energies=              -576.165080
 Sum of electronic and thermal Enthalpies=            -576.164136
 Sum of electronic and thermal Free Energies=         -576.217260

                     E (Thermal)             CV                S
                      KCal/Mol        Cal/Mol-Kelvin    Cal/Mol-Kelvin
 Total                  171.833             50.914            111.810
 Electronic               0.000              0.000              0.000
 Translational            0.889              2.981             41.602
 Rotational               0.889              2.981             31.395
 Vibrational            170.056             44.952             38.813
 Vibration     1          0.595              1.980              5.139
 Vibration     2          0.599              1.965              3.972
 Vibration     3          0.604              1.948              3.428
 Vibration     4          0.606              1.944              3.329
 Vibration     5          0.621              1.893              2.566
 Vibration     6          0.639              1.837              2.113
 Vibration     7          0.648              1.809              1.952
 Vibration     8          0.657              1.782              1.813
 Vibration     9          0.684              1.698              1.493
 Vibration    10          0.705              1.637              1.313
 Vibration    11          0.721              1.591              1.202
 Vibration    12          0.724              1.583              1.184
 Vibration    13          0.743              1.531              1.075
 Vibration    14          0.770              1.459              0.944
 Vibration    15          0.796              1.394              0.842
 Vibration    16          0.837              1.293              0.708
 Vibration    17          0.872              1.213              0.617
 Vibration    18          0.882              1.191              0.594
 Vibration    19          0.918              1.113              0.520
 Vibration    20          0.935              1.077              0.488

 Optimization completed.
    -- Stationary point found.
 Normal termination of Gaussian 16 at Thu Dec 10 10:57:25 2020.

 ----------------------------------------------------------------------
 # B3LYP/6-311++G(d,p) empiricaldispersion=gd3bj scf=xqc pop=npa geom=c
 heck
 ----------------------------------------------------------------------

 --------------------------------------
 CID_13358837_JID_4863_Energie_neutraal
 --------------------------------------
 Structure from the checkpoint file:  "JID_4863.chk"
 Charge =  0 Multiplicity = 1

 SCF Done:  E(RB3LYP) =  -576.591289449     A.U. after   15 cycles
 Normal termination of Gaussian 16 at Thu Dec 10 11:01:51 2020.

 ----------------------------------------------------------------------
 # B3LYP/6-311++G(d,p) empiricaldispersion=gd3bj scf=xqc pop=npa geom=c
 heck
 ----------------------------------------------------------------------

 ------------------------------------
 CID_13358837_JID_4863_Energie_kation
 ------------------------------------
 Structure from the checkpoint file:  "JID_4863.chk"
 Charge =  1 Multiplicity = 2

 SCF Done:  E(UB3LYP) =  -576.352600022     A.U. after   20 cycles
 Normal termination of Gaussian 16 at Thu Dec 10 11:10:56 2020.
 Gaussian 16:  ES64L-G16RevA.03 25-Dec-2016

 ----------------------------------------------------------------------
 # B3LYP/6-311++G(d,p) empiricaldispersion=gd3bj scf=xqc pop=npa geom=c
 heck
 ----------------------------------------------------------------------

 -----------------------------------
 CID_13358837_JID_4863_Energie_anion
 -----------------------------------
 Structure from the checkpoint file:  "JID_4863.chk"
 Charge = -1 Multiplicity = 2

                         Standard orientation:
 ---------------------------------------------------------------------
 Center     Atomic      Atomic             Coordinates (Angstroms)
 Number     Number       Type             X           Y           Z
 ---------------------------------------------------------------------
      1          6           0        0.543547    2.995715   -0.119321
      2          7           0        0.056179    1.632527   -0.116492
      3          6           0       -1.116268    1.369686   -0.929002
      4          6           0       -1.760268    0.051898   -0.490031
      5          7           0       -0.769655   -1.009862   -0.655565
      6          6           0        0.540791   -0.760404   -0.224021
      7          6           0        1.452382   -1.803606   -0.017341
      8          6           0        2.779961   -1.556650    0.340444
      9          6           0        3.217354   -0.249874    0.506725
     10          6           0        2.320769    0.806170    0.323987
     11          6           0        0.982225    0.581347   -0.015607
     12          6           0       -1.278368   -2.365945   -0.610418
     13          6           0       -2.306372    0.118417    0.915549
     14          6           0       -3.563599   -0.180708    1.240392
     15          1           0        1.088128    3.209569    0.806075
     16          1           0       -0.313303    3.672927   -0.166332
     17          1           0        1.211352    3.217807   -0.969556
     18          1           0       -0.879118    1.310079   -2.005258
     19          1           0       -1.832028    2.184278   -0.782541
     20          1           0       -2.585564   -0.164160   -1.180217
     21          1           0        1.125820   -2.828878   -0.141183
     22          1           0        3.457634   -2.392654    0.486744
     23          1           0        4.247641   -0.037165    0.776072
     24          1           0        2.673751    1.821879    0.455666
     25          1           0       -0.689251   -3.018116   -1.264099
     26          1           0       -1.276800   -2.796249    0.403466
     27          1           0       -2.307577   -2.363891   -0.977409
     28          1           0       -1.588365    0.405468    1.681663
     29          1           0       -3.918091   -0.143051    2.266841
     30          1           0       -4.292821   -0.472778    0.486329
 ---------------------------------------------------------------------

 SCF Done:  E(UB3LYP) =  -576.575827278     A.U. after   32 cycles

 The electronic state is 2-A.
 Alpha  occ. eigenvalues --  -14.22891 -14.22781 -10.11354 -10.11012 -10.10834
 Alpha  occ. eigenvalues --  -10.10261 -10.09584 -10.09520 -10.07613 -10.06968
 Alpha  occ. eigenvalues --  -10.06524 -10.06508 -10.06443 -10.06371  -0.87339
 Alpha  occ. eigenvalues --   -0.82917  -0.74529  -0.69607  -0.64971  -0.64801
 Alpha  occ. eigenvalues --   -0.63948  -0.59005  -0.55566  -0.54886  -0.48933
 Alpha  occ. eigenvalues --   -0.48685  -0.44524  -0.43217  -0.40949  -0.38874
 Alpha  occ. eigenvalues --   -0.37220  -0.36084  -0.35689  -0.35214  -0.34117
 Alpha  occ. eigenvalues --   -0.33704  -0.31795  -0.31309  -0.29839  -0.29117
 Alpha  occ. eigenvalues --   -0.28500  -0.27542  -0.27077  -0.25658  -0.25055
 Alpha  occ. eigenvalues --   -0.23797  -0.19459  -0.18171  -0.17330  -0.12079
 Alpha  occ. eigenvalues --   -0.08106   0.04495
 Alpha virt. eigenvalues --    0.06355   0.06959   0.07808   0.08225   0.08536
 Alpha virt. eigenvalues --    0.08988   0.09496   0.09663   0.10137   0.10605
 Alpha virt. eigenvalues --    0.10830   0.11021   0.11376   0.12254   0.12629

  Beta  occ. eigenvalues --  -14.22889 -14.22781 -10.11338 -10.11004 -10.10828
  Beta  occ. eigenvalues --  -10.10232 -10.09543 -10.09489 -10.07608 -10.06933
  Beta  occ. eigenvalues --  -10.06516 -10.06503 -10.06436 -10.06366  -0.87325
  Beta  occ. eigenvalues --   -0.82902  -0.74512  -0.69579  -0.64937  -0.64770
  Beta  occ. eigenvalues --   -0.63922  -0.58944  -0.55529  -0.54842  -0.48886
  Beta  occ. eigenvalues --   -0.48636  -0.44482  -0.43189  -0.40913  -0.38839
  Beta  occ. eigenvalues --   -0.37191  -0.36040  -0.35661  -0.35185  -0.34090
  Beta  occ. eigenvalues --   -0.33671  -0.31766  -0.31266  -0.29801  -0.29073
  Beta  occ. eigenvalues --   -0.28471  -0.27515  -0.27037  -0.25624  -0.25036
  Beta  occ. eigenvalues --   -0.23765  -0.19432  -0.18147  -0.17269  -0.12064
  Beta  occ. eigenvalues --   -0.08086
  Beta virt. eigenvalues --    0.06611   0.07369   0.07483   0.08234   0.08665
  Beta virt. eigenvalues --    0.09028   0.09335   0.09735   0.10040   0.10520
  Beta virt. eigenvalues --    0.11003   0.11120   0.11331   0.11839   0.12561

 Mulliken charges and spin densities:
               1          2
     1  C    0.947748  -1.263816
     2  N   -0.001957   0.200013
     3  C    1.548175  -2.041713
     4  C   -0.540143   0.538788
     5  N    0.133064   0.082775
     6  C    0.328497  -0.226656
     7  C   -0.552017   0.321659
     8  C    0.029565  -0.464112
     9  C    0.037003  -0.463363
    10  C   -0.516538   0.268310
    11  C   -0.221753   0.257581
    12  C    0.627945  -0.927252
    13  C   -1.215742   1.238272
    14  C    1.103173  -1.696028
    15  H   -0.216458   0.353089
    16  H   -0.681609   0.818415
    17  H   -0.153161   0.311567
    18  H   -0.133065   0.299430
    19  H    0.118728   0.078131
    20  H   -0.617465   0.858972
    21  H    0.045654   0.090742
    22  H    0.038508   0.098953
    23  H   -0.048004   0.182911
    24  H   -0.015380   0.145072
    25  H   -0.228439   0.366070
    26  H   -0.029467   0.182074
    27  H   -0.445524   0.606646
    28  H    0.033127   0.162623
    29  H   -0.155109   0.273431
    30  H   -0.219355   0.347416
 Sum of Mulliken charges =  -1.00000   1.00000

 Dipole moment (field-independent basis, Debye):
    X=              3.7585    Y=             -1.8739    Z=              1.9140  Tot=              4.6153
 Quadrupole moment (field-independent basis, Debye-Ang):
   XX=           -144.6452   YY=           -143.6736   ZZ=           -120.3149
   XY=             -5.6115   XZ=             -4.3687   YZ=             -0.4806

 Summary of Natural Population Analysis:

                                       Natural Population
                Natural  -----------------------------------------------
    Atom  No    Charge         Core      Valence    Rydberg      Total
 -----------------------------------------------------------------------
      C    1   -0.17516      0.99964     2.16650    0.00903     3.17516
      N    2   -0.25743      0.99966     2.74607    0.01170     3.75743
      C    3   -0.07640      0.99959     2.06487    0.01194     3.07640
      C    4   -0.02122      0.99955     2.00480    0.01688     3.02122
      N    5   -0.25095      0.99965     2.73906    0.01224     3.75095
      C    6    0.08136      0.99946     1.90779    0.01139     2.91864
      C    7   -0.12801      0.99954     2.12036    0.00811     3.12801
      C    8   -0.11408      0.99957     2.10437    0.01015     3.11408
      C    9   -0.11658      0.99957     2.10702    0.00999     3.11658
      C   10   -0.12678      0.99954     2.11778    0.00946     3.12678
      C   11    0.07913      0.99946     1.91072    0.01069     2.92087
      C   12   -0.17730      0.99964     2.16814    0.00952     3.17730
      C   13   -0.09096      0.99953     2.08053    0.01090     3.09096
      C   14   -0.18376      0.99956     2.17692    0.00728     3.18376
      H   15    0.09669      0.00000     0.40174    0.00157     0.40331
      H   16    0.10190      0.00000     0.39641    0.00169     0.39810
      H   17    0.08816      0.00000     0.41013    0.00171     0.41184
      H   18    0.09216      0.00000     0.40608    0.00176     0.40784
      H   19    0.10313      0.00000     0.39520    0.00167     0.39687
      H   20    0.10285      0.00000     0.39438    0.00277     0.39715
      H   21    0.10272      0.00000     0.39617    0.00111     0.39728
      H   22    0.09662      0.00000     0.40260    0.00079     0.40338
      H   23    0.09690      0.00000     0.40231    0.00079     0.40310
      H   24    0.10329      0.00000     0.39556    0.00115     0.39671
      H   25    0.09577      0.00000     0.40282    0.00142     0.40423
      H   26    0.09017      0.00000     0.40835    0.00148     0.40983
      H   27    0.10330      0.00000     0.39498    0.00172     0.39670
      H   28    0.09936      0.00000     0.39902    0.00162     0.40064
      H   29    0.09301      0.00000     0.40610    0.00089     0.40699
      H   30    0.09212      0.00000     0.40620    0.00168     0.40788
 =======================================================================
   * Total *   -0.00000     13.99396    36.83294    0.17310    51.00000

 Normal termination of Gaussian 16 at Thu Dec 10 11:23:38 2020.
