 Gaussian 16, Revision A.03,

 -----------------------------------------------------------
 # opt freq B3LYP/6-31G(d) empiricaldispersion=gd3bj scf=xqc
 -----------------------------------------------------------

 -----------------------------
 CID_69782589_JID_308_neutraal
 -----------------------------
 Symbolic Z-matrix:
 Charge =  0 Multiplicity = 1

 SCF Done:  E(RB3LYP) =  -768.067470735     A.U. after   13 cycles
 SCF Done:  E(RB3LYP) =  -768.071498915     A.U. after   11 cycles
 SCF Done:  E(RB3LYP) =  -768.072020753     A.U. after   10 cycles
 SCF Done:  E(RB3LYP) =  -768.072196635     A.U. after   10 cycles
 SCF Done:  E(RB3LYP) =  -768.072318069     A.U. after   10 cycles
 SCF Done:  E(RB3LYP) =  -768.072347144     A.U. after    9 cycles
 SCF Done:  E(RB3LYP) =  -768.072371722     A.U. after   10 cycles
 SCF Done:  E(RB3LYP) =  -768.072379281     A.U. after    9 cycles
 SCF Done:  E(RB3LYP) =  -768.072386451     A.U. after    9 cycles
 SCF Done:  E(RB3LYP) =  -768.072396159     A.U. after    9 cycles
 SCF Done:  E(RB3LYP) =  -768.076119970     A.U. after    9 cycles
 SCF Done:  E(RB3LYP) =  -768.076123001     A.U. after    9 cycles
 SCF Done:  E(RB3LYP) =  -768.076124586     A.U. after    8 cycles
 SCF Done:  E(RB3LYP) =  -768.076124847     A.U. after    8 cycles
 SCF Done:  E(RB3LYP) =  -768.076124871     A.U. after    6 cycles
 Optimization completed.
    -- Stationary point found.
 Normal termination of Gaussian 16 at Tue Dec  8 11:01:26 2020.

 --------------------------------------------------------------------
 #N Geom=AllCheck Guess=TCheck SCRF=Check GenChk RB3LYP/6-31G(d) Freq
 --------------------------------------------------------------------

 Structure from the checkpoint file:  "JID_308.chk"
 -----------------------------
 CID_69782589_JID_308_neutraal
 -----------------------------
 Charge =  0 Multiplicity = 1

 SCF Done:  E(RB3LYP) =  -768.076124871     A.U. after    1 cycles

  Exact polarizability: 128.938  -0.313 100.520  -2.919   1.038  88.245
 Approx polarizability: 157.944   1.756 152.151  -4.725   1.743 136.081

                      1                      2                      3
                      A                      A                      A
 Frequencies --     27.5519                51.5596                72.0147
 Red. masses --      3.4457                 3.9143                 3.4020
 Frc consts  --      0.0015                 0.0061                 0.0104
 IR Inten    --      0.1387                 0.6067                 1.1609

                      4                      5                      6
                      A                      A                      A
 Frequencies --    114.2247               152.4847               193.6476
 Red. masses --      2.8196                 1.7669                 2.2764
 Frc consts  --      0.0217                 0.0242                 0.0503
 IR Inten    --      0.1812                 1.2016                 2.0323

                      7                      8                      9
                      A                      A                      A
 Frequencies --    230.5234               267.8869               284.4721
 Red. masses --      1.9439                 1.9988                 1.6036
 Frc consts  --      0.0609                 0.0845                 0.0765
 IR Inten    --      0.2916                 4.2765                 0.7996

                     10                     11                     12
                      A                      A                      A
 Frequencies --    310.9944               356.1494               463.2483
 Red. masses --      2.6097                 2.0348                 3.6001
 Frc consts  --      0.1487                 0.1521                 0.4552
 IR Inten    --      0.1405                 0.0509                 4.2470

                     13                     14                     15
                      A                      A                      A
 Frequencies --    492.6561               525.9837               605.4030
 Red. masses --      3.0902                 2.7128                 3.4921
 Frc consts  --      0.4419                 0.4422                 0.7541
 IR Inten    --      4.3487                 8.6047                 9.8040

                     16                     17                     18
                      A                      A                      A
 Frequencies --    671.4044               733.2986               758.1138
 Red. masses --      3.5904                 1.2141                 4.4634
 Frc consts  --      0.9536                 0.3846                 1.5114
 IR Inten    --     13.7979                 5.9192                 1.7469

                     19                     20                     21
                      A                      A                      A
 Frequencies --    790.5192               826.3177               839.0787
 Red. masses --      1.3773                 2.8952                 2.4655
 Frc consts  --      0.5071                 1.1647                 1.0227
 IR Inten    --      9.2084                16.2912                27.1646

                     22                     23                     24
                      A                      A                      A
 Frequencies --    867.7122               877.2458               928.9663
 Red. masses --      1.4098                 1.4772                 1.6380
 Frc consts  --      0.6254                 0.6698                 0.8328
 IR Inten    --     69.9243                21.1985                 6.0716

                     25                     26                     27
                      A                      A                      A
 Frequencies --    936.6762               974.5726               998.8573
 Red. masses --      1.8426                 1.5700                 2.0775
 Frc consts  --      0.9525                 0.8786                 1.2212
 IR Inten    --     16.8482                 4.3561                 4.3211

                     28                     29                     30
                      A                      A                      A
 Frequencies --   1033.3961              1055.5968              1092.3757
 Red. masses --      1.5181                 1.4012                 1.6196
 Frc consts  --      0.9552                 0.9199                 1.1387
 IR Inten    --     11.8943                 5.2115                 1.4890

                     31                     32                     33
                      A                      A                      A
 Frequencies --   1110.3841              1119.5257              1143.5494
 Red. masses --      1.9971                 1.9170                 1.5775
 Frc consts  --      1.4508                 1.4156                 1.2154
 IR Inten    --      0.9864                 5.4625                 0.1666

                     34                     35                     36
                      A                      A                      A
 Frequencies --   1156.7634              1166.3730              1228.1616
 Red. masses --      2.4629                 1.8018                 1.4079
 Frc consts  --      1.9417                 1.4442                 1.2512
 IR Inten    --     12.6085                19.2797                 4.9050

                     37                     38                     39
                      A                      A                      A
 Frequencies --   1245.8886              1266.0477              1283.5643
 Red. masses --      1.2658                 1.3823                 1.3779
 Frc consts  --      1.1577                 1.3054                 1.3376
 IR Inten    --     12.3651                 8.7705                 0.4776

                     40                     41                     42
                      A                      A                      A
 Frequencies --   1305.3242              1327.5215              1345.2770
 Red. masses --      1.2426                 1.2060                 1.2825
 Frc consts  --      1.2475                 1.2522                 1.3675
 IR Inten    --     15.1137                 1.7556                 0.5304

                     43                     44                     45
                      A                      A                      A
 Frequencies --   1362.2194              1382.3593              1391.4055
 Red. masses --      1.1929                 1.4198                 1.2344
 Frc consts  --      1.3042                 1.5985                 1.4080
 IR Inten    --      3.0757                 8.3709                11.6227

                     46                     47                     48
                      A                      A                      A
 Frequencies --   1400.3399              1409.1779              1434.2374
 Red. masses --      1.3380                 1.4135                 1.4655
 Frc consts  --      1.5459                 1.6538                 1.7761
 IR Inten    --      1.9119                 4.3440                 2.4418

                     49                     50                     51
                      A                      A                      A
 Frequencies --   1444.7292              1506.3199              1510.6367
 Red. masses --      1.2645                 1.1022                 1.1261
 Frc consts  --      1.5551                 1.4735                 1.5141
 IR Inten    --      5.9176                 3.1848                12.0570

                     52                     53                     54
                      A                      A                      A
 Frequencies --   1517.0639              1524.2697              1526.0954
 Red. masses --      1.0856                 1.0635                 1.0994
 Frc consts  --      1.4720                 1.4558                 1.5086
 IR Inten    --      1.6962                 1.0527                19.5202

                     55                     56                     57
                      A                      A                      A
 Frequencies --   1528.1398              1529.6444              1535.4248
 Red. masses --      1.0871                 1.0972                 1.0683
 Frc consts  --      1.4957                 1.5126                 1.4839
 IR Inten    --      4.8210                 4.3818                 5.2602

                     58                     59                     60
                      A                      A                      A
 Frequencies --   1545.5152              3024.9766              3033.6965
 Red. masses --      1.0700                 1.0609                 1.0652
 Frc consts  --      1.5058                 5.7195                 5.7760
 IR Inten    --      1.6645                25.4549                 9.4449

                     61                     62                     63
                      A                      A                      A
 Frequencies --   3039.5273              3042.8595              3045.9036
 Red. masses --      1.0708                 1.0551                 1.0450
 Frc consts  --      5.8287                 5.7558                 5.7122
 IR Inten    --     26.7986                14.8626                 8.2981

                     64                     65                     66
                      A                      A                      A
 Frequencies --   3047.7966              3058.9167              3068.3667
 Red. masses --      1.0772                 1.0984                 1.0986
 Frc consts  --      5.8954                 6.0556                 6.0938
 IR Inten    --     47.9230                29.5308                12.4818

                     67                     68                     69
                      A                      A                      A
 Frequencies --   3077.1086              3081.6835              3094.5603
 Red. masses --      1.0944                 1.0641                 1.0595
 Frc consts  --      6.1053                 5.9540                 5.9782
 IR Inten    --     55.1723                33.5030                41.7672

                     70                     71                     72
                      A                      A                      A
 Frequencies --   3096.4051              3110.1626              3116.9000
 Red. masses --      1.0997                 1.1015                 1.1020
 Frc consts  --      6.2121                 6.2776                 6.3079
 IR Inten    --     55.2843                53.4154                50.3434

                     73                     74                     75
                      A                      A                      A
 Frequencies --   3131.4643              3159.3718              3489.1031
 Red. masses --      1.1086                 1.1097                 1.0733
 Frc consts  --      6.4049                 6.5263                 7.6986
 IR Inten    --     18.1068                11.5472                 0.2649

 - Thermochemistry -
 -------------------
 Temperature   298.150 Kelvin.  Pressure   1.00000 Atm.
 Atom     1 has atomic number  6 and mass  12.00000

 Molecular mass:   159.10817 amu.
 Principal axes and moments of inertia in atomic units:
                           1         2         3
     Eigenvalues --   640.330434022.448694329.02746
           X            0.99999  -0.00102   0.00454
           Y            0.00094   0.99987   0.01626
           Z           -0.00456  -0.01625   0.99986
 This molecule is an asymmetric top.
 Rotational symmetry number  1.
 Warning -- assumption of classical behavior for rotation
           may cause significant error
 Rotational temperatures (Kelvin)      0.13526     0.02153     0.02001
 Rotational constants (GHZ):           2.81845     0.44867     0.41689
 Zero-point vibrational energy     648960.3 (Joules/Mol)
                                  155.10524 (Kcal/Mol)
 Warning -- explicit consideration of  15 degrees of freedom as
           vibrations may cause significant error
 Vibrational temperatures:     39.64    74.18   103.61   164.34   219.39
          (Kelvin)            278.62   331.67   385.43   409.29   447.45
                              512.42   666.51   708.82   756.77   871.04
                              966.00  1055.05  1090.76  1137.38  1188.89
                             1207.25  1248.44  1262.16  1336.58  1347.67
                             1402.19  1437.13  1486.83  1518.77  1571.69
                             1597.59  1610.75  1645.31  1664.32  1678.15
                             1767.05  1792.56  1821.56  1846.76  1878.07
                             1910.01  1935.55  1959.93  1988.91  2001.92
                             2014.78  2027.49  2063.55  2078.64  2167.26
                             2173.47  2182.72  2193.08  2195.71  2198.65
                             2200.82  2209.13  2223.65  4352.27  4364.81
                             4373.20  4378.00  4382.38  4385.10  4401.10
                             4414.70  4427.27  4433.86  4452.38  4455.04
                             4474.83  4484.52  4505.48  4545.63  5020.04

 Zero-point correction=                           0.247176 (Hartree/Particle)
 Thermal correction to Energy=                    0.258652
 Thermal correction to Enthalpy=                  0.259596
 Thermal correction to Gibbs Free Energy=         0.208361
 Sum of electronic and zero-point Energies=           -767.828949
 Sum of electronic and thermal Energies=              -767.817473
 Sum of electronic and thermal Enthalpies=            -767.816529
 Sum of electronic and thermal Free Energies=         -767.867764

                     E (Thermal)             CV                S
                      KCal/Mol        Cal/Mol-Kelvin    Cal/Mol-Kelvin
 Total                  162.306             42.485            107.833
 Electronic               0.000              0.000              0.000
 Translational            0.889              2.981             41.102
 Rotational               0.889              2.981             30.790
 Vibrational            160.529             36.523             35.941
 Vibration     1          0.593              1.984              5.998
 Vibration     2          0.596              1.977              4.757
 Vibration     3          0.598              1.967              4.098
 Vibration     4          0.607              1.938              3.196
 Vibration     5          0.619              1.900              2.641
 Vibration     6          0.635              1.849              2.193
 Vibration     7          0.652              1.794              1.875
 Vibration     8          0.673              1.732              1.610
 Vibration     9          0.683              1.702              1.507
 Vibration    10          0.700              1.653              1.357
 Vibration    11          0.732              1.563              1.139
 Vibration    12          0.821              1.332              0.757
 Vibration    13          0.848              1.266              0.677
 Vibration    14          0.881              1.192              0.596
 Vibration    15          0.964              1.020              0.440

 Optimization completed.
    -- Stationary point found.
 Normal termination of Gaussian 16 at Tue Dec  8 11:07:17 2020.

 ----------------------------------------------------------------------
 # B3LYP/6-311++G(d,p) empiricaldispersion=gd3bj scf=xqc pop=npa geom=c
 heck
 ----------------------------------------------------------------------

 -------------------------------------
 CID_69782589_JID_308_Energie_neutraal
 -------------------------------------
 Structure from the checkpoint file:  "JID_308.chk"
 Charge =  0 Multiplicity = 1

 SCF Done:  E(RB3LYP) =  -768.209215733     A.U. after   13 cycles
 Normal termination of Gaussian 16 at Tue Dec  8 11:09:42 2020.

 ----------------------------------------------------------------------
 # B3LYP/6-311++G(d,p) empiricaldispersion=gd3bj scf=xqc pop=npa geom=c
 heck
 ----------------------------------------------------------------------

 -----------------------------------
 CID_69782589_JID_308_Energie_kation
 -----------------------------------
 Structure from the checkpoint file:  "JID_308.chk"
 Charge =  1 Multiplicity = 2

 SCF Done:  E(UB3LYP) =  -767.904707263     A.U. after   20 cycles
 Normal termination of Gaussian 16 at Tue Dec  8 11:15:18 2020.
 Gaussian 16:  ES64L-G16RevA.03 25-Dec-2016

 ----------------------------------------------------------------------
 # B3LYP/6-311++G(d,p) empiricaldispersion=gd3bj scf=xqc pop=npa geom=c
 heck
 ----------------------------------------------------------------------

 ----------------------------------
 CID_69782589_JID_308_Energie_anion
 ----------------------------------
 Structure from the checkpoint file:  "JID_308.chk"
 Charge = -1 Multiplicity = 2

                         Standard orientation:
 ---------------------------------------------------------------------
 Center     Atomic      Atomic             Coordinates (Angstroms)
 Number     Number       Type             X           Y           Z
 ---------------------------------------------------------------------
      1          6           0        3.843981    1.256214    0.159617
      2          6           0        3.717299   -0.194892   -0.313670
      3          6           0        2.746586   -1.040995    0.525107
      4          6           0        1.306521   -0.508532    0.593945
      5          6           0        0.637496   -0.387408   -0.781349
      6          6           0       -0.852111   -0.023144   -0.759495
      7          6           0       -1.774770   -1.148055   -0.213165
      8         16           0       -3.328360   -0.322033    0.324107
      9          6           0       -2.542242    1.381093    0.052771
     10          7           0       -1.115685    1.206364   -0.006121
     11          1           0        2.902060    1.804542    0.045751
     12          1           0        4.607339    1.792756   -0.414405
     13          1           0        4.128385    1.302070    1.218302
     14          1           0        3.409391   -0.209743   -1.367186
     15          1           0        4.704945   -0.673007   -0.283233
     16          1           0        2.727624   -2.063862    0.123897
     17          1           0        3.138553   -1.118947    1.548583
     18          1           0        0.723297   -1.177942    1.239325
     19          1           0        1.310035    0.471128    1.088568
     20          1           0        1.158408    0.373463   -1.373067
     21          1           0        0.748937   -1.336086   -1.323995
     22          1           0       -1.169829    0.176325   -1.791256
     23          1           0       -1.990983   -1.889043   -0.987373
     24          1           0       -1.322407   -1.661208    0.640185
     25          1           0       -2.833682    2.049035    0.864709
     26          1           0       -2.914753    1.774568   -0.896050
     27          1           0       -0.760315    1.088238    0.941807
 ---------------------------------------------------------------------

 SCF Done:  E(UB3LYP) =  -768.193017044     A.U. after   33 cycles
 SCF Done:  E(UB3LYP) =  -768.193017044     a.u. after    1 cycles

 The electronic state is 2-A.
 Alpha  occ. eigenvalues --  -88.73265 -14.21739 -10.12725 -10.11022 -10.09532
 Alpha  occ. eigenvalues --  -10.06737 -10.06344 -10.05906 -10.05831 -10.05140
 Alpha  occ. eigenvalues --   -7.81889  -5.78263  -5.77947  -5.77259  -0.84120
 Alpha  occ. eigenvalues --   -0.70793  -0.67536  -0.66259  -0.62088  -0.57158
 Alpha  occ. eigenvalues --   -0.53462  -0.50259  -0.48795  -0.44959  -0.40546
 Alpha  occ. eigenvalues --   -0.37688  -0.36339  -0.35513  -0.34669  -0.32159
 Alpha  occ. eigenvalues --   -0.31237  -0.30100  -0.29207  -0.27873  -0.27011
 Alpha  occ. eigenvalues --   -0.26517  -0.25099  -0.24165  -0.22355  -0.21919
 Alpha  occ. eigenvalues --   -0.21321  -0.20744  -0.15273  -0.12444   0.04684
 Alpha virt. eigenvalues --    0.06752   0.07033   0.07589   0.08629   0.09158
 Alpha virt. eigenvalues --    0.09831   0.10425   0.10499   0.11277   0.11577
 Alpha virt. eigenvalues --    0.12148   0.12676   0.12768   0.13348   0.14770

  Beta  occ. eigenvalues --  -88.73262 -14.21724 -10.12708 -10.11009 -10.09504
  Beta  occ. eigenvalues --  -10.06714 -10.06323 -10.05882 -10.05810 -10.05105
  Beta  occ. eigenvalues --   -7.81886  -5.78262  -5.77939  -5.77258  -0.84096
  Beta  occ. eigenvalues --   -0.70752  -0.67494  -0.66217  -0.62041  -0.57093
  Beta  occ. eigenvalues --   -0.53392  -0.50214  -0.48735  -0.44874  -0.40495
  Beta  occ. eigenvalues --   -0.37647  -0.36293  -0.35468  -0.34630  -0.32123
  Beta  occ. eigenvalues --   -0.31200  -0.30059  -0.29155  -0.27828  -0.26965
  Beta  occ. eigenvalues --   -0.26483  -0.25059  -0.24122  -0.22313  -0.21875
  Beta  occ. eigenvalues --   -0.21274  -0.20700  -0.15254  -0.12424
  Beta virt. eigenvalues --    0.06881   0.07386   0.07894   0.08244   0.09100
  Beta virt. eigenvalues --    0.09713   0.10067   0.10987   0.11084   0.11606
  Beta virt. eigenvalues --    0.11826   0.12472   0.12966   0.13081   0.13685

 Mulliken charges and spin densities:
               1          2
     1  C    1.527790  -2.160832
     2  C   -1.023880   0.850876
     3  C    1.339880  -1.674058
     4  C   -0.453551   0.358667
     5  C   -0.691796   0.079825
     6  C    0.768316  -0.879294
     7  C    0.320141  -0.721455
     8  S   -0.007941  -0.108865
     9  C    0.093630  -0.414143
    10  N    0.091571  -0.057111
    11  H   -0.098286   0.254688
    12  H   -0.295747   0.428129
    13  H   -0.164101   0.299464
    14  H   -0.249643   0.389751
    15  H   -0.473146   0.640603
    16  H   -0.096667   0.226369
    17  H   -0.555481   0.713873
    18  H   -0.017844   0.184084
    19  H   -0.187661   0.311958
    20  H    0.241233  -0.045612
    21  H   -0.278218   0.440480
    22  H   -0.542992   0.758476
    23  H   -0.120468   0.295576
    24  H   -0.087742   0.246951
    25  H   -0.162578   0.356734
    26  H    0.079155   0.084826
    27  H    0.046025   0.140042
 Sum of Mulliken charges =  -1.00000   1.00000

 Dipole moment (field-independent basis, Debye):
    X=             -5.4256    Y=              0.7815    Z=              0.2484  Tot=              5.4873
 Quadrupole moment (field-independent basis, Debye-Ang):
   XX=           -157.3083   YY=           -109.3304   ZZ=           -107.2317
   XY=             -3.0228   XZ=             -3.2525   YZ=             -0.7974

 Summary of Natural Population Analysis:

                                       Natural Population
                Natural  -----------------------------------------------
    Atom  No    Charge         Core      Valence    Rydberg      Total
 -----------------------------------------------------------------------
      C    1   -0.28637      0.99967     2.28194    0.00477     3.28637
      C    2   -0.19138      0.99964     2.18371    0.00803     3.19138
      C    3   -0.18424      0.99963     2.17520    0.00941     3.18424
      C    4   -0.19569      0.99962     2.18719    0.00888     3.19569
      C    5   -0.19312      0.99960     2.18353    0.00999     3.19312
      C    6   -0.01293      0.99959     1.99904    0.01430     3.01293
      C    7   -0.25109      0.99958     2.24134    0.01016     3.25109
      S    8    0.03624      4.99969     2.94758    0.01649     7.96376
      C    9   -0.13163      0.99963     2.12041    0.01159     3.13163
      N   10   -0.32563      0.99973     2.81307    0.01283     3.82563
      H   11    0.09621      0.00000     0.40227    0.00152     0.40379
      H   12    0.09890      0.00000     0.39973    0.00137     0.40110
      H   13    0.09560      0.00000     0.40287    0.00152     0.40440
      H   14    0.09278      0.00000     0.40582    0.00140     0.40722
      H   15    0.09683      0.00000     0.40153    0.00164     0.40317
      H   16    0.09607      0.00000     0.40242    0.00151     0.40393
      H   17    0.09568      0.00000     0.40290    0.00142     0.40432
      H   18    0.09674      0.00000     0.40153    0.00173     0.40326
      H   19    0.09406      0.00000     0.40414    0.00180     0.40594
      H   20    0.10347      0.00000     0.39478    0.00175     0.39653
      H   21    0.10140      0.00000     0.39702    0.00159     0.39860
      H   22    0.09553      0.00000     0.40290    0.00157     0.40447
      H   23    0.10651      0.00000     0.39142    0.00206     0.39349
      H   24    0.09977      0.00000     0.39795    0.00228     0.40023
      H   25    0.09892      0.00000     0.39954    0.00153     0.40108
      H   26    0.09199      0.00000     0.40603    0.00198     0.40801
      H   27    0.17535      0.00000     0.32110    0.00355     0.32465
 =======================================================================
   * Total *   -0.00000     13.99637    29.86696    0.13667    44.00000

 Normal termination of Gaussian 16 at Tue Dec  8 11:25:50 2020.
