 Gaussian 16, Revision A.03,

 -----------------------------------------------------------
 # opt freq B3LYP/6-31G(d) empiricaldispersion=gd3bj scf=xqc
 -----------------------------------------------------------

 ------------------------------
 CID_17765489_JID_1754_neutraal
 ------------------------------
 Symbolic Z-matrix:
 Charge =  0 Multiplicity = 1

 SCF Done:  E(RB3LYP) =  -589.724634348     A.U. after   14 cycles
 SCF Done:  E(RB3LYP) =  -589.727658243     A.U. after   13 cycles
 SCF Done:  E(RB3LYP) =  -589.727584642     A.U. after   13 cycles
 SCF Done:  E(RB3LYP) =  -589.727886666     A.U. after   12 cycles
 SCF Done:  E(RB3LYP) =  -589.728388030     A.U. after   13 cycles
 SCF Done:  E(RB3LYP) =  -589.727905435     A.U. after   13 cycles
 SCF Done:  E(RB3LYP) =  -589.728456610     A.U. after   12 cycles
 SCF Done:  E(RB3LYP) =  -589.728519761     A.U. after   13 cycles
 SCF Done:  E(RB3LYP) =  -589.728579070     A.U. after   11 cycles
 SCF Done:  E(RB3LYP) =  -589.728584271     A.U. after   12 cycles
 SCF Done:  E(RB3LYP) =  -589.728620846     A.U. after    9 cycles
 SCF Done:  E(RB3LYP) =  -589.728622222     A.U. after    9 cycles
 SCF Done:  E(RB3LYP) =  -589.728623295     A.U. after    9 cycles
 SCF Done:  E(RB3LYP) =  -589.728623891     A.U. after    9 cycles
 SCF Done:  E(RB3LYP) =  -589.728624015     A.U. after    8 cycles
 Optimization completed.
    -- Stationary point found.
 Normal termination of Gaussian 16 at Tue Dec  8 21:05:27 2020.

 --------------------------------------------------------------------
 #N Geom=AllCheck Guess=TCheck SCRF=Check GenChk RB3LYP/6-31G(d) Freq
 --------------------------------------------------------------------

 Structure from the checkpoint file:  "JID_1754.chk"
 ------------------------------
 CID_17765489_JID_1754_neutraal
 ------------------------------
 Charge =  0 Multiplicity = 1

 SCF Done:  E(RB3LYP) =  -589.728624015     A.U. after    1 cycles

  Exact polarizability:  76.521  -5.427  75.272   9.483   2.070  77.222
 Approx polarizability: 112.447 -16.566 109.325  18.222   1.914 120.649

                      1                      2                      3
                      A                      A                      A
 Frequencies --     35.0475                56.2602                80.7426
 Red. masses --      7.7801                 5.9021                 9.4610
 Frc consts  --      0.0056                 0.0110                 0.0363
 IR Inten    --      2.4251                 2.0776                 0.3528

                      4                      5                      6
                      A                      A                      A
 Frequencies --    117.2033               136.4258               171.7986
 Red. masses --      3.6890                 5.7026                 5.3049
 Frc consts  --      0.0299                 0.0625                 0.0922
 IR Inten    --      9.6645                 1.1744                 0.3619

                      7                      8                      9
                      A                      A                      A
 Frequencies --    216.5575               241.6129               327.6107
 Red. masses --      3.9778                 4.3488                 2.6377
 Frc consts  --      0.1099                 0.1496                 0.1668
 IR Inten    --      6.4623                 1.0016                 5.0568

                     10                     11                     12
                      A                      A                      A
 Frequencies --    370.5535               430.8577               471.6408
 Red. masses --      3.4349                 2.5065                 2.4997
 Frc consts  --      0.2779                 0.2742                 0.3276
 IR Inten    --      0.6938                 7.6825                 1.2827

                     13                     14                     15
                      A                      A                      A
 Frequencies --    531.4577               549.8733               561.8288
 Red. masses --      3.3868                 2.9847                 3.5078
 Frc consts  --      0.5636                 0.5317                 0.6524
 IR Inten    --     33.2361                 7.6693                39.6627

                     16                     17                     18
                      A                      A                      A
 Frequencies --    618.7805               653.8990               720.3113
 Red. masses --      1.3693                 1.3281                 3.3320
 Frc consts  --      0.3089                 0.3346                 1.0186
 IR Inten    --     86.4854                52.4803                35.0889

                     19                     20                     21
                      A                      A                      A
 Frequencies --    728.8119               753.4925               790.9387
 Red. masses --      1.7331                 3.2272                 2.2261
 Frc consts  --      0.5424                 1.0795                 0.8205
 IR Inten    --     22.1933                75.7727                 7.2767

                     22                     23                     24
                      A                      A                      A
 Frequencies --    871.6635               922.3979               945.2258
 Red. masses --      3.8353                 3.2141                 2.1436
 Frc consts  --      1.7169                 1.6112                 1.1284
 IR Inten    --      3.8397                 9.5822                 6.8729

                     25                     26                     27
                      A                      A                      A
 Frequencies --    990.9646              1065.7052              1078.6097
 Red. masses --      3.0908                 1.3547                 2.1643
 Frc consts  --      1.7883                 0.9065                 1.4835
 IR Inten    --     16.3947                13.3497                39.2754

                     28                     29                     30
                      A                      A                      A
 Frequencies --   1103.1981              1157.6431              1184.5009
 Red. masses --      2.7998                 2.0079                 2.2248
 Frc consts  --      2.0077                 1.5854                 1.8391
 IR Inten    --      8.4543               252.9537                89.4958

                     31                     32                     33
                      A                      A                      A
 Frequencies --   1241.0362              1254.2551              1270.6150
 Red. masses --      1.4359                 1.3195                 1.3159
 Frc consts  --      1.3030                 1.2230                 1.2517
 IR Inten    --     29.4100                38.0134                27.8076

                     34                     35                     36
                      A                      A                      A
 Frequencies --   1314.1745              1344.2660              1354.4035
 Red. masses --      1.3211                 1.4966                 1.5222
 Frc consts  --      1.3443                 1.5934                 1.6453
 IR Inten    --      0.0473                12.5485                 3.4753

                     37                     38                     39
                      A                      A                      A
 Frequencies --   1397.7392              1401.0974              1420.9410
 Red. masses --      1.5721                 1.7374                 1.6691
 Frc consts  --      1.8096                 2.0095                 1.9856
 IR Inten    --     17.8357                35.3977                 4.2958

                     40                     41                     42
                      A                      A                      A
 Frequencies --   1502.0297              1513.8167              1535.2256
 Red. masses --      1.0821                 1.1282                 1.1552
 Frc consts  --      1.4384                 1.5233                 1.6041
 IR Inten    --     10.6659                17.2450                 5.1821

                     43                     44                     45
                      A                      A                      A
 Frequencies --   1759.4825              1837.5621              1862.4532
 Red. masses --      5.8971                 9.9914                 9.4267
 Frc consts  --     10.7561                19.8774                19.2655
 IR Inten    --     25.6081               167.1202               344.9827

                     46                     47                     48
                      A                      A                      A
 Frequencies --   3022.4070              3085.6880              3092.1752
 Red. masses --      1.0816                 1.0619                 1.0539
 Frc consts  --      5.8211                 5.9572                 5.9371
 IR Inten    --     11.2566                19.1804                25.8550

                     49                     50                     51
                      A                      A                      A
 Frequencies --   3094.4876              3135.0990              3147.0521
 Red. masses --      1.0591                 1.1041                 1.1053
 Frc consts  --      5.9754                 6.3936                 6.4495
 IR Inten    --      8.7645                 6.9394                10.5171

                     52                     53                     54
                      A                      A                      A
 Frequencies --   3170.3647              3675.2722              3683.0938
 Red. masses --      1.1188                 1.0640                 1.0638
 Frc consts  --      6.6253                 8.4680                 8.5025
 IR Inten    --     35.3992                43.8027                49.2916

 - Thermochemistry -
 -------------------
 Temperature   298.150 Kelvin.  Pressure   1.00000 Atm.
 Atom     1 has atomic number  6 and mass  12.00000

 Molecular mass:   159.05316 amu.
 Principal axes and moments of inertia in atomic units:
                           1         2         3
     Eigenvalues --  1166.674691945.310682224.89678
           X            0.99972   0.01646   0.01716
           Y           -0.01726   0.99872   0.04760
           Z           -0.01636  -0.04788   0.99872
 This molecule is an asymmetric top.
 Rotational symmetry number  1.
 Warning -- assumption of classical behavior for rotation
           may cause significant error
 Rotational temperatures (Kelvin)      0.07424     0.04452     0.03893
 Rotational constants (GHZ):           1.54691     0.92774     0.81116
 Zero-point vibrational energy     412713.8 (Joules/Mol)
                                   98.64095 (Kcal/Mol)
 Warning -- explicit consideration of  16 degrees of freedom as
           vibrations may cause significant error
 Vibrational temperatures:     50.43    80.95   116.17   168.63   196.29
          (Kelvin)            247.18   311.58   347.63   471.36   533.14
                              619.91   678.59   764.65   791.15   808.35
                              890.29   940.81  1036.37  1048.60  1084.11
                             1137.98  1254.13  1327.12  1359.97  1425.78
                             1533.31  1551.88  1587.26  1665.59  1704.23
                             1785.57  1804.59  1828.13  1890.80  1934.10
                             1948.68  2011.03  2015.87  2044.42  2161.09
                             2178.04  2208.85  2531.50  2643.84  2679.65
                             4348.57  4439.62  4448.95  4452.28  4510.71
                             4527.91  4561.45  5287.90  5299.15

 Zero-point correction=                           0.157194 (Hartree/Particle)
 Thermal correction to Energy=                    0.168406
 Thermal correction to Enthalpy=                  0.169350
 Thermal correction to Gibbs Free Energy=         0.119118
 Sum of electronic and zero-point Energies=           -589.571430
 Sum of electronic and thermal Energies=              -589.560218
 Sum of electronic and thermal Enthalpies=            -589.559274
 Sum of electronic and thermal Free Energies=         -589.609506

                     E (Thermal)             CV                S
                      KCal/Mol        Cal/Mol-Kelvin    Cal/Mol-Kelvin
 Total                  105.676             40.057            105.722
 Electronic               0.000              0.000              0.000
 Translational            0.889              2.981             41.101
 Rotational               0.889              2.981             30.003
 Vibrational            103.899             34.096             34.618
 Vibration     1          0.594              1.982              5.521
 Vibration     2          0.596              1.975              4.584
 Vibration     3          0.600              1.962              3.873
 Vibration     4          0.608              1.935              3.146
 Vibration     5          0.614              1.917              2.853
 Vibration     6          0.626              1.877              2.416
 Vibration     7          0.645              1.816              1.988
 Vibration     8          0.658              1.777              1.791
 Vibration     9          0.711              1.620              1.272
 Vibration    10          0.743              1.533              1.077
 Vibration    11          0.792              1.403              0.856
 Vibration    12          0.829              1.313              0.733
 Vibration    13          0.886              1.180              0.584
 Vibration    14          0.905              1.140              0.544
 Vibration    15          0.918              1.114              0.520
 Vibration    16          0.979              0.992              0.418

 Optimization completed.
    -- Stationary point found.
 Normal termination of Gaussian 16 at Tue Dec  8 21:09:55 2020.

 ----------------------------------------------------------------------
 # B3LYP/6-311++G(d,p) empiricaldispersion=gd3bj scf=xqc pop=npa geom=c
 heck
 ----------------------------------------------------------------------

 --------------------------------------
 CID_17765489_JID_1754_Energie_neutraal
 --------------------------------------
 Structure from the checkpoint file:  "JID_1754.chk"
 Charge =  0 Multiplicity = 1

 SCF Done:  E(RB3LYP) =  -589.921002294     A.U. after   15 cycles
 Normal termination of Gaussian 16 at Tue Dec  8 21:12:52 2020.

 ----------------------------------------------------------------------
 # B3LYP/6-311++G(d,p) empiricaldispersion=gd3bj scf=xqc pop=npa geom=c
 heck
 ----------------------------------------------------------------------

 ------------------------------------
 CID_17765489_JID_1754_Energie_kation
 ------------------------------------
 Structure from the checkpoint file:  "JID_1754.chk"
 Charge =  1 Multiplicity = 2

 SCF Done:  E(UB3LYP) =  -589.577864061     A.U. after   24 cycles
 Normal termination of Gaussian 16 at Tue Dec  8 21:18:59 2020.
 Gaussian 16:  ES64L-G16RevA.03 25-Dec-2016

 ----------------------------------------------------------------------
 # B3LYP/6-311++G(d,p) empiricaldispersion=gd3bj scf=xqc pop=npa geom=c
 heck
 ----------------------------------------------------------------------

 -----------------------------------
 CID_17765489_JID_1754_Energie_anion
 -----------------------------------
 Structure from the checkpoint file:  "JID_1754.chk"
 Charge = -1 Multiplicity = 2

                         Standard orientation:
 ---------------------------------------------------------------------
 Center     Atomic      Atomic             Coordinates (Angstroms)
 Number     Number       Type             X           Y           Z
 ---------------------------------------------------------------------
      1          6           0        1.639593   -1.294817    1.293263
      2          7           0        1.503270   -1.505177    0.050423
      3          6           0        1.056348   -0.455397   -0.860100
      4          6           0       -0.311599   -0.849375   -1.453449
      5          6           0       -1.412012   -1.197615   -0.431157
      6          6           0       -1.926687   -0.009680    0.348409
      7          8           0       -2.863644    0.686821    0.037357
      8          8           0       -1.208216    0.204060    1.487320
      9          6           0        1.076179    1.003355   -0.386371
     10          8           0        0.198530    1.816112   -0.573307
     11          8           0        2.253423    1.334932    0.195951
     12          1           0        1.938621   -2.135671    1.922665
     13          1           0        1.482058   -0.336802    1.795869
     14          1           0        1.774908   -0.468879   -1.693141
     15          1           0       -0.655359   -0.044429   -2.108313
     16          1           0       -0.149138   -1.739185   -2.068896
     17          1           0       -2.266684   -1.606697   -0.975761
     18          1           0       -1.039719   -1.958906    0.259273
     19          1           0       -1.569294    1.025422    1.871101
     20          1           0        2.190045    2.287159    0.402102
 ---------------------------------------------------------------------

 SCF Done:  E(UB3LYP) =  -589.909515118     A.U. after   33 cycles
 SCF Done:  E(UB3LYP) =  -589.909515118     a.u. after    1 cycles

 The electronic state is 2-A.
 Alpha  occ. eigenvalues --  -19.06524 -19.05810 -19.01135 -19.00940 -14.20417
 Alpha  occ. eigenvalues --  -10.20221 -10.19868 -10.11324 -10.09537 -10.08332
 Alpha  occ. eigenvalues --  -10.07999  -1.00574  -1.00158  -0.91714  -0.91360
 Alpha  occ. eigenvalues --   -0.81928  -0.70216  -0.64100  -0.56149  -0.52530
 Alpha  occ. eigenvalues --   -0.49611  -0.45106  -0.40964  -0.40159  -0.39306
 Alpha  occ. eigenvalues --   -0.38012  -0.37778  -0.35361  -0.34121  -0.32283
 Alpha  occ. eigenvalues --   -0.31368  -0.30899  -0.29556  -0.27215  -0.26489
 Alpha  occ. eigenvalues --   -0.25266  -0.22579  -0.21612  -0.20134  -0.19075
 Alpha  occ. eigenvalues --   -0.17880  -0.14308   0.04790
 Alpha virt. eigenvalues --    0.07081   0.07474   0.08132   0.08659   0.09448
 Alpha virt. eigenvalues --    0.10127   0.10710   0.11303   0.11493   0.12617
 Alpha virt. eigenvalues --    0.13234   0.15607   0.16267   0.16814   0.17778

  Beta  occ. eigenvalues --  -19.06497 -19.05742 -19.01123 -19.00921 -14.20342
  Beta  occ. eigenvalues --  -10.20207 -10.19864 -10.11308 -10.09444 -10.08320
  Beta  occ. eigenvalues --  -10.07973  -1.00524  -1.00082  -0.91677  -0.91288
  Beta  occ. eigenvalues --   -0.81785  -0.70164  -0.64022  -0.56059  -0.52352
  Beta  occ. eigenvalues --   -0.49512  -0.44965  -0.40876  -0.40081  -0.39250
  Beta  occ. eigenvalues --   -0.37963  -0.37752  -0.35298  -0.34047  -0.32214
  Beta  occ. eigenvalues --   -0.31322  -0.30833  -0.29499  -0.27115  -0.26436
  Beta  occ. eigenvalues --   -0.25211  -0.22523  -0.21549  -0.19771  -0.19003
  Beta  occ. eigenvalues --   -0.17855  -0.14197
  Beta virt. eigenvalues --    0.07255   0.08123   0.08291   0.08807   0.09134
  Beta virt. eigenvalues --    0.10280   0.10650   0.11133   0.11567   0.12033
  Beta virt. eigenvalues --    0.13025   0.13508   0.15742   0.16282   0.17023

 Mulliken charges and spin densities:
               1          2
     1  C    0.178921  -0.348126
     2  N   -0.233044   0.111495
     3  C    1.023518  -0.411855
     4  C    0.578732  -0.986723
     5  C   -0.435332   0.068621
     6  C    0.220863  -0.346675
     7  O   -0.291516   0.026223
     8  O   -0.167023   0.017564
     9  C    0.182200  -0.639873
    10  O   -0.315764   0.028221
    11  O   -0.193112   0.057807
    12  H   -0.295618   0.442621
    13  H    0.031665   0.104810
    14  H   -0.541411   0.823721
    15  H    0.115148   0.068508
    16  H   -0.116496   0.299652
    17  H   -0.166490   0.363655
    18  H    0.164122  -0.003387
    19  H   -0.048347   0.335332
    20  H   -0.691016   0.988409
 Sum of Mulliken charges =  -1.00000   1.00000

 Dipole moment (field-independent basis, Debye):
    X=             -3.5816    Y=             -3.3142    Z=              0.3381  Tot=              4.8914
 Quadrupole moment (field-independent basis, Debye-Ang):
   XX=           -113.8073   YY=           -102.0768   ZZ=            -93.1738
   XY=             -1.5054   XZ=             -3.8317   YZ=             -3.8938

 Summary of Natural Population Analysis:

                                       Natural Population
                Natural  -----------------------------------------------
    Atom  No    Charge         Core      Valence    Rydberg      Total
 -----------------------------------------------------------------------
      C    1    0.00807      0.99963     1.98041    0.01189     2.99193
      N    2   -0.22518      0.99970     2.71143    0.01404     3.72518
      C    3   -0.07058      0.99951     2.05517    0.01591     3.07058
      C    4   -0.18506      0.99960     2.17475    0.01071     3.18506
      C    5   -0.24085      0.99956     2.23334    0.00795     3.24085
      C    6    0.41221      0.99972     1.56305    0.02503     2.58779
      O    7   -0.30545      0.99986     3.29928    0.00631     4.30545
      O    8   -0.34955      0.99988     3.34214    0.00753     4.34955
      C    9    0.40430      0.99970     1.56938    0.02662     2.59570
      O   10   -0.30541      0.99987     3.29869    0.00684     4.30541
      O   11   -0.34382      0.99988     3.33592    0.00803     4.34382
      H   12    0.07637      0.00000     0.42223    0.00140     0.42363
      H   13    0.07735      0.00000     0.41999    0.00266     0.42265
      H   14    0.11856      0.00000     0.37865    0.00280     0.38144
      H   15    0.11180      0.00000     0.38691    0.00129     0.38820
      H   16    0.10540      0.00000     0.39338    0.00122     0.39460
      H   17    0.11117      0.00000     0.38776    0.00107     0.38883
      H   18    0.11284      0.00000     0.38556    0.00160     0.38716
      H   19    0.24152      0.00000     0.25438    0.00411     0.25848
      H   20    0.24632      0.00000     0.21692    0.03677     0.25368
 =======================================================================
   * Total *    0.00000     10.99690    30.80934    0.19376    42.00000

 Normal termination of Gaussian 16 at Tue Dec  8 21:27:35 2020.
