 Gaussian 16, Revision A.03,

 -----------------------------------------------------------
 # opt freq B3LYP/6-31G(d) empiricaldispersion=gd3bj scf=xqc
 -----------------------------------------------------------

 ---------------------------
 CID_255723_JID_639_neutraal
 ---------------------------
 Symbolic Z-matrix:
 Charge =  0 Multiplicity = 1

 SCF Done:  E(RB3LYP) =  -814.946255879     A.U. after   14 cycles
 SCF Done:  E(RB3LYP) =  -814.953534273     A.U. after   13 cycles
 SCF Done:  E(RB3LYP) =  -814.954666591     A.U. after   12 cycles
 SCF Done:  E(RB3LYP) =  -814.954518095     A.U. after   13 cycles
 SCF Done:  E(RB3LYP) =  -814.955405051     A.U. after   12 cycles
 SCF Done:  E(RB3LYP) =  -814.955696390     A.U. after   12 cycles
 SCF Done:  E(RB3LYP) =  -814.955770540     A.U. after   12 cycles
 SCF Done:  E(RB3LYP) =  -814.955785178     A.U. after   11 cycles
 SCF Done:  E(RB3LYP) =  -814.955789646     A.U. after   10 cycles
 SCF Done:  E(RB3LYP) =  -814.955791393     A.U. after    9 cycles
 SCF Done:  E(RB3LYP) =  -814.955791638     A.U. after    8 cycles
 SCF Done:  E(RB3LYP) =  -814.955791657     A.U. after    7 cycles
 Optimization completed.
    -- Stationary point found.
 Normal termination of Gaussian 16 at Tue Dec  8 12:23:38 2020.

 --------------------------------------------------------------------
 #N Geom=AllCheck Guess=TCheck SCRF=Check GenChk RB3LYP/6-31G(d) Freq
 --------------------------------------------------------------------

 Structure from the checkpoint file:  "JID_639.chk"
 ---------------------------
 CID_255723_JID_639_neutraal
 ---------------------------
 Charge =  0 Multiplicity = 1

 SCF Done:  E(RB3LYP) =  -814.955791657     A.U. after    1 cycles

  Exact polarizability: 133.167 -21.009  85.036   4.653   0.939  86.283
 Approx polarizability: 186.635 -40.601 126.894   8.840  -0.718 130.970

                      1                      2                      3
                      A                      A                      A
 Frequencies --     23.8308                50.5989                60.0222
 Red. masses --      4.9008                 3.6706                 3.2379
 Frc consts  --      0.0016                 0.0055                 0.0069
 IR Inten    --      0.2481                 2.1188                 1.9841

                      4                      5                      6
                      A                      A                      A
 Frequencies --    110.7458               135.5595               164.9243
 Red. masses --      2.7510                 3.9754                 1.3184
 Frc consts  --      0.0199                 0.0430                 0.0211
 IR Inten    --      3.3801                 2.2748                 2.1015

                      7                      8                      9
                      A                      A                      A
 Frequencies --    192.2679               234.7488               285.9990
 Red. masses --      3.2303                 3.7795                 2.4086
 Frc consts  --      0.0704                 0.1227                 0.1161
 IR Inten    --      2.5995                 9.5448                 1.2038

                     10                     11                     12
                      A                      A                      A
 Frequencies --    313.5139               378.2487               419.1139
 Red. masses --      2.8263                 3.4250                 1.1155
 Frc consts  --      0.1637                 0.2887                 0.1154
 IR Inten    --      0.7512                 0.7646                70.1988

                     13                     14                     15
                      A                      A                      A
 Frequencies --    444.2919               468.7467               569.9553
 Red. masses --      2.4135                 1.1785                 2.6278
 Frc consts  --      0.2807                 0.1526                 0.5029
 IR Inten    --     31.9708               103.4053                37.8128

                     16                     17                     18
                      A                      A                      A
 Frequencies --    584.9108               632.3029               647.1048
 Red. masses --      4.2378                 2.1289                 4.2404
 Frc consts  --      0.8542                 0.5015                 1.0462
 IR Inten    --     13.4107               100.2718                 1.0489

                     19                     20                     21
                      A                      A                      A
 Frequencies --    707.8782               720.5351               722.7513
 Red. masses --      3.1082                 3.1429                 1.7298
 Frc consts  --      0.9176                 0.9614                 0.5324
 IR Inten    --     48.5070                69.6502               235.5464

                     22                     23                     24
                      A                      A                      A
 Frequencies --    797.2268               804.9180               881.5638
 Red. masses --      1.9886                 1.7273                 1.7227
 Frc consts  --      0.7447                 0.6594                 0.7888
 IR Inten    --    228.1653                24.0847                 7.6278

                     25                     26                     27
                      A                      A                      A
 Frequencies --    952.7184               956.0909               989.7789
 Red. masses --      2.0233                 2.3288                 1.9751
 Frc consts  --      1.0821                 1.2542                 1.1400
 IR Inten    --      3.1808                19.4547                 3.1436

                     28                     29                     30
                      A                      A                      A
 Frequencies --    997.5691              1032.2967              1049.3210
 Red. masses --      1.2669                 2.0386                 2.2746
 Frc consts  --      0.7428                 1.2800                 1.4756
 IR Inten    --     10.1004                10.7535                 9.0751

                     31                     32                     33
                      A                      A                      A
 Frequencies --   1093.0671              1139.6186              1203.7979
 Red. masses --      2.4633                 1.4016                 1.4193
 Frc consts  --      1.7341                 1.0725                 1.2118
 IR Inten    --     26.5008                14.2307                20.1732

                     34                     35                     36
                      A                      A                      A
 Frequencies --   1226.3275              1243.7581              1331.5001
 Red. masses --      1.4443                 1.2657                 1.2193
 Frc consts  --      1.2798                 1.1536                 1.2736
 IR Inten    --      6.4442                 1.1820                21.2378

                     37                     38                     39
                      A                      A                      A
 Frequencies --   1380.9557              1391.1188              1405.4455
 Red. masses --      1.3096                 1.1598                 1.3100
 Frc consts  --      1.4715                 1.3224                 1.5246
 IR Inten    --     15.3275                11.3100                 7.2688

                     40                     41                     42
                      A                      A                      A
 Frequencies --   1486.8973              1490.0880              1497.1128
 Red. masses --      1.3462                 1.9601                 1.0760
 Frc consts  --      1.7536                 2.5643                 1.4209
 IR Inten    --     15.0538                70.9420                 6.9415

                     43                     44                     45
                      A                      A                      A
 Frequencies --   1500.0083              1519.7032              1611.5048
 Red. masses --      1.1028                 1.0537                 1.5511
 Frc consts  --      1.4620                 1.4338                 2.3733
 IR Inten    --      2.5121                10.8868               124.2968

                     46                     47                     48
                      A                      A                      A
 Frequencies --   1662.8561              1697.4947              1728.4529
 Red. masses --      1.3255                 3.4127                 3.8567
 Frc consts  --      2.1595                 5.7938                 6.7887
 IR Inten    --    180.4947               146.5923               416.5453

                     49                     50                     51
                      A                      A                      A
 Frequencies --   3044.8550              3065.9948              3079.3946
 Red. masses --      1.0617                 1.0316                 1.0616
 Frc consts  --      5.7994                 5.7134                 5.9313
 IR Inten    --     25.1544                20.8477                31.1681

                     52                     53                     54
                      A                      A                      A
 Frequencies --   3099.7837              3146.5743              3147.2497
 Red. masses --      1.1008                 1.1043                 1.1034
 Frc consts  --      6.2319                 6.4416                 6.4391
 IR Inten    --     15.2872                13.1282                 7.8042

                     55                     56                     57
                      A                      A                      A
 Frequencies --   3168.3371              3170.6256              3518.6668
 Red. masses --      1.0900                 1.1056                 1.0485
 Frc consts  --      6.4465                 6.5482                 7.6484
 IR Inten    --     19.2321                 4.5651                34.0029

                     58                     59                     60
                      A                      A                      A
 Frequencies --   3542.6055              3637.8192              3648.6583
 Red. masses --      1.0477                 1.0967                 1.0979
 Frc consts  --      7.7470                 8.5514                 8.6117
 IR Inten    --     15.1196                36.8883                14.4319

 - Thermochemistry -
 -------------------
 Temperature   298.150 Kelvin.  Pressure   1.00000 Atm.
 Atom     1 has atomic number  6 and mass  12.00000

 Molecular mass:   160.07827 amu.
 Principal axes and moments of inertia in atomic units:
                           1         2         3
     Eigenvalues --   927.880223189.098153373.87945
           X            0.99994  -0.01061   0.00039
           Y            0.01055   0.99691   0.07782
           Z           -0.00121  -0.07781   0.99697
 This molecule is an asymmetric top.
 Rotational symmetry number  1.
 Warning -- assumption of classical behavior for rotation
           may cause significant error
 Rotational temperatures (Kelvin)      0.09335     0.02716     0.02567
 Rotational constants (GHZ):           1.94502     0.56591     0.53492
 Zero-point vibrational energy     485742.5 (Joules/Mol)
                                  116.09525 (Kcal/Mol)
 Warning -- explicit consideration of  16 degrees of freedom as
           vibrations may cause significant error
 Vibrational temperatures:     34.29    72.80    86.36   159.34   195.04
          (Kelvin)            237.29   276.63   337.75   411.49   451.08
                              544.22   603.01   639.24   674.42   820.04
                              841.56   909.74   931.04  1018.48  1036.69
                             1039.88  1147.03  1158.10  1268.37  1370.75
                             1375.60  1424.07  1435.28  1485.24  1509.74
                             1572.68  1639.66  1732.00  1764.41  1789.49
                             1915.73  1986.89  2001.51  2022.12  2139.31
                             2143.90  2154.01  2158.18  2186.51  2318.60
                             2392.48  2442.32  2486.86  4380.87  4411.28
                             4430.56  4459.90  4527.22  4528.19  4558.53
                             4561.82  5062.58  5097.02  5234.01  5249.61

 Zero-point correction=                           0.185010 (Hartree/Particle)
 Thermal correction to Energy=                    0.196986
 Thermal correction to Enthalpy=                  0.197930
 Thermal correction to Gibbs Free Energy=         0.145439
 Sum of electronic and zero-point Energies=           -814.770782
 Sum of electronic and thermal Energies=              -814.758805
 Sum of electronic and thermal Enthalpies=            -814.757861
 Sum of electronic and thermal Free Energies=         -814.810353

                     E (Thermal)             CV                S
                      KCal/Mol        Cal/Mol-Kelvin    Cal/Mol-Kelvin
 Total                  123.611             42.937            110.478
 Electronic               0.000              0.000              0.000
 Translational            0.889              2.981             41.120
 Rotational               0.889              2.981             30.680
 Vibrational            121.833             36.975             38.678
 Vibration     1          0.593              1.985              6.286
 Vibration     2          0.595              1.977              4.794
 Vibration     3          0.597              1.973              4.456
 Vibration     4          0.607              1.941              3.256
 Vibration     5          0.613              1.918              2.866
 Vibration     6          0.623              1.886              2.493
 Vibration     7          0.634              1.851              2.206
 Vibration     8          0.655              1.788              1.842
 Vibration     9          0.684              1.700              1.498
 Vibration    10          0.701              1.648              1.344
 Vibration    11          0.749              1.517              1.046
 Vibration    12          0.782              1.429              0.895
 Vibration    13          0.804              1.373              0.813
 Vibration    14          0.826              1.319              0.741
 Vibration    15          0.926              1.096              0.504
 Vibration    16          0.942              1.064              0.476

 Optimization completed.
    -- Stationary point found.
 Normal termination of Gaussian 16 at Tue Dec  8 12:28:03 2020.

 ----------------------------------------------------------------------
 # B3LYP/6-311++G(d,p) empiricaldispersion=gd3bj scf=xqc pop=npa geom=c
 heck
 ----------------------------------------------------------------------

 -----------------------------------
 CID_255723_JID_639_Energie_neutraal
 -----------------------------------
 Structure from the checkpoint file:  "JID_639.chk"
 Charge =  0 Multiplicity = 1

 SCF Done:  E(RB3LYP) =  -815.117215945     A.U. after   14 cycles
 Normal termination of Gaussian 16 at Tue Dec  8 12:30:53 2020.

 ----------------------------------------------------------------------
 # B3LYP/6-311++G(d,p) empiricaldispersion=gd3bj scf=xqc pop=npa geom=c
 heck
 ----------------------------------------------------------------------

 ---------------------------------
 CID_255723_JID_639_Energie_kation
 ---------------------------------
 Structure from the checkpoint file:  "JID_639.chk"
 Charge =  1 Multiplicity = 2

 SCF Done:  E(UB3LYP) =  -814.834119194     A.U. after   22 cycles
 Normal termination of Gaussian 16 at Tue Dec  8 12:39:58 2020.
 Gaussian 16:  ES64L-G16RevA.03 25-Dec-2016

 ----------------------------------------------------------------------
 # B3LYP/6-311++G(d,p) empiricaldispersion=gd3bj scf=xqc pop=npa geom=c
 heck
 ----------------------------------------------------------------------

 --------------------------------
 CID_255723_JID_639_Energie_anion
 --------------------------------
 Structure from the checkpoint file:  "JID_639.chk"
 Charge = -1 Multiplicity = 2

                         Standard orientation:
 ---------------------------------------------------------------------
 Center     Atomic      Atomic             Coordinates (Angstroms)
 Number     Number       Type             X           Y           Z
 ---------------------------------------------------------------------
      1          6           0        1.676741    1.790267    0.604025
      2         16           0        2.857566    0.547557   -0.035439
      3          6           0        1.738625   -0.488752   -1.064204
      4          6           0        1.135473   -1.702849   -0.339351
      5          6           0        0.351014   -1.346596    0.897882
      6          7           0       -0.774415   -0.732290    0.938817
      7          7           0       -1.288123   -0.368613   -0.308984
      8          6           0       -2.465391    0.179903   -0.185442
      9          7           0       -3.205774    0.228943    0.972156
     10          7           0       -3.046628    0.761609   -1.296819
     11          1           0        2.254971    2.485542    1.218532
     12          1           0        0.899423    1.326039    1.212970
     13          1           0        1.215933    2.343548   -0.219471
     14          1           0        0.936827    0.146756   -1.445977
     15          1           0        2.339027   -0.830418   -1.913347
     16          1           0        0.468366   -2.213041   -1.046854
     17          1           0        1.935911   -2.397686   -0.064887
     18          1           0        0.765518   -1.613296    1.869006
     19          1           0       -3.743028    1.075993    1.109183
     20          1           0       -2.637251   -0.047587    1.768645
     21          1           0       -2.529277    0.551380   -2.142645
     22          1           0       -4.041683    0.592485   -1.391789
 ---------------------------------------------------------------------

 SCF Done:  E(UB3LYP) =  -815.106024830     A.U. after   31 cycles

 The electronic state is 2-A.
 Alpha  occ. eigenvalues --  -88.73680 -14.22014 -14.21037 -14.20582 -14.18980
 Alpha  occ. eigenvalues --  -10.15793 -10.09457 -10.08952 -10.08925 -10.07381
 Alpha  occ. eigenvalues --   -7.82278  -5.78679  -5.78312  -5.77646  -0.89387
 Alpha  occ. eigenvalues --   -0.82775  -0.76366  -0.71625  -0.69122  -0.64158
 Alpha  occ. eigenvalues --   -0.56524  -0.51130  -0.48344  -0.45511  -0.42663
 Alpha  occ. eigenvalues --   -0.39604  -0.37529  -0.35566  -0.34315  -0.33202
 Alpha  occ. eigenvalues --   -0.32688  -0.31569  -0.30892  -0.29108  -0.26436
 Alpha  occ. eigenvalues --   -0.25835  -0.24093  -0.22470  -0.20413  -0.16525
 Alpha  occ. eigenvalues --   -0.12485  -0.12324  -0.11066   0.04784
 Alpha virt. eigenvalues --    0.07024   0.07625   0.08108   0.08971   0.09379
 Alpha virt. eigenvalues --    0.10364   0.10730   0.11634   0.12177   0.12492
 Alpha virt. eigenvalues --    0.13312   0.13729   0.14801   0.15557   0.16123

  Beta  occ. eigenvalues --  -88.73678 -14.21964 -14.20985 -14.20474 -14.18980
  Beta  occ. eigenvalues --  -10.15756 -10.09440 -10.08937 -10.08892 -10.07378
  Beta  occ. eigenvalues --   -7.82276  -5.78678  -5.78307  -5.77645  -0.89321
  Beta  occ. eigenvalues --   -0.82674  -0.76236  -0.71580  -0.69075  -0.64126
  Beta  occ. eigenvalues --   -0.56473  -0.51025  -0.48265  -0.45445  -0.42555
  Beta  occ. eigenvalues --   -0.39504  -0.37488  -0.35493  -0.34228  -0.33149
  Beta  occ. eigenvalues --   -0.32658  -0.31499  -0.30855  -0.29022  -0.26406
  Beta  occ. eigenvalues --   -0.25806  -0.24047  -0.22314  -0.20377  -0.16411
  Beta  occ. eigenvalues --   -0.12467  -0.12271  -0.10954
  Beta virt. eigenvalues --    0.07184   0.07571   0.08231   0.08678   0.09433
  Beta virt. eigenvalues --    0.10266   0.10786   0.10866   0.11712   0.12407
  Beta virt. eigenvalues --    0.13163   0.13668   0.13834   0.14862   0.15747

 Mulliken charges and spin densities:
               1          2
     1  C   -0.357876  -0.381131
     2  S   -0.148367   0.230772
     3  C    0.057323  -0.095636
     4  C   -0.113280  -0.215178
     5  C   -0.164688  -0.217998
     6  N    0.022800  -0.082863
     7  N   -0.190800  -0.042168
     8  C    1.293171  -1.329624
     9  N   -0.200373  -0.139463
    10  N   -0.490884   0.207091
    11  H    0.058001   0.088419
    12  H    0.139224   0.033066
    13  H   -0.028895   0.220401
    14  H    0.268952  -0.135992
    15  H   -0.100939   0.333398
    16  H   -0.025754   0.182266
    17  H    0.130909  -0.014158
    18  H    0.102412   0.049890
    19  H   -0.455447   0.718936
    20  H    0.205447   0.056893
    21  H   -0.231783   0.488389
    22  H   -0.769152   1.044689
 Sum of Mulliken charges =  -1.00000   1.00000

 Dipole moment (field-independent basis, Debye):
    X=              9.3684    Y=             -2.2948    Z=              3.3130  Tot=             10.1984
 Quadrupole moment (field-independent basis, Debye-Ang):
   XX=           -154.3032   YY=            -92.5893   ZZ=            -99.2677
   XY=              7.7285   XZ=             -8.6861   YZ=              1.1758

 Summary of Natural Population Analysis:

                                       Natural Population
                Natural  -----------------------------------------------
    Atom  No    Charge         Core      Valence    Rydberg      Total
 -----------------------------------------------------------------------
      C    1   -0.34719      0.99962     2.34211    0.00547     3.34719
      S    2    0.06929      4.99964     2.91310    0.01797     7.93071
      C    3   -0.24893      0.99958     2.23742    0.01192     3.24893
      C    4   -0.23236      0.99960     2.22152    0.01124     3.23236
      C    5    0.04979      0.99965     1.93329    0.01727     2.95021
      N    6   -0.16403      0.99966     2.64882    0.01554     3.66403
      N    7   -0.25305      0.99964     2.73640    0.01702     3.75305
      C    8    0.31755      0.99966     1.66365    0.01915     2.68245
      N    9   -0.40792      0.99970     2.89843    0.00979     3.90792
      N   10   -0.39650      0.99971     2.88675    0.01004     3.89650
      H   11    0.10078      0.00000     0.39817    0.00104     0.39922
      H   12    0.10960      0.00000     0.38824    0.00216     0.39040
      H   13    0.10203      0.00000     0.39609    0.00188     0.39797
      H   14    0.11583      0.00000     0.38180    0.00236     0.38417
      H   15    0.10142      0.00000     0.39735    0.00122     0.39858
      H   16    0.11357      0.00000     0.38484    0.00159     0.38643
      H   17    0.09732      0.00000     0.40128    0.00140     0.40268
      H   18    0.08399      0.00000     0.41489    0.00111     0.41601
      H   19    0.19500      0.00000     0.30000    0.00501     0.30500
      H   20    0.20089      0.00000     0.29622    0.00289     0.29911
      H   21    0.19444      0.00000     0.29938    0.00618     0.30556
      H   22    0.19849      0.00000     0.27198    0.02954     0.30151
 =======================================================================
   * Total *   -0.00000     13.99646    28.81174    0.19180    43.00000

 Normal termination of Gaussian 16 at Tue Dec  8 12:49:35 2020.
