 Gaussian 16, Revision A.03,

 -----------------------------------------------------------
 # opt freq B3LYP/6-31G(d) empiricaldispersion=gd3bj scf=xqc
 -----------------------------------------------------------

 ------------------------------
 CID_18406310_JID_6744_neutraal
 ------------------------------
 Symbolic Z-matrix:
 Charge =  0 Multiplicity = 1

 SCF Done:  E(RB3LYP) =  -651.453348975     A.U. after   14 cycles
 SCF Done:  E(RB3LYP) =  -651.460198457     A.U. after   12 cycles
 SCF Done:  E(RB3LYP) =  -651.461420312     A.U. after   14 cycles
 SCF Done:  E(RB3LYP) =  -651.462700128     A.U. after   12 cycles
 SCF Done:  E(RB3LYP) =  -651.463178672     A.U. after   12 cycles
 SCF Done:  E(RB3LYP) =  -651.463341469     A.U. after   12 cycles
 SCF Done:  E(RB3LYP) =  -651.463379576     A.U. after   10 cycles
 SCF Done:  E(RB3LYP) =  -651.463410906     A.U. after   10 cycles
 SCF Done:  E(RB3LYP) =  -651.463417511     A.U. after    9 cycles
 SCF Done:  E(RB3LYP) =  -651.463421469     A.U. after    8 cycles
 SCF Done:  E(RB3LYP) =  -651.463424130     A.U. after    9 cycles
 SCF Done:  E(RB3LYP) =  -651.463424511     A.U. after    8 cycles
 SCF Done:  E(RB3LYP) =  -651.463424548     A.U. after    7 cycles
 SCF Done:  E(RB3LYP) =  -651.463424567     A.U. after    7 cycles
 Optimization completed.
    -- Stationary point found.
 Normal termination of Gaussian 16 at Thu Dec 10 23:19:24 2020.

 --------------------------------------------------------------------
 #N Geom=AllCheck Guess=TCheck SCRF=Check GenChk RB3LYP/6-31G(d) Freq
 --------------------------------------------------------------------

 Structure from the checkpoint file:  "JID_6744.chk"
 ------------------------------
 CID_18406310_JID_6744_neutraal
 ------------------------------
 Charge =  0 Multiplicity = 1

 SCF Done:  E(RB3LYP) =  -651.463424567     A.U. after    1 cycles

  Exact polarizability: 201.536  11.835 163.271  21.012  -7.047 110.763
 Approx polarizability: 280.291  25.299 269.185  45.524 -11.330 194.939

                      1                      2                      3
                      A                      A                      A
 Frequencies --     21.3211                36.4167                43.6728
 Red. masses --      5.2393                 3.9693                 3.7972
 Frc consts  --      0.0014                 0.0031                 0.0043
 IR Inten    --      0.3578                 0.1733                 0.2212

                      4                      5                      6
                      A                      A                      A
 Frequencies --     73.7934               146.6596               175.9593
 Red. masses --      4.0150                 4.7206                 4.2098
 Frc consts  --      0.0129                 0.0598                 0.0768
 IR Inten    --      0.5800                 1.1846                 1.2449

                      7                      8                      9
                      A                      A                      A
 Frequencies --    200.9987               254.0544               311.3627
 Red. masses --      4.3697                 4.1003                 4.4139
 Frc consts  --      0.1040                 0.1559                 0.2521
 IR Inten    --      1.4922                 1.6465                 0.8397

                     10                     11                     12
                      A                      A                      A
 Frequencies --    334.9815               417.8672               418.8778
 Red. masses --      3.8492                 3.0875                 3.1095
 Frc consts  --      0.2545                 0.3176                 0.3215
 IR Inten    --      0.2609                 2.9670                 4.5453

                     13                     14                     15
                      A                      A                      A
 Frequencies --    426.5950               445.1873               484.5933
 Red. masses --      2.9266                 1.8769                 1.4331
 Frc consts  --      0.3138                 0.2192                 0.1983
 IR Inten    --     11.3931                10.6170               135.5124

                     16                     17                     18
                      A                      A                      A
 Frequencies --    499.9989               513.7791               521.7538
 Red. masses --      2.0563                 2.8648                 2.9359
 Frc consts  --      0.3029                 0.4455                 0.4709
 IR Inten    --     63.7088                 8.3516                 4.9585

                     19                     20                     21
                      A                      A                      A
 Frequencies --    565.9580               632.7427               635.6014
 Red. masses --      3.2702                 6.3093                 6.2535
 Frc consts  --      0.6172                 1.4883                 1.4885
 IR Inten    --     33.7342                 1.0580                 1.4050

                     22                     23                     24
                      A                      A                      A
 Frequencies --    675.5587               684.2481               701.7762
 Red. masses --      3.8258                 3.7893                 1.9383
 Frc consts  --      1.0287                 1.0453                 0.5624
 IR Inten    --      0.6068                18.4755                 2.1647

                     25                     26                     27
                      A                      A                      A
 Frequencies --    708.3080               716.6964               762.2366
 Red. masses --      2.0773                 1.5180                 1.6175
 Frc consts  --      0.6140                 0.4594                 0.5537
 IR Inten    --     14.0215                38.2143                54.8480

                     28                     29                     30
                      A                      A                      A
 Frequencies --    764.4540               789.3316               837.6213
 Red. masses --      1.6517                 1.3251                 1.2630
 Frc consts  --      0.5687                 0.4864                 0.5221
 IR Inten    --     51.4101                41.0160                 0.5060

                     31                     32                     33
                      A                      A                      A
 Frequencies --    839.2026               860.0330               870.6966
 Red. masses --      1.3540                 3.6542                 3.2299
 Frc consts  --      0.5618                 1.5925                 1.4427
 IR Inten    --      3.0298                 3.4513                 4.6037

                     34                     35                     36
                      A                      A                      A
 Frequencies --    897.4919               900.3390               956.3630
 Red. masses --      1.4273                 1.5714                 1.3228
 Frc consts  --      0.6774                 0.7505                 0.7128
 IR Inten    --      8.7800                 6.1733                 0.0401

                     37                     38                     39
                      A                      A                      A
 Frequencies --    957.1587               983.6121               984.4772
 Red. masses --      1.3139                 1.2274                 1.2318
 Frc consts  --      0.7092                 0.6997                 0.7034
 IR Inten    --      0.3679                 0.4475                 0.9883

                     40                     41                     42
                      A                      A                      A
 Frequencies --   1000.2102              1014.7389              1017.5531
 Red. masses --      3.4831                 3.7893                 5.8334
 Frc consts  --      2.0531                 2.2989                 3.5587
 IR Inten    --      7.8475                 0.0686                 1.9826

                     43                     44                     45
                      A                      A                      A
 Frequencies --   1019.3933              1061.8509              1064.1253
 Red. masses --      2.4653                 2.0822                 2.0468
 Frc consts  --      1.5094                 1.3833                 1.3656
 IR Inten    --      5.2884                 4.6559                 3.9277

                     46                     47                     48
                      A                      A                      A
 Frequencies --   1121.1277              1123.9557              1192.6111
 Red. masses --      1.5426                 1.5461                 1.0874
 Frc consts  --      1.1424                 1.1508                 0.9113
 IR Inten    --      1.7903                 7.1707                 0.7883

                     49                     50                     51
                      A                      A                      A
 Frequencies --   1192.7362              1215.7391              1216.9639
 Red. masses --      1.0854                 1.1309                 1.1314
 Frc consts  --      0.9098                 0.9848                 0.9873
 IR Inten    --      1.8035                 8.2064                 5.6791

                     52                     53                     54
                      A                      A                      A
 Frequencies --   1272.2996              1291.3459              1328.6159
 Red. masses --      2.4468                 2.1351                 3.3267
 Frc consts  --      2.3336                 2.0978                 3.4599
 IR Inten    --     18.7541                66.3698               111.1938

                     55                     56                     57
                      A                      A                      A
 Frequencies --   1346.1912              1366.8591              1375.0897
 Red. masses --      2.7407                 1.8114                 2.6398
 Frc consts  --      2.9263                 1.9940                 2.9409
 IR Inten    --     68.1762                90.1340                11.8499

                     58                     59                     60
                      A                      A                      A
 Frequencies --   1375.9479              1423.5141              1483.6026
 Red. masses --      2.4204                 1.3796                 1.5554
 Frc consts  --      2.6998                 1.6471                 2.0171
 IR Inten    --     74.3069                41.4020                 6.5274

                     61                     62                     63
                      A                      A                      A
 Frequencies --   1488.6691              1530.8964              1549.3271
 Red. masses --      1.9969                 1.8656                 2.3275
 Frc consts  --      2.6073                 2.5761                 3.2918
 IR Inten    --     73.8868                 9.7222               139.4236

                     64                     65                     66
                      A                      A                      A
 Frequencies --   1550.2473              1570.9909              1647.5914
 Red. masses --      2.1368                 2.1767                 5.4824
 Frc consts  --      3.0256                 3.1651                 8.7683
 IR Inten    --     52.1044               236.6333                 6.9470

                     67                     68                     69
                      A                      A                      A
 Frequencies --   1650.0732              1666.4408              1670.4166
 Red. masses --      4.7998                 5.5586                 5.5792
 Frc consts  --      7.6998                 9.0949                 9.1721
 IR Inten    --     20.5359                88.9769               116.1078

                     70                     71                     72
                      A                      A                      A
 Frequencies --   1730.7094              3172.0578              3176.6967
 Red. masses --      4.8516                 1.0871                 1.0866
 Frc consts  --      8.5622                 6.4449                 6.4604
 IR Inten    --    223.3926                13.1712                 9.5646

                     73                     74                     75
                      A                      A                      A
 Frequencies --   3185.6728              3187.9668              3194.6105
 Red. masses --      1.0870                 1.0872                 1.0919
 Frc consts  --      6.4998                 6.5103                 6.5658
 IR Inten    --      1.5013                 0.1075                30.8779

                     76                     77                     78
                      A                      A                      A
 Frequencies --   3196.2720              3196.3711              3211.9849
 Red. masses --      1.0616                 1.0904                 1.0963
 Frc consts  --      6.3899                 6.5635                 6.6642
 IR Inten    --      1.1784                30.2480                30.8406

                     79                     80                     81
                      A                      A                      A
 Frequencies --   3212.3462              3229.4055              3238.5558
 Red. masses --      1.0965                 1.0928                 1.0915
 Frc consts  --      6.6668                 6.7150                 6.7448
 IR Inten    --     24.9976                 2.0717                 2.4382

                     82                     83                     84
                      A                      A                      A
 Frequencies --   3284.3059              3603.7387              3608.9426
 Red. masses --      1.1175                 1.0754                 1.0758
 Frc consts  --      7.1021                 8.2283                 8.2558
 IR Inten    --      9.7231                19.1128                12.4138

 - Thermochemistry -
 -------------------
 Temperature   298.150 Kelvin.  Pressure   1.00000 Atm.
 Atom     1 has atomic number  6 and mass  12.00000

 Molecular mass:   210.11570 amu.
 Principal axes and moments of inertia in atomic units:
                           1         2         3
     Eigenvalues --  1851.738015783.286386794.34193
           X            0.99999   0.00238   0.00407
           Y           -0.00232   0.99989  -0.01463
           Z           -0.00410   0.01462   0.99988
 This molecule is an asymmetric top.
 Rotational symmetry number  1.
 Warning -- assumption of classical behavior for rotation
           may cause significant error
 Rotational temperatures (Kelvin)      0.04677     0.01498     0.01275
 Rotational constants (GHZ):           0.97462     0.31206     0.26562
 Zero-point vibrational energy     653822.2 (Joules/Mol)
                                  156.26726 (Kcal/Mol)
 Warning -- explicit consideration of  19 degrees of freedom as
           vibrations may cause significant error
 Vibrational temperatures:     30.68    52.40    62.84   106.17   211.01
          (Kelvin)            253.17   289.19   365.53   447.98   481.96
                              601.22   602.67   613.78   640.53   697.22
                              719.39   739.21   750.69   814.29   910.38
                              914.49   971.98   984.48  1009.70  1019.10
                             1031.17  1096.69  1099.88  1135.67  1205.15
                             1207.43  1237.40  1252.74  1291.29  1295.39
                             1375.99  1377.14  1415.20  1416.44  1439.08
                             1459.98  1464.03  1466.68  1527.77  1531.04
                             1613.05  1617.12  1715.90  1716.08  1749.18
                             1750.94  1830.56  1857.96  1911.58  1936.87
                             1966.61  1978.45  1979.68  2048.12  2134.57
                             2141.86  2202.62  2229.14  2230.46  2260.31
                             2370.52  2374.09  2397.64  2403.36  2490.10
                             4563.88  4570.56  4583.47  4586.77  4596.33
                             4598.72  4598.87  4621.33  4621.85  4646.39
                             4659.56  4725.38  5184.98  5192.46

 Zero-point correction=                           0.249028 (Hartree/Particle)
 Thermal correction to Energy=                    0.262596
 Thermal correction to Enthalpy=                  0.263540
 Thermal correction to Gibbs Free Energy=         0.206899
 Sum of electronic and zero-point Energies=           -651.214397
 Sum of electronic and thermal Energies=              -651.200829
 Sum of electronic and thermal Enthalpies=            -651.199884
 Sum of electronic and thermal Free Energies=         -651.256525

                     E (Thermal)             CV                S
                      KCal/Mol        Cal/Mol-Kelvin    Cal/Mol-Kelvin
 Total                  164.781             54.368            119.211
 Electronic               0.000              0.000              0.000
 Translational            0.889              2.981             41.931
 Rotational               0.889              2.981             32.653
 Vibrational            163.004             48.407             44.626
 Vibration     1          0.593              1.985              6.507
 Vibration     2          0.594              1.982              5.445
 Vibration     3          0.595              1.980              5.085
 Vibration     4          0.599              1.966              4.050
 Vibration     5          0.617              1.906              2.715
 Vibration     6          0.628              1.872              2.371
 Vibration     7          0.638              1.838              2.124
 Vibration     8          0.665              1.756              1.702
 Vibration     9          0.700              1.652              1.355
 Vibration    10          0.716              1.606              1.236
 Vibration    11          0.781              1.431              0.899
 Vibration    12          0.782              1.429              0.896
 Vibration    13          0.788              1.412              0.870
 Vibration    14          0.805              1.372              0.810
 Vibration    15          0.841              1.284              0.698
 Vibration    16          0.855              1.250              0.658
 Vibration    17          0.869              1.219              0.625
 Vibration    18          0.877              1.202              0.606
 Vibration    19          0.922              1.105              0.512

                           ! Non-Optimized Parameters !
 Normal termination of Gaussian 16 at Thu Dec 10 23:28:19 2020.

 ----------------------------------------------------------------------
 # B3LYP/6-311++G(d,p) empiricaldispersion=gd3bj scf=xqc pop=npa geom=c
 heck
 ----------------------------------------------------------------------

 --------------------------------------
 CID_18406310_JID_6744_Energie_neutraal
 --------------------------------------
 Structure from the checkpoint file:  "JID_6744.chk"
 Charge =  0 Multiplicity = 1

 SCF Done:  E(RB3LYP) =  -651.640805042     A.U. after   15 cycles
 Normal termination of Gaussian 16 at Thu Dec 10 23:31:44 2020.

 ----------------------------------------------------------------------
 # B3LYP/6-311++G(d,p) empiricaldispersion=gd3bj scf=xqc pop=npa geom=c
 heck
 ----------------------------------------------------------------------

 ------------------------------------
 CID_18406310_JID_6744_Energie_kation
 ------------------------------------
 Structure from the checkpoint file:  "JID_6744.chk"
 Charge =  1 Multiplicity = 2

 SCF Done:  E(UB3LYP) =  -651.380281028     A.U. after   24 cycles
 Normal termination of Gaussian 16 at Thu Dec 10 23:39:12 2020.
 Gaussian 16:  ES64L-G16RevA.03 25-Dec-2016

 ----------------------------------------------------------------------
 # B3LYP/6-311++G(d,p) empiricaldispersion=gd3bj scf=xqc pop=npa geom=c
 heck
 ----------------------------------------------------------------------

 -----------------------------------
 CID_18406310_JID_6744_Energie_anion
 -----------------------------------
 Structure from the checkpoint file:  "JID_6744.chk"
 Charge = -1 Multiplicity = 2

                         Standard orientation:
 ---------------------------------------------------------------------
 Center     Atomic      Atomic             Coordinates (Angstroms)
 Number     Number       Type             X           Y           Z
 ---------------------------------------------------------------------
      1          6           0       -0.404865    2.856425   -0.623329
      2          6           0        0.091240    1.840334    0.104977
      3          7           0        1.469436    1.653992    0.301762
      4          6           0        2.148181    0.441976    0.057940
      5          6           0        3.488562    0.335165    0.459207
      6          6           0        4.198078   -0.841922    0.239963
      7          6           0        3.579631   -1.939792   -0.361859
      8          6           0        2.246028   -1.834609   -0.757590
      9          6           0        1.530819   -0.653525   -0.564880
     10          7           0       -0.674417    0.922981    0.828515
     11          6           0       -1.817883    0.229659    0.420001
     12          6           0       -2.400860   -0.667231    1.332417
     13          6           0       -3.519700   -1.412351    0.977150
     14          6           0       -4.085627   -1.282904   -0.293015
     15          6           0       -3.505625   -0.396706   -1.200323
     16          6           0       -2.385069    0.358659   -0.857973
     17          1           0        0.247842    3.458868   -1.243969
     18          1           0       -1.458244    3.103306   -0.595368
     19          1           0        2.024873    2.490716    0.186634
     20          1           0        3.964861    1.180135    0.950723
     21          1           0        5.237055   -0.903606    0.552049
     22          1           0        4.130593   -2.861373   -0.522804
     23          1           0        1.753414   -2.675283   -1.238503
     24          1           0        0.505879   -0.579826   -0.909122
     25          1           0       -0.196010    0.529111    1.627396
     26          1           0       -1.966563   -0.773733    2.324010
     27          1           0       -3.951763   -2.098388    1.700638
     28          1           0       -4.962532   -1.860728   -0.568050
     29          1           0       -3.927356   -0.285778   -2.195822
     30          1           0       -1.944638    1.038703   -1.575865
 ---------------------------------------------------------------------

 SCF Done:  E(UB3LYP) =  -651.628638172     A.U. after   33 cycles
 SCF Done:  E(UB3LYP) =  -651.628638172     a.u. after    1 cycles

 The electronic state is 2-A.
 Alpha  occ. eigenvalues --  -14.23845 -14.22988 -10.13834 -10.12314 -10.11337
 Alpha  occ. eigenvalues --  -10.08280 -10.08130 -10.07668 -10.07459 -10.07379
 Alpha  occ. eigenvalues --  -10.07244 -10.07230 -10.06781 -10.06755 -10.06689
 Alpha  occ. eigenvalues --  -10.04263  -0.87734  -0.81940  -0.75478  -0.74220
 Alpha  occ. eigenvalues --   -0.66857  -0.65349  -0.64631  -0.63564  -0.61202
 Alpha  occ. eigenvalues --   -0.53507  -0.52154  -0.50998  -0.50476  -0.47020
 Alpha  occ. eigenvalues --   -0.43923  -0.43450  -0.41614  -0.39117  -0.38701
 Alpha  occ. eigenvalues --   -0.35980  -0.34830  -0.34157  -0.33861  -0.32934
 Alpha  occ. eigenvalues --   -0.32530  -0.32139  -0.30690  -0.29223  -0.28057
 Alpha  occ. eigenvalues --   -0.26927  -0.26138  -0.25171  -0.24610  -0.24540
 Alpha  occ. eigenvalues --   -0.21351  -0.16403  -0.16292  -0.15499  -0.11319
 Alpha  occ. eigenvalues --   -0.09794   0.04449
 Alpha virt. eigenvalues --    0.06113   0.06991   0.07384   0.07573   0.07899
 Alpha virt. eigenvalues --    0.08222   0.08614   0.08880   0.09331   0.09727
 Alpha virt. eigenvalues --    0.09846   0.10743   0.10874   0.12258   0.12691

  Beta  occ. eigenvalues --  -14.23850 -14.22977 -10.13765 -10.12280 -10.11304
  Beta  occ. eigenvalues --  -10.08286 -10.08109 -10.07661 -10.07455 -10.07372
  Beta  occ. eigenvalues --  -10.07211 -10.07208 -10.06764 -10.06725 -10.06657
  Beta  occ. eigenvalues --  -10.04200  -0.87654  -0.81888  -0.75424  -0.74174
  Beta  occ. eigenvalues --   -0.66765  -0.65297  -0.64579  -0.63498  -0.61111
  Beta  occ. eigenvalues --   -0.53404  -0.52120  -0.50942  -0.50385  -0.46935
  Beta  occ. eigenvalues --   -0.43866  -0.43385  -0.41533  -0.39058  -0.38628
  Beta  occ. eigenvalues --   -0.35921  -0.34785  -0.34112  -0.33798  -0.32902
  Beta  occ. eigenvalues --   -0.32479  -0.32094  -0.30600  -0.29134  -0.27964
  Beta  occ. eigenvalues --   -0.26890  -0.26094  -0.25129  -0.24564  -0.24413
  Beta  occ. eigenvalues --   -0.21279  -0.16229  -0.16105  -0.15422  -0.11238
  Beta  occ. eigenvalues --   -0.09574
  Beta virt. eigenvalues --    0.06319   0.06995   0.07576   0.07696   0.07835
  Beta virt. eigenvalues --    0.08226   0.08580   0.08678   0.09338   0.09633
  Beta virt. eigenvalues --    0.09985   0.10119   0.10919   0.11334   0.12549

 Mulliken charges and spin densities:
               1          2
     1  C    0.072859  -0.426413
     2  C    0.030409  -0.038259
     3  N   -0.018649   0.044276
     4  C    0.413618  -0.711357
     5  C   -1.617153   1.025299
     6  C    0.481921  -0.766845
     7  C    0.543461  -0.784290
     8  C   -0.990424   0.871222
     9  C    1.458071  -0.899358
    10  N   -0.034598   0.068768
    11  C    0.159867  -0.450588
    12  C   -0.249511  -0.171876
    13  C    0.265186  -0.474932
    14  C    0.041017  -0.431929
    15  C   -0.662718   0.421192
    16  C    0.277838   0.222835
    17  H   -0.175424   0.304379
    18  H    0.129499  -0.011095
    19  H   -0.172899   0.471224
    20  H   -0.887728   1.055205
    21  H   -0.305835   0.463950
    22  H    0.003335   0.126761
    23  H   -0.072022   0.235227
    24  H    0.412577  -0.297362
    25  H    0.125329   0.161208
    26  H   -0.253305   0.389997
    27  H   -0.175031   0.340376
    28  H   -0.038619   0.158692
    29  H    0.078551   0.079511
    30  H    0.160379   0.024183
 Sum of Mulliken charges =  -1.00000   1.00000

 Dipole moment (field-independent basis, Debye):
    X=             -4.5369    Y=             -2.6214    Z=             -2.4328  Tot=              5.7770
 Quadrupole moment (field-independent basis, Debye-Ang):
   XX=           -173.9089   YY=           -141.2950   ZZ=           -120.3120
   XY=            -11.9161   XZ=              0.4112   YZ=             -0.5889

 Summary of Natural Population Analysis:

                                       Natural Population
                Natural  -----------------------------------------------
    Atom  No    Charge         Core      Valence    Rydberg      Total
 -----------------------------------------------------------------------
      C    1   -0.25038      0.99953     2.24301    0.00784     3.25038
      C    2    0.18942      0.99950     1.79654    0.01454     2.81058
      N    3   -0.31958      0.99965     2.80666    0.01327     3.81958
      C    4    0.08815      0.99947     1.90013    0.01225     2.91185
      C    5   -0.11273      0.99952     2.10244    0.01077     3.11273
      C    6   -0.09688      0.99957     2.08651    0.01081     3.09688
      C    7   -0.11683      0.99956     2.10750    0.00977     3.11683
      C    8   -0.09530      0.99957     2.08628    0.00944     3.09530
      C    9   -0.12280      0.99952     2.11535    0.00794     3.12280
      N   10   -0.30892      0.99964     2.79847    0.01081     3.80892
      C   11    0.09337      0.99948     1.89567    0.01149     2.90663
      C   12   -0.12068      0.99953     2.11091    0.01023     3.12068
      C   13   -0.09362      0.99957     2.08365    0.01041     3.09362
      C   14   -0.12226      0.99956     2.11271    0.00999     3.12226
      C   15   -0.09581      0.99957     2.08681    0.00942     3.09581
      C   16   -0.12652      0.99952     2.11959    0.00741     3.12652
      H   17    0.09981      0.00000     0.39933    0.00086     0.40019
      H   18    0.09818      0.00000     0.40095    0.00087     0.40182
      H   19    0.20067      0.00000     0.29013    0.00920     0.29933
      H   20    0.10515      0.00000     0.39195    0.00289     0.39485
      H   21    0.10012      0.00000     0.39875    0.00113     0.39988
      H   22    0.09783      0.00000     0.40133    0.00083     0.40217
      H   23    0.09831      0.00000     0.40089    0.00080     0.40169
      H   24    0.10777      0.00000     0.39039    0.00183     0.39223
      H   25    0.19626      0.00000     0.30070    0.00304     0.30374
      H   26    0.10114      0.00000     0.39767    0.00118     0.39886
      H   27    0.09968      0.00000     0.39938    0.00094     0.40032
      H   28    0.09808      0.00000     0.40108    0.00083     0.40192
      H   29    0.09719      0.00000     0.40204    0.00077     0.40281
      H   30    0.11114      0.00000     0.38764    0.00122     0.38886
 =======================================================================
   * Total *   -0.00000     15.99275    39.81447    0.19278    56.00000

 Normal termination of Gaussian 16 at Thu Dec 10 23:49:58 2020.
