 Gaussian 16, Revision A.03,

 -----------------------------------------------------------
 # opt freq B3LYP/6-31G(d) empiricaldispersion=gd3bj scf=xqc
 -----------------------------------------------------------

 -------------------------------
 CID_105250930_JID_7134_neutraal
 -------------------------------
 Symbolic Z-matrix:
 Charge =  0 Multiplicity = 1

 SCF Done:  E(RB3LYP) =  -731.479732639     A.U. after   13 cycles
 SCF Done:  E(RB3LYP) =  -731.488200769     A.U. after   12 cycles
 SCF Done:  E(RB3LYP) =  -731.489735664     A.U. after   11 cycles
 SCF Done:  E(RB3LYP) =  -731.490096375     A.U. after   11 cycles
 SCF Done:  E(RB3LYP) =  -731.490246252     A.U. after   11 cycles
 SCF Done:  E(RB3LYP) =  -731.490371938     A.U. after   11 cycles
 SCF Done:  E(RB3LYP) =  -731.490473118     A.U. after   10 cycles
 SCF Done:  E(RB3LYP) =  -731.490587003     A.U. after   11 cycles
 SCF Done:  E(RB3LYP) =  -731.490638615     A.U. after   11 cycles
 SCF Done:  E(RB3LYP) =  -731.490610205     A.U. after    9 cycles
 SCF Done:  E(RB3LYP) =  -731.494919962     A.U. after    9 cycles
 SCF Done:  E(RB3LYP) =  -731.494918315     A.U. after    9 cycles
 SCF Done:  E(RB3LYP) =  -731.494921190     A.U. after    9 cycles
 SCF Done:  E(RB3LYP) =  -731.494921301     A.U. after    7 cycles
 SCF Done:  E(RB3LYP) =  -731.494921319     A.U. after    6 cycles
 Optimization completed.
    -- Stationary point found.
 Normal termination of Gaussian 16 at Sun Dec 13 12:51:37 2020.

 --------------------------------------------------------------------
 #N Geom=AllCheck Guess=TCheck SCRF=Check GenChk RB3LYP/6-31G(d) Freq
 --------------------------------------------------------------------

 Structure from the checkpoint file:  "JID_7134.chk"
 -------------------------------
 CID_105250930_JID_7134_neutraal
 -------------------------------
 Charge =  0 Multiplicity = 1

 SCF Done:  E(RB3LYP) =  -731.494921319     A.U. after    1 cycles

  Exact polarizability: 203.467  15.167 134.220   1.165   4.414 141.439
 Approx polarizability: 261.811  28.795 183.783  -1.380  10.686 245.226

                      1                      2                      3
                      A                      A                      A
 Frequencies --     31.1815                39.1204                48.0062
 Red. masses --      2.5368                 3.6060                 3.4886
 Frc consts  --      0.0015                 0.0033                 0.0047
 IR Inten    --      0.0798                 0.0304                 0.9886

                      4                      5                      6
                      A                      A                      A
 Frequencies --     64.6045               100.8117               107.0198
 Red. masses --      3.7796                 3.2322                 3.5006
 Frc consts  --      0.0093                 0.0194                 0.0236
 IR Inten    --      0.1039                 1.0769                 5.0503

                      7                      8                      9
                      A                      A                      A
 Frequencies --    133.4153               145.8568               199.9460
 Red. masses --      3.3468                 3.4320                 2.2197
 Frc consts  --      0.0351                 0.0430                 0.0523
 IR Inten    --      1.4230                 4.9554                 2.9822

                     10                     11                     12
                      A                      A                      A
 Frequencies --    223.6291               243.9502               252.9080
 Red. masses --      1.3321                 2.6313                 2.0017
 Frc consts  --      0.0393                 0.0923                 0.0754
 IR Inten    --      0.6290                 9.5920                 6.1606

                     13                     14                     15
                      A                      A                      A
 Frequencies --    281.3814               293.0018               312.0227
 Red. masses --      1.8056                 2.9100                 2.4861
 Frc consts  --      0.0842                 0.1472                 0.1426
 IR Inten    --      1.0680                 1.9359                13.1789

                     16                     17                     18
                      A                      A                      A
 Frequencies --    329.1850               349.7677               367.1892
 Red. masses --      1.6980                 1.5715                 2.1388
 Frc consts  --      0.1084                 0.1133                 0.1699
 IR Inten    --      1.1795                32.1966                 4.6171

                     19                     20                     21
                      A                      A                      A
 Frequencies --    395.6685               416.1489               422.3209
 Red. masses --      2.4158                 3.3251                 3.4092
 Frc consts  --      0.2228                 0.3393                 0.3582
 IR Inten    --      4.0774                 0.6404                 0.5690

                     22                     23                     24
                      A                      A                      A
 Frequencies --    467.9048               496.0648               559.6549
 Red. masses --      3.6880                 3.5427                 3.0558
 Frc consts  --      0.4757                 0.5136                 0.5639
 IR Inten    --      0.8741                 6.9482                 5.5465

                     25                     26                     27
                      A                      A                      A
 Frequencies --    600.1952               608.6791               653.2077
 Red. masses --      2.5447                 2.2173                 5.6185
 Frc consts  --      0.5401                 0.4840                 1.4124
 IR Inten    --      7.2893                 0.9477                 0.8040

                     28                     29                     30
                      A                      A                      A
 Frequencies --    683.1110               753.0387               755.7673
 Red. masses --      3.5065                 2.9751                 3.1277
 Frc consts  --      0.9641                 0.9940                 1.0526
 IR Inten    --      2.2871                17.1167                26.6482

                     31                     32                     33
                      A                      A                      A
 Frequencies --    783.4550               800.7944               801.1583
 Red. masses --      3.6170                 1.2163                 2.2367
 Frc consts  --      1.3080                 0.4595                 0.8459
 IR Inten    --      6.3588                 6.0849                60.1741

                     34                     35                     36
                      A                      A                      A
 Frequencies --    849.6709               855.6727               862.3146
 Red. masses --      1.7137                 1.2876                 2.3403
 Frc consts  --      0.7289                 0.5555                 1.0253
 IR Inten    --     17.4771                 0.8715                16.7450

                     37                     38                     39
                      A                      A                      A
 Frequencies --    881.6501               900.6525               931.0387
 Red. masses --      2.5052                 1.5997                 2.0137
 Frc consts  --      1.1473                 0.7645                 1.0284
 IR Inten    --      8.4046                 4.9784                 4.4358

                     40                     41                     42
                      A                      A                      A
 Frequencies --    939.1938               948.6942               956.8428
 Red. masses --      2.6313                 1.9722                 1.3887
 Frc consts  --      1.3675                 1.0458                 0.7491
 IR Inten    --     13.4139                 7.6788                15.7880

                     43                     44                     45
                      A                      A                      A
 Frequencies --    961.6276               971.4769               981.9004
 Red. masses --      1.3833                 1.6255                 2.3447
 Frc consts  --      0.7537                 0.9038                 1.3319
 IR Inten    --     11.3594                31.9468                 2.7117

                     46                     47                     48
                      A                      A                      A
 Frequencies --   1020.2652              1025.0464              1046.7603
 Red. masses --      2.0983                 1.4551                 2.8027
 Frc consts  --      1.2869                 0.9008                 1.8094
 IR Inten    --      4.6425                 2.8323                 3.6373

                     49                     50                     51
                      A                      A                      A
 Frequencies --   1077.9352              1087.6544              1094.0044
 Red. masses --      1.5524                 4.1001                 1.9141
 Frc consts  --      1.0627                 2.8577                 1.3497
 IR Inten    --      6.2878                94.0938                11.7491

                     52                     53                     54
                      A                      A                      A
 Frequencies --   1104.2579              1143.3896              1155.0206
 Red. masses --      2.1109                 1.9873                 1.4259
 Frc consts  --      1.5165                 1.5307                 1.1207
 IR Inten    --     10.2569                28.2634                12.7064

                     55                     56                     57
                      A                      A                      A
 Frequencies --   1185.7412              1199.7434              1205.6546
 Red. masses --      2.0765                 1.8929                 1.7024
 Frc consts  --      1.7201                 1.6053                 1.4580
 IR Inten    --     16.2929                12.1449                 7.7822

                     58                     59                     60
                      A                      A                      A
 Frequencies --   1221.0948              1236.6597              1241.7247
 Red. masses --      1.1523                 2.5500                 1.9044
 Frc consts  --      1.0123                 2.2977                 1.7300
 IR Inten    --      2.3910                11.9829                10.3746

                     61                     62                     63
                      A                      A                      A
 Frequencies --   1242.7874              1252.9092              1280.4128
 Red. masses --      2.0968                 1.8747                 1.3266
 Frc consts  --      1.9081                 1.7339                 1.2814
 IR Inten    --      0.3814                 2.3583                 8.3968

                     64                     65                     66
                      A                      A                      A
 Frequencies --   1287.2274              1323.1916              1327.2740
 Red. masses --      1.3526                 1.3287                 1.9241
 Frc consts  --      1.3205                 1.3707                 1.9971
 IR Inten    --      0.5372                 0.1029                 0.2746

                     67                     68                     69
                      A                      A                      A
 Frequencies --   1334.4983              1350.4869              1366.5255
 Red. masses --      1.2843                 1.5030                 1.4155
 Frc consts  --      1.3475                 1.6151                 1.5574
 IR Inten    --     12.8439                 3.1778                 6.2076

                     70                     71                     72
                      A                      A                      A
 Frequencies --   1369.4469              1373.3425              1384.5351
 Red. masses --      1.5384                 1.5499                 1.7901
 Frc consts  --      1.6998                 1.7223                 2.0217
 IR Inten    --      7.5861                 3.9081                 0.5432

                     73                     74                     75
                      A                      A                      A
 Frequencies --   1409.8312              1434.0421              1435.3512
 Red. masses --      1.3387                 1.2673                 1.2200
 Frc consts  --      1.5677                 1.5355                 1.4809
 IR Inten    --      2.7250                 7.0735                 1.3766

                     76                     77                     78
                      A                      A                      A
 Frequencies --   1469.6818              1510.4713              1515.8580
 Red. masses --      2.4958                 1.0640                 1.1684
 Frc consts  --      3.1762                 1.4303                 1.5818
 IR Inten    --      5.0502                 1.7303                 5.8593

                     79                     80                     81
                      A                      A                      A
 Frequencies --   1517.7670              1521.3556              1525.6606
 Red. masses --      1.0650                 1.0809                 1.0409
 Frc consts  --      1.4455                 1.4741                 1.4275
 IR Inten    --      0.6733                 2.1210                 7.1691

                     82                     83                     84
                      A                      A                      A
 Frequencies --   1530.2724              1536.1369              1538.3555
 Red. masses --      1.0886                 1.0587                 1.0821
 Frc consts  --      1.5020                 1.4719                 1.5088
 IR Inten    --      3.4018                 4.2655                 1.9629

                     85                     86                     87
                      A                      A                      A
 Frequencies --   1555.9693              1566.7376              1633.2803
 Red. masses --      1.1093                 2.4310                 6.0954
 Frc consts  --      1.5824                 3.5158                 9.5802
 IR Inten    --      1.0415                13.3809                 0.1766

                     88                     89                     90
                      A                      A                      A
 Frequencies --   1677.1421              1711.4951              3027.6737
 Red. masses --      5.8295                 1.0791                 1.0675
 Frc consts  --      9.6610                 1.8623                 5.7658
 IR Inten    --      0.4040                10.1690                44.9636

                     91                     92                     93
                      A                      A                      A
 Frequencies --   3042.4054              3047.7230              3056.6118
 Red. masses --      1.0598                 1.0346                 1.0355
 Frc consts  --      5.7799                 5.6618                 5.7000
 IR Inten    --     35.0625                39.7568                18.9519

                     94                     95                     96
                      A                      A                      A
 Frequencies --   3064.4077              3076.8291              3086.7150
 Red. masses --      1.0637                 1.1038                 1.0622
 Frc consts  --      5.8851                 6.1568                 5.9629
 IR Inten    --     24.8325                11.2327                14.9055

                     97                     98                     99
                      A                      A                      A
 Frequencies --   3094.2826              3099.2127              3116.4131
 Red. masses --      1.0841                 1.0960                 1.1034
 Frc consts  --      6.1154                 6.2026                 6.3136
 IR Inten    --     11.3822                54.4776                18.9313

                    100                    101                    102
                      A                      A                      A
 Frequencies --   3117.2820              3123.0172              3123.2663
 Red. masses --      1.1027                 1.1034                 1.1019
 Frc consts  --      6.3132                 6.3407                 6.3332
 IR Inten    --     55.1905                33.0151                36.2976

                    103                    104                    105
                      A                      A                      A
 Frequencies --   3135.1373              3136.9408              3166.3252
 Red. masses --      1.1033                 1.1049                 1.0864
 Frc consts  --      6.3894                 6.4061                 6.4173
 IR Inten    --     26.8443                26.5968                15.5488

                    106                    107                    108
                      A                      A                      A
 Frequencies --   3171.2870              3184.3050              3223.4915
 Red. masses --      1.0890                 1.0941                 1.0917
 Frc consts  --      6.4526                 6.5362                 6.6835
 IR Inten    --     22.7723                23.0929                 8.0939

                    109                    110                    111
                      A                      A                      A
 Frequencies --   3420.5172              3459.4563              3533.5214
 Red. masses --      1.0519                 1.0735                 1.0913
 Frc consts  --      7.2510                 7.5697                 8.0278
 IR Inten    --     28.4455                 0.5886                 0.7930

 - Thermochemistry -
 -------------------
 Temperature   298.150 Kelvin.  Pressure   1.00000 Atm.
 Atom     1 has atomic number  6 and mass  12.00000

 Molecular mass:   234.17321 amu.
 Principal axes and moments of inertia in atomic units:
                           1         2         3
     Eigenvalues --  2260.308316367.384137402.22336
           X            0.99999  -0.00052   0.00522
           Y            0.00055   0.99998  -0.00641
           Z           -0.00521   0.00641   0.99997
 This molecule is an asymmetric top.
 Rotational symmetry number  1.
 Warning -- assumption of classical behavior for rotation
           may cause significant error
 Rotational temperatures (Kelvin)      0.03832     0.01360     0.01170
 Rotational constants (GHZ):           0.79845     0.28344     0.24381
 Zero-point vibrational energy     910924.7 (Joules/Mol)
                                  217.71623 (Kcal/Mol)
 Warning -- explicit consideration of  26 degrees of freedom as
           vibrations may cause significant error
 Vibrational temperatures:     44.86    56.29    69.07    92.95   145.05
          (Kelvin)            153.98   191.95   209.86   287.68   321.75
                              350.99   363.88   404.85   421.56   448.93
                              473.62   503.24   528.30   569.28   598.75
                              607.63   673.21   713.73   805.22   863.55
                              875.75   939.82   982.84  1083.45  1087.38
                             1127.22  1152.16  1152.69  1222.49  1231.12
                             1240.68  1268.50  1295.84  1339.56  1351.29
                             1364.96  1376.68  1383.57  1397.74  1412.74
                             1467.93  1474.81  1506.05  1550.91  1564.89
                             1574.03  1588.78  1645.08  1661.82  1706.02
                             1726.16  1734.67  1756.88  1779.28  1786.56
                             1788.09  1802.66  1842.23  1852.03  1903.78
                             1909.65  1920.05  1943.05  1966.13  1970.33
                             1975.93  1992.04  2028.43  2063.27  2065.15
                             2114.54  2173.23  2180.98  2183.73  2188.89
                             2195.09  2201.72  2210.16  2213.35  2238.69
                             2254.19  2349.93  2413.03  2462.46  4356.15
                             4377.34  4384.99  4397.78  4409.00  4426.87
                             4441.09  4451.98  4459.08  4483.82  4485.07
                             4493.33  4493.68  4510.76  4513.36  4555.64
                             4562.77  4581.50  4637.89  4921.36  4977.39
                             5083.95

 Zero-point correction=                           0.346953 (Hartree/Particle)
 Thermal correction to Energy=                    0.364064
 Thermal correction to Enthalpy=                  0.365008
 Thermal correction to Gibbs Free Energy=         0.301508
 Sum of electronic and zero-point Energies=           -731.147968
 Sum of electronic and thermal Energies=              -731.130857
 Sum of electronic and thermal Enthalpies=            -731.129913
 Sum of electronic and thermal Free Energies=         -731.193413

                     E (Thermal)             CV                S
                      KCal/Mol        Cal/Mol-Kelvin    Cal/Mol-Kelvin
 Total                  228.454             66.226            133.648
 Electronic               0.000              0.000              0.000
 Translational            0.889              2.981             42.254
 Rotational               0.889              2.981             33.032
 Vibrational            226.676             60.264             58.361
 Vibration     1          0.594              1.983              5.753
 Vibration     2          0.594              1.981              5.303
 Vibration     3          0.595              1.978              4.898
 Vibration     4          0.597              1.971              4.311
 Vibration     5          0.604              1.948              3.439
 Vibration     6          0.606              1.944              3.322
 Vibration     7          0.613              1.920              2.896
 Vibration     8          0.617              1.907              2.726
 Vibration     9          0.638              1.840              2.134
 Vibration    10          0.649              1.805              1.930
 Vibration    11          0.659              1.773              1.774
 Vibration    12          0.664              1.758              1.710
 Vibration    13          0.681              1.708              1.525
 Vibration    14          0.688              1.687              1.457
 Vibration    15          0.700              1.651              1.352
 Vibration    16          0.712              1.617              1.264
 Vibration    17          0.727              1.576              1.167
 Vibration    18          0.740              1.540              1.092
 Vibration    19          0.762              1.479              0.979
 Vibration    20          0.779              1.435              0.905
 Vibration    21          0.785              1.422              0.884
 Vibration    22          0.825              1.321              0.743
 Vibration    23          0.852              1.259              0.668
 Vibration    24          0.915              1.119              0.525
 Vibration    25          0.958              1.031              0.449
 Vibration    26          0.968              1.013              0.435

 Optimization completed.
    -- Stationary point found.
 Normal termination of Gaussian 16 at Sun Dec 13 13:06:59 2020.

 ----------------------------------------------------------------------
 # B3LYP/6-311++G(d,p) empiricaldispersion=gd3bj scf=xqc pop=npa geom=c
 heck
 ----------------------------------------------------------------------

 ---------------------------------------
 CID_105250930_JID_7134_Energie_neutraal
 ---------------------------------------
 Structure from the checkpoint file:  "JID_7134.chk"
 Charge =  0 Multiplicity = 1

 SCF Done:  E(RB3LYP) =  -731.702953966     A.U. after   14 cycles
 Normal termination of Gaussian 16 at Sun Dec 13 13:14:57 2020.

 ----------------------------------------------------------------------
 # B3LYP/6-311++G(d,p) empiricaldispersion=gd3bj scf=xqc pop=npa geom=c
 heck
 ----------------------------------------------------------------------

 -------------------------------------
 CID_105250930_JID_7134_Energie_kation
 -------------------------------------
 Structure from the checkpoint file:  "JID_7134.chk"
 Charge =  1 Multiplicity = 2

 SCF Done:  E(UB3LYP) =  -731.412900402     A.U. after   30 cycles
 Normal termination of Gaussian 16 at Sun Dec 13 13:39:23 2020.
 Gaussian 16:  ES64L-G16RevA.03 25-Dec-2016

 ----------------------------------------------------------------------
 # B3LYP/6-311++G(d,p) empiricaldispersion=gd3bj scf=xqc pop=npa geom=c
 heck
 ----------------------------------------------------------------------

 ------------------------------------
 CID_105250930_JID_7134_Energie_anion
 ------------------------------------
 Structure from the checkpoint file:  "JID_7134.chk"
 Charge = -1 Multiplicity = 2

                         Standard orientation:
 ---------------------------------------------------------------------
 Center     Atomic      Atomic             Coordinates (Angstroms)
 Number     Number       Type             X           Y           Z
 ---------------------------------------------------------------------
      1          6           0       -5.341517    0.542994   -0.269941
      2          6           0       -4.429887   -0.669959   -0.021199
      3          6           0       -2.973860   -0.278712    0.082520
      4          6           0       -2.171026   -0.180222   -1.061612
      5          6           0       -0.842775    0.229154   -0.979852
      6          6           0       -0.267273    0.551023    0.256147
      7          6           0       -1.069587    0.461704    1.397220
      8          6           0       -2.400667    0.051661    1.313753
      9          6           0        1.186257    0.977395    0.368206
     10          6           0        2.168176   -0.224274    0.229779
     11          6           0        1.852033   -1.408402    1.172481
     12          6           0        2.085861   -2.638611    0.283801
     13          6           0        1.618181   -2.119392   -1.074638
     14          8           0        2.033843   -0.752400   -1.117198
     15          6           0        3.626776    0.220705    0.377322
     16          7           0        1.463906    2.051093   -0.599453
     17          7           0        2.369175    3.031939   -0.087800
     18          1           0       -5.249872    1.270075    0.544466
     19          1           0       -6.392397    0.240327   -0.343665
     20          1           0       -5.065021    1.051908   -1.199938
     21          1           0       -4.743060   -1.175442    0.900851
     22          1           0       -4.560647   -1.393590   -0.835694
     23          1           0       -2.596470   -0.428242   -2.031942
     24          1           0       -0.242175    0.292725   -1.880147
     25          1           0       -0.646517    0.715915    2.366653
     26          1           0       -3.002757   -0.009328    2.217847
     27          1           0        1.340663    1.424811    1.354427
     28          1           0        2.485305   -1.393989    2.064401
     29          1           0        0.808997   -1.377562    1.496583
     30          1           0        1.531429   -3.521096    0.617070
     31          1           0        3.150045   -2.897932    0.245454
     32          1           0        0.524510   -2.184148   -1.164072
     33          1           0        2.072010   -2.634947   -1.927130
     34          1           0        3.935299    0.814785   -0.488192
     35          1           0        3.774661    0.815244    1.284529
     36          1           0        4.284198   -0.654162    0.417189
     37          1           0        1.796465    1.635638   -1.469462
     38          1           0        3.335940    2.835975   -0.353161
     39          1           0        2.112940    3.920642   -0.511630
 ---------------------------------------------------------------------

 SCF Done:  E(UB3LYP) =  -731.688721098     A.U. after   33 cycles
 SCF Done:  E(UB3LYP) =  -731.688721098     a.u. after    1 cycles

 The electronic state is 2-A.
 Alpha  occ. eigenvalues --  -19.02531 -14.22678 -14.22424 -10.13422 -10.11941
 Alpha  occ. eigenvalues --  -10.10428 -10.08381 -10.08033 -10.08020 -10.07901
 Alpha  occ. eigenvalues --  -10.07793 -10.07656 -10.07625 -10.07573 -10.07397
 Alpha  occ. eigenvalues --  -10.07144 -10.06458  -0.94270  -0.86582  -0.76768
 Alpha  occ. eigenvalues --   -0.72387  -0.69504  -0.68767  -0.66212  -0.65032
 Alpha  occ. eigenvalues --   -0.63133  -0.58574  -0.56369  -0.52747  -0.51444
 Alpha  occ. eigenvalues --   -0.50621  -0.48038  -0.45933  -0.43039  -0.41308
 Alpha  occ. eigenvalues --   -0.39910  -0.39309  -0.38549  -0.37674  -0.36367
 Alpha  occ. eigenvalues --   -0.35844  -0.33836  -0.33461  -0.33334  -0.32312
 Alpha  occ. eigenvalues --   -0.31421  -0.30561  -0.30134  -0.29577  -0.28672
 Alpha  occ. eigenvalues --   -0.27213  -0.26300  -0.26058  -0.25856  -0.24923
 Alpha  occ. eigenvalues --   -0.24587  -0.23926  -0.23333  -0.22679  -0.16965
 Alpha  occ. eigenvalues --   -0.16617  -0.15977  -0.14293  -0.13526   0.04105
 Alpha virt. eigenvalues --    0.05391   0.06401   0.07090   0.07610   0.07934
 Alpha virt. eigenvalues --    0.07962   0.08372   0.08530   0.08790   0.09589
 Alpha virt. eigenvalues --    0.09820   0.09992   0.10680   0.11406   0.11748

  Beta  occ. eigenvalues --  -19.02525 -14.22648 -14.22410 -10.13420 -10.11928
  Beta  occ. eigenvalues --  -10.10426 -10.08371 -10.08017 -10.08003 -10.07880
  Beta  occ. eigenvalues --  -10.07793 -10.07640 -10.07616 -10.07563 -10.07394
  Beta  occ. eigenvalues --  -10.07118 -10.06425  -0.94259  -0.86552  -0.76744
  Beta  occ. eigenvalues --   -0.72351  -0.69477  -0.68732  -0.66169  -0.65012
  Beta  occ. eigenvalues --   -0.63088  -0.58523  -0.56331  -0.52702  -0.51420
  Beta  occ. eigenvalues --   -0.50578  -0.48003  -0.45902  -0.42998  -0.41278
  Beta  occ. eigenvalues --   -0.39879  -0.39270  -0.38522  -0.37638  -0.36337
  Beta  occ. eigenvalues --   -0.35808  -0.33809  -0.33433  -0.33311  -0.32293
  Beta  occ. eigenvalues --   -0.31382  -0.30536  -0.30106  -0.29537  -0.28643
  Beta  occ. eigenvalues --   -0.27176  -0.26272  -0.26025  -0.25829  -0.24894
  Beta  occ. eigenvalues --   -0.24556  -0.23908  -0.23306  -0.22663  -0.16934
  Beta  occ. eigenvalues --   -0.16591  -0.15947  -0.14237  -0.13485
  Beta virt. eigenvalues --    0.06013   0.06374   0.07039   0.07431   0.07945
  Beta virt. eigenvalues --    0.08042   0.08163   0.08682   0.08860   0.09119
  Beta virt. eigenvalues --    0.09804   0.10260   0.10325   0.11050   0.11658

 Mulliken charges and spin densities:
               1          2
     1  C    0.553074  -1.197934
     2  C    0.262797  -0.713768
     3  C    0.244863   0.579483
     4  C   -1.220852   0.463042
     5  C   -0.257250  -0.215112
     6  C    1.652691  -1.096833
     7  C   -0.419376   0.143986
     8  C   -0.652818   0.105580
     9  C    0.156325  -0.655495
    10  C   -1.474192   1.995089
    11  C   -0.503687  -0.033013
    12  C    0.567844  -0.950525
    13  C   -0.199675  -0.019934
    14  O   -0.091127   0.016292
    15  C    1.865680  -2.372477
    16  N    0.057302   0.026969
    17  N   -0.454218   0.051515
    18  H    0.028214   0.113028
    19  H   -0.276121   0.407785
    20  H    0.030343   0.110864
    21  H   -0.255253   0.408654
    22  H   -0.210078   0.359480
    23  H   -0.103079   0.275371
    24  H    0.000730   0.182101
    25  H   -0.129869   0.266238
    26  H   -0.189280   0.364658
    27  H    0.292690  -0.065908
    28  H   -0.266174   0.434815
    29  H    0.447261  -0.261305
    30  H   -0.259341   0.428444
    31  H    0.057477   0.084246
    32  H    0.337877  -0.197374
    33  H   -0.287097   0.447746
    34  H   -0.355955   0.505990
    35  H   -0.059416   0.234396
    36  H   -0.137887   0.295442
    37  H    0.181461   0.068203
    38  H    0.003642   0.205543
    39  H    0.062475   0.204721
 Sum of Mulliken charges =  -1.00000   1.00000

 Dipole moment (field-independent basis, Debye):
    X=              0.5465    Y=              0.1863    Z=             -0.0969  Tot=              0.5855
 Quadrupole moment (field-independent basis, Debye-Ang):
   XX=           -213.3194   YY=           -150.2647   ZZ=           -137.0650
   XY=             -4.8514   XZ=              0.8111   YZ=              1.1986

 Summary of Natural Population Analysis:

                                       Natural Population
                Natural  -----------------------------------------------
    Atom  No    Charge         Core      Valence    Rydberg      Total
 -----------------------------------------------------------------------
      C    1   -0.28019      0.99966     2.27526    0.00527     3.28019
      C    2   -0.19781      0.99961     2.18884    0.00937     3.19781
      C    3   -0.01600      0.99951     2.00604    0.01046     3.01600
      C    4   -0.09998      0.99951     2.09127    0.00920     3.09998
      C    5   -0.09376      0.99950     2.08550    0.00875     3.09376
      C    6   -0.01137      0.99948     1.99966    0.01223     3.01137
      C    7   -0.10004      0.99951     2.09171    0.00882     3.10004
      C    8   -0.09884      0.99950     2.09068    0.00865     3.09884
      C    9   -0.02610      0.99947     2.00978    0.01684     3.02610
      C   10    0.13914      0.99952     1.84364    0.01770     2.86086
      C   11   -0.20496      0.99957     2.19692    0.00847     3.20496
      C   12   -0.20243      0.99964     2.19533    0.00746     3.20243
      C   13   -0.00848      0.99958     1.99710    0.01180     3.00848
      O   14   -0.31989      0.99988     3.31075    0.00926     4.31989
      C   15   -0.29331      0.99960     2.28590    0.00782     3.29331
      N   16   -0.25649      0.99973     2.74234    0.01442     3.75649
      N   17   -0.32872      0.99976     2.81707    0.01189     3.82872
      H   18    0.09700      0.00000     0.40207    0.00093     0.40300
      H   19    0.09812      0.00000     0.40056    0.00131     0.40188
      H   20    0.09687      0.00000     0.40221    0.00093     0.40313
      H   21    0.09977      0.00000     0.39879    0.00144     0.40023
      H   22    0.09932      0.00000     0.39933    0.00135     0.40068
      H   23    0.09790      0.00000     0.40083    0.00127     0.40210
      H   24    0.10604      0.00000     0.39233    0.00163     0.39396
      H   25    0.09842      0.00000     0.40024    0.00135     0.40158
      H   26    0.09935      0.00000     0.39965    0.00101     0.40065
      H   27    0.10814      0.00000     0.38978    0.00208     0.39186
      H   28    0.10481      0.00000     0.39413    0.00105     0.39519
      H   29    0.10756      0.00000     0.39073    0.00171     0.39244
      H   30    0.10312      0.00000     0.39589    0.00098     0.39688
      H   31    0.09757      0.00000     0.40102    0.00141     0.40243
      H   32    0.08248      0.00000     0.41591    0.00161     0.41752
      H   33    0.08835      0.00000     0.41047    0.00118     0.41165
      H   34    0.10076      0.00000     0.39752    0.00172     0.39924
      H   35    0.10207      0.00000     0.39672    0.00121     0.39793
      H   36    0.10287      0.00000     0.39573    0.00140     0.39713
      H   37    0.16998      0.00000     0.32634    0.00368     0.33002
      H   38    0.16630      0.00000     0.33169    0.00202     0.33370
      H   39    0.17247      0.00000     0.32583    0.00170     0.32753
 =======================================================================
   * Total *    0.00000     16.99303    46.79557    0.21140    64.00000

 Normal termination of Gaussian 16 at Sun Dec 13 14:04:51 2020.
