 Gaussian 16, Revision A.03,

 -----------------------------------------------------------
 # opt freq B3LYP/6-31G(d) empiricaldispersion=gd3bj scf=xqc
 -----------------------------------------------------------

 -------------------------------
 CID_147643358_JID_4628_neutraal
 -------------------------------
 Symbolic Z-matrix:
 Charge =  0 Multiplicity = 1

 SCF Done:  E(RB3LYP) =  -594.840800094     A.U. after   14 cycles
 SCF Done:  E(RB3LYP) =  -594.848278964     A.U. after   13 cycles
 SCF Done:  E(RB3LYP) =  -594.849766660     A.U. after   12 cycles
 SCF Done:  E(RB3LYP) =  -594.850851683     A.U. after   13 cycles
 SCF Done:  E(RB3LYP) =  -594.851691264     A.U. after   14 cycles
 SCF Done:  E(RB3LYP) =  -594.852777508     A.U. after   13 cycles
 SCF Done:  E(RB3LYP) =  -594.854744471     A.U. after   15 cycles
 SCF Done:  E(RB3LYP) =  -594.855649584     A.U. after   13 cycles
 SCF Done:  E(RB3LYP) =  -594.859664862     A.U. after   12 cycles
 SCF Done:  E(RB3LYP) =  -594.864608061     A.U. after   14 cycles
 SCF Done:  E(RB3LYP) =  -594.866430768     A.U. after   11 cycles
 SCF Done:  E(RB3LYP) =  -594.866435894     A.U. after   10 cycles
 SCF Done:  E(RB3LYP) =  -594.866436719     A.U. after    8 cycles
 SCF Done:  E(RB3LYP) =  -594.866436929     A.U. after    8 cycles
 SCF Done:  E(RB3LYP) =  -594.866437021     A.U. after    7 cycles
 SCF Done:  E(RB3LYP) =  -594.866437051     A.U. after    7 cycles
 Optimization completed.
    -- Stationary point found.
 Normal termination of Gaussian 16 at Thu Dec 10 10:21:44 2020.

 --------------------------------------------------------------------
 #N Geom=AllCheck Guess=TCheck SCRF=Check GenChk RB3LYP/6-31G(d) Freq
 --------------------------------------------------------------------

 Structure from the checkpoint file:  "JID_4628.chk"
 -------------------------------
 CID_147643358_JID_4628_neutraal
 -------------------------------
 Charge =  0 Multiplicity = 1

 SCF Done:  E(RB3LYP) =  -594.866437051     A.U. after    1 cycles

  Exact polarizability: 187.435  16.980 161.805 -20.269 -10.389  99.959
 Approx polarizability: 266.857  37.953 249.231 -38.632 -27.062 149.885

                      1                      2                      3
                      A                      A                      A
 Frequencies --     19.1802                32.3877                75.5821
 Red. masses --      3.7554                 3.6662                 2.0997
 Frc consts  --      0.0008                 0.0023                 0.0071
 IR Inten    --      0.0743                 0.2431                 1.0774

                      4                      5                      6
                      A                      A                      A
 Frequencies --     78.4130               108.3660               124.4751
 Red. masses --      2.7539                 3.1428                 2.9536
 Frc consts  --      0.0100                 0.0217                 0.0270
 IR Inten    --      2.9283                 1.1451                 1.4329

                      7                      8                      9
                      A                      A                      A
 Frequencies --    161.7445               182.0376               209.6318
 Red. masses --      2.9433                 2.3756                 3.1070
 Frc consts  --      0.0454                 0.0464                 0.0804
 IR Inten    --      0.8387                 7.2339                 7.2540

                     10                     11                     12
                      A                      A                      A
 Frequencies --    254.9261               262.7238               271.5677
 Red. masses --      1.7793                 2.6448                 1.6161
 Frc consts  --      0.0681                 0.1076                 0.0702
 IR Inten    --      0.8780                 1.9759                 2.4834

                     13                     14                     15
                      A                      A                      A
 Frequencies --    313.4941               325.7650               390.2849
 Red. masses --      2.0152                 2.4715                 3.1353
 Frc consts  --      0.1167                 0.1545                 0.2814
 IR Inten    --      3.0501                 1.4464                 1.4834

                     16                     17                     18
                      A                      A                      A
 Frequencies --    402.6469               417.8822               488.5002
 Red. masses --      2.7739                 2.5982                 3.0996
 Frc consts  --      0.2650                 0.2673                 0.4358
 IR Inten    --      5.9565                 1.6567                 1.0500

                     19                     20                     21
                      A                      A                      A
 Frequencies --    517.4155               539.0542               577.6888
 Red. masses --      3.8743                 2.7155                 3.2592
 Frc consts  --      0.6111                 0.4649                 0.6408
 IR Inten    --      6.8848                 4.9189                 6.2748

                     22                     23                     24
                      A                      A                      A
 Frequencies --    615.5622               721.6670               725.4973
 Red. masses --      1.9391                 2.0176                 2.2304
 Frc consts  --      0.4329                 0.6191                 0.6917
 IR Inten    --     12.8199                21.9573                10.2745

                     25                     26                     27
                      A                      A                      A
 Frequencies --    750.9880               780.2389               805.3902
 Red. masses --      1.8524                 1.6479                 2.2470
 Frc consts  --      0.6155                 0.5911                 0.8587
 IR Inten    --     36.3541               114.8683                42.2352

                     28                     29                     30
                      A                      A                      A
 Frequencies --    812.9666               827.3500               862.8957
 Red. masses --      1.5992                 1.2051                 1.4065
 Frc consts  --      0.6227                 0.4860                 0.6170
 IR Inten    --     28.9161                 0.6756                17.6557

                     31                     32                     33
                      A                      A                      A
 Frequencies --    866.6916               912.5565               922.4883
 Red. masses --      2.0228                 2.5107                 2.4045
 Frc consts  --      0.8952                 1.2319                 1.2056
 IR Inten    --      9.2884                 0.9834                 2.5732

                     34                     35                     36
                      A                      A                      A
 Frequencies --    953.9370               966.2734               981.9578
 Red. masses --      1.3834                 1.5762                 1.2280
 Frc consts  --      0.7417                 0.8671                 0.6977
 IR Inten    --     21.9749                59.8460                 0.4959

                     37                     38                     39
                      A                      A                      A
 Frequencies --   1033.4701              1052.0973              1059.8685
 Red. masses --      2.2906                 2.1210                 2.4966
 Frc consts  --      1.4415                 1.3832                 1.6523
 IR Inten    --      3.0610                 2.7237                 4.1354

                     40                     41                     42
                      A                      A                      A
 Frequencies --   1071.2164              1087.0388              1132.3094
 Red. masses --      2.3281                 2.0346                 2.0887
 Frc consts  --      1.5740                 1.4165                 1.5778
 IR Inten    --     22.0893                34.7762                 8.2033

                     43                     44                     45
                      A                      A                      A
 Frequencies --   1148.5381              1180.9547              1190.1420
 Red. masses --      2.0459                 2.4570                 1.6442
 Frc consts  --      1.5901                 2.0190                 1.3721
 IR Inten    --     25.0955                44.0720                17.7236

                     46                     47                     48
                      A                      A                      A
 Frequencies --   1201.2052              1206.7675              1215.1457
 Red. masses --      1.1350                 1.2272                 2.0940
 Frc consts  --      0.9649                 1.0530                 1.8217
 IR Inten    --      0.1791                 9.8392                 8.0236

                     49                     50                     51
                      A                      A                      A
 Frequencies --   1256.4940              1268.3462              1291.8501
 Red. masses --      1.9319                 1.3401                 1.3793
 Frc consts  --      1.7970                 1.2702                 1.3562
 IR Inten    --    113.4611               105.0394                 6.0332

                     52                     53                     54
                      A                      A                      A
 Frequencies --   1295.6153              1342.2690              1352.2409
 Red. masses --      1.2885                 1.2302                 1.6023
 Frc consts  --      1.2743                 1.3059                 1.7263
 IR Inten    --      3.1455                16.9629                16.4296

                     55                     56                     57
                      A                      A                      A
 Frequencies --   1376.5429              1389.0271              1407.4439
 Red. masses --      1.5710                 1.3702                 1.2539
 Frc consts  --      1.7539                 1.5576                 1.4635
 IR Inten    --      7.9849                35.4681                 8.8840

                     58                     59                     60
                      A                      A                      A
 Frequencies --   1414.6395              1418.2472              1442.0571
 Red. masses --      1.4584                 1.5610                 1.3216
 Frc consts  --      1.7196                 1.8500                 1.6193
 IR Inten    --      3.0784                 2.3595                 9.5998

                     61                     62                     63
                      A                      A                      A
 Frequencies --   1475.0025              1485.7056              1500.0946
 Red. masses --      2.5778                 1.4662                 1.0925
 Frc consts  --      3.3043                 1.9068                 1.4485
 IR Inten    --     42.1357                22.0900                 9.9825

                     64                     65                     66
                      A                      A                      A
 Frequencies --   1508.6470              1514.5220              1514.9364
 Red. masses --      1.1632                 1.1933                 1.0983
 Frc consts  --      1.5598                 1.6127                 1.4852
 IR Inten    --      3.7688                 6.0270                 8.5152

                     67                     68                     69
                      A                      A                      A
 Frequencies --   1517.6771              1528.5602              1531.2620
 Red. masses --      1.2199                 1.0441                 1.1042
 Frc consts  --      1.6555                 1.4374                 1.5254
 IR Inten    --      6.0979                 6.8018                 4.4702

                     70                     71                     72
                      A                      A                      A
 Frequencies --   1537.5697              1551.7461              1627.1080
 Red. masses --      1.1560                 1.0922                 3.3426
 Frc consts  --      1.6102                 1.5495                 5.2140
 IR Inten    --     31.6798                 2.9783               140.0043

                     73                     74                     75
                      A                      A                      A
 Frequencies --   1685.6175              1720.0542              2930.4193
 Red. masses --      4.9100                 5.7442                 1.0729
 Frc consts  --      8.2196                10.0131                 5.4286
 IR Inten    --      6.3669                86.5153               102.9612

                     76                     77                     78
                      A                      A                      A
 Frequencies --   2986.0420              2991.8466              3000.2490
 Red. masses --      1.0740                 1.0743                 1.0698
 Frc consts  --      5.6422                 5.6659                 5.6735
 IR Inten    --     30.4713                61.1160                48.0290

                     79                     80                     81
                      A                      A                      A
 Frequencies --   3034.3355              3046.1012              3050.4195
 Red. masses --      1.0638                 1.0589                 1.0632
 Frc consts  --      5.7706                 5.7891                 5.8286
 IR Inten    --     57.0383                17.0513                42.0197

                     82                     83                     84
                      A                      A                      A
 Frequencies --   3069.0701              3079.2846              3081.2415
 Red. masses --      1.0673                 1.1007                 1.0803
 Frc consts  --      5.9231                 6.1494                 6.0430
 IR Inten    --     15.6140                43.7837                39.3112

                     85                     86                     87
                      A                      A                      A
 Frequencies --   3082.0316              3111.6519              3126.0765
 Red. masses --      1.0895                 1.1001                 1.0887
 Frc consts  --      6.0973                 6.2758                 6.2685
 IR Inten    --     42.0906                51.3112                24.0184

                     88                     89                     90
                      A                      A                      A
 Frequencies --   3133.4562              3179.2349              3181.4332
 Red. masses --      1.1029                 1.1092                 1.0856
 Frc consts  --      6.3801                 6.6054                 6.4739
 IR Inten    --     31.6209                35.3291                 4.4568

                     91                     92                     93
                      A                      A                      A
 Frequencies --   3203.4736              3472.0209              3496.8907
 Red. masses --      1.0965                 1.0727                 1.0736
 Frc consts  --      6.6297                 7.6188                 7.7346
 IR Inten    --     28.9505                 0.9868                13.9529

 - Thermochemistry -
 -------------------
 Temperature   298.150 Kelvin.  Pressure   1.00000 Atm.
 Atom     1 has atomic number  6 and mass  12.00000

 Molecular mass:   193.15790 amu.
 Principal axes and moments of inertia in atomic units:
                           1         2         3
     Eigenvalues --  1726.886045068.219766053.61929
           X            0.99999   0.00434   0.00063
           Y           -0.00435   0.99993   0.01057
           Z           -0.00058  -0.01057   0.99994
 This molecule is an asymmetric top.
 Rotational symmetry number  1.
 Warning -- assumption of classical behavior for rotation
           may cause significant error
 Rotational temperatures (Kelvin)      0.05016     0.01709     0.01431
 Rotational constants (GHZ):           1.04508     0.35609     0.29813
 Zero-point vibrational energy     771875.7 (Joules/Mol)
                                  184.48271 (Kcal/Mol)
 Warning -- explicit consideration of  22 degrees of freedom as
           vibrations may cause significant error
 Vibrational temperatures:     27.60    46.60   108.75   112.82   155.91
          (Kelvin)            179.09   232.71   261.91   301.61   366.78
                              378.00   390.73   451.05   468.70   561.53
                              579.32   601.24   702.84   744.45   775.58
                              831.17   885.66  1038.32  1043.83  1080.50
                             1122.59  1158.78  1169.68  1190.37  1241.51
                             1246.98  1312.97  1327.25  1372.50  1390.25
                             1412.82  1486.93  1513.73  1524.91  1541.24
                             1564.01  1629.14  1652.49  1699.13  1712.35
                             1728.27  1736.27  1748.32  1807.81  1824.87
                             1858.68  1864.10  1931.23  1945.57  1980.54
                             1998.50  2025.00  2035.35  2040.54  2074.80
                             2122.20  2137.60  2158.30  2170.61  2179.06
                             2179.66  2183.60  2199.26  2203.14  2212.22
                             2232.62  2341.05  2425.23  2474.77  4216.22
                             4296.25  4304.60  4316.69  4365.73  4382.66
                             4388.87  4415.71  4430.40  4433.22  4434.36
                             4476.97  4497.73  4508.34  4574.21  4577.37
                             4609.08  4995.46  5031.25

 Zero-point correction=                           0.293992 (Hartree/Particle)
 Thermal correction to Energy=                    0.308803
 Thermal correction to Enthalpy=                  0.309748
 Thermal correction to Gibbs Free Energy=         0.250663
 Sum of electronic and zero-point Energies=           -594.572445
 Sum of electronic and thermal Energies=              -594.557634
 Sum of electronic and thermal Enthalpies=            -594.556690
 Sum of electronic and thermal Free Energies=         -594.615774

                     E (Thermal)             CV                S
                      KCal/Mol        Cal/Mol-Kelvin    Cal/Mol-Kelvin
 Total                  193.777             55.600            124.354
 Electronic               0.000              0.000              0.000
 Translational            0.889              2.981             41.680
 Rotational               0.889              2.981             32.338
 Vibrational            192.000             49.639             50.336
 Vibration     1          0.593              1.986              6.717
 Vibration     2          0.594              1.983              5.678
 Vibration     3          0.599              1.965              4.002
 Vibration     4          0.600              1.964              3.930
 Vibration     5          0.606              1.943              3.298
 Vibration     6          0.610              1.929              3.030
 Vibration     7          0.622              1.889              2.529
 Vibration     8          0.630              1.864              2.307
 Vibration     9          0.642              1.826              2.047
 Vibration    10          0.665              1.754              1.696
 Vibration    11          0.670              1.741              1.644
 Vibration    12          0.675              1.726              1.586
 Vibration    13          0.701              1.648              1.344
 Vibration    14          0.710              1.624              1.281
 Vibration    15          0.758              1.491              0.999
 Vibration    16          0.768              1.464              0.953
 Vibration    17          0.781              1.431              0.899
 Vibration    18          0.844              1.276              0.688
 Vibration    19          0.872              1.211              0.616
 Vibration    20          0.894              1.164              0.567
 Vibration    21          0.934              1.080              0.490
 Vibration    22          0.975              0.999              0.424

                           ! Non-Optimized Parameters !
 Normal termination of Gaussian 16 at Thu Dec 10 10:31:28 2020.

 ----------------------------------------------------------------------
 # B3LYP/6-311++G(d,p) empiricaldispersion=gd3bj scf=xqc pop=npa geom=c
 heck
 ----------------------------------------------------------------------

 ---------------------------------------
 CID_147643358_JID_4628_Energie_neutraal
 ---------------------------------------
 Structure from the checkpoint file:  "JID_4628.chk"
 Charge =  0 Multiplicity = 1

 SCF Done:  E(RB3LYP) =  -595.035262323     A.U. after   14 cycles
 Normal termination of Gaussian 16 at Thu Dec 10 10:36:12 2020.

 ----------------------------------------------------------------------
 # B3LYP/6-311++G(d,p) empiricaldispersion=gd3bj scf=xqc pop=npa geom=c
 heck
 ----------------------------------------------------------------------

 -------------------------------------
 CID_147643358_JID_4628_Energie_kation
 -------------------------------------
 Structure from the checkpoint file:  "JID_4628.chk"
 Charge =  1 Multiplicity = 2

 SCF Done:  E(UB3LYP) =  -594.781051514     A.U. after   26 cycles
 Normal termination of Gaussian 16 at Thu Dec 10 10:48:17 2020.
 Gaussian 16:  ES64L-G16RevA.03 25-Dec-2016

 ----------------------------------------------------------------------
 # B3LYP/6-311++G(d,p) empiricaldispersion=gd3bj scf=xqc pop=npa geom=c
 heck
 ----------------------------------------------------------------------

 ------------------------------------
 CID_147643358_JID_4628_Energie_anion
 ------------------------------------
 Structure from the checkpoint file:  "JID_4628.chk"
 Charge = -1 Multiplicity = 2

                         Standard orientation:
 ---------------------------------------------------------------------
 Center     Atomic      Atomic             Coordinates (Angstroms)
 Number     Number       Type             X           Y           Z
 ---------------------------------------------------------------------
      1          6           0       -4.229186   -1.088242   -1.393430
      2          6           0       -3.634272   -0.541798   -0.098955
      3          7           0       -3.129627    0.813499   -0.301939
      4          6           0       -2.542812    1.427890    0.882428
      5          6           0       -1.216838    0.806521    1.349418
      6          7           0       -0.231875    0.876215    0.270382
      7          6           0        0.804397   -0.039549    0.170610
      8          6           0        2.075426    0.361442   -0.168180
      9          6           0        3.136589   -0.679579   -0.454112
     10          6           0        2.923308   -1.957364    0.372475
     11          6           0        1.477930   -2.380160    0.385937
     12          6           0        0.499789   -1.465489    0.307954
     13          7           0        2.266864    1.722964   -0.342421
     14          6           0        3.342413    2.219884   -0.833076
     15          1           0       -5.017503   -0.423840   -1.760748
     16          1           0       -4.650564   -2.087891   -1.240940
     17          1           0       -3.461328   -1.165347   -2.173396
     18          1           0       -4.410831   -0.494084    0.676290
     19          1           0       -2.870833   -1.252403    0.273126
     20          1           0       -2.407928    0.791201   -1.023054
     21          1           0       -2.374766    2.491612    0.664411
     22          1           0       -3.272500    1.385203    1.700971
     23          1           0       -0.856636    1.319561    2.256296
     24          1           0       -1.364635   -0.240894    1.622615
     25          1           0        0.137003    1.814023    0.120672
     26          1           0        4.129902   -0.276616   -0.227177
     27          1           0        3.144606   -0.926246   -1.529030
     28          1           0        3.560111   -2.764526   -0.006425
     29          1           0        3.242556   -1.775899    1.411982
     30          1           0        1.237244   -3.434282    0.498954
     31          1           0       -0.544476   -1.763339    0.326520
     32          1           0        4.202372    1.631402   -1.170860
     33          1           0        3.420211    3.302280   -0.928768
 ---------------------------------------------------------------------

 SCF Done:  E(UB3LYP) =  -595.036230684     A.U. after   31 cycles

 The electronic state is 2-A.
 Alpha  occ. eigenvalues --  -14.18924 -14.17324 -14.14688 -10.09439 -10.08450
 Alpha  occ. eigenvalues --  -10.07633 -10.06988 -10.04291 -10.03870 -10.03262
 Alpha  occ. eigenvalues --  -10.02553 -10.02550 -10.01942 -10.01516  -0.81002
 Alpha  occ. eigenvalues --   -0.78848  -0.75502  -0.68361  -0.65808  -0.61226
 Alpha  occ. eigenvalues --   -0.59547  -0.56850  -0.52193  -0.50213  -0.48873
 Alpha  occ. eigenvalues --   -0.46193  -0.42067  -0.38910  -0.37563  -0.36745
 Alpha  occ. eigenvalues --   -0.35198  -0.34842  -0.33761  -0.32323  -0.31019
 Alpha  occ. eigenvalues --   -0.30110  -0.29109  -0.28435  -0.27953  -0.26450
 Alpha  occ. eigenvalues --   -0.25719  -0.25303  -0.24886  -0.24139  -0.23537
 Alpha  occ. eigenvalues --   -0.22025  -0.20989  -0.18625  -0.17310  -0.12416
 Alpha  occ. eigenvalues --   -0.11652  -0.09834  -0.04550   0.04978
 Alpha virt. eigenvalues --    0.06798   0.08027   0.08882   0.09215   0.10084
 Alpha virt. eigenvalues --    0.10298   0.10906   0.11443   0.11524   0.12079
 Alpha virt. eigenvalues --    0.12617   0.12739   0.13532   0.13600   0.14421

  Beta  occ. eigenvalues --  -14.18921 -14.17276 -14.14579 -10.09434 -10.08444
  Beta  occ. eigenvalues --  -10.07607 -10.06984 -10.04043 -10.03899 -10.03249
  Beta  occ. eigenvalues --  -10.02518 -10.02200 -10.01952 -10.01130  -0.80929
  Beta  occ. eigenvalues --   -0.78656  -0.75161  -0.68047  -0.65770  -0.61078
  Beta  occ. eigenvalues --   -0.59288  -0.56632  -0.52149  -0.49966  -0.48480
  Beta  occ. eigenvalues --   -0.45925  -0.41692  -0.38798  -0.37396  -0.36692
  Beta  occ. eigenvalues --   -0.34965  -0.34741  -0.33692  -0.32168  -0.30922
  Beta  occ. eigenvalues --   -0.29933  -0.28936  -0.28331  -0.27896  -0.26380
  Beta  occ. eigenvalues --   -0.25597  -0.25280  -0.24664  -0.23817  -0.23444
  Beta  occ. eigenvalues --   -0.21866  -0.20254  -0.18385  -0.16169  -0.12297
  Beta  occ. eigenvalues --   -0.10814  -0.09660  -0.03141
  Beta virt. eigenvalues --    0.06797   0.08068   0.08740   0.09109   0.10041
  Beta virt. eigenvalues --    0.10128   0.10353   0.11088   0.11357   0.11472
  Beta virt. eigenvalues --    0.12050   0.12577   0.12667   0.13496   0.13767

 Mulliken charges and spin densities:
               1          2
     1  C   -0.349611  -0.177685
     2  C   -0.161059  -0.077400
     3  N   -0.100731   0.011658
     4  C   -0.114321  -0.279385
     5  C   -0.027707  -0.146980
     6  N    0.025016  -0.012230
     7  C   -0.465767   0.431396
     8  C   -0.185871  -0.003041
     9  C   -0.221154  -0.052728
    10  C   -0.461955  -0.054018
    11  C   -0.146782   0.163135
    12  C    0.204081  -0.079154
    13  N   -0.120724   0.012647
    14  C   -0.371962   0.383689
    15  H    0.123116   0.023551
    16  H    0.035917   0.078042
    17  H    0.119722   0.018372
    18  H    0.008328   0.140239
    19  H    0.086797   0.003120
    20  H    0.227403   0.006874
    21  H    0.141774   0.021417
    22  H   -0.035071   0.144527
    23  H   -0.062094   0.216335
    24  H    0.031444   0.104812
    25  H    0.282093  -0.021832
    26  H    0.023932   0.077860
    27  H    0.091921  -0.007983
    28  H    0.104336  -0.000725
    29  H    0.052607   0.079665
    30  H    0.108857   0.016100
    31  H    0.007687   0.002638
    32  H    0.046861  -0.016716
    33  H    0.102916  -0.006198
 Sum of Mulliken charges =  -1.00000   1.00000

 Dipole moment (field-independent basis, Debye):
    X=             -4.3312    Y=             -2.0800    Z=             -0.0361  Tot=              4.8049
 Quadrupole moment (field-independent basis, Debye-Ang):
   XX=           -138.6346   YY=           -114.1558   ZZ=           -104.9486
   XY=             -5.8797   XZ=              0.2347   YZ=              1.8887

 Summary of Natural Population Analysis:

                                       Natural Population
                Natural  -----------------------------------------------
    Atom  No    Charge         Core      Valence    Rydberg      Total
 -----------------------------------------------------------------------
      C    1   -0.28722      0.99967     2.28280    0.00475     3.28722
      C    2   -0.08859      0.99965     2.07915    0.00979     3.08859
      N    3   -0.34679      0.99975     2.83385    0.01320     3.84679
      C    4   -0.08795      0.99963     2.07708    0.01124     3.08795
      C    5   -0.09494      0.99962     2.08440    0.01092     3.09494
      N    6   -0.32551      0.99967     2.81446    0.01138     3.82551
      C    7    0.12782      0.99944     1.85885    0.01390     2.87218
      C    8    0.03026      0.99944     1.95473    0.01557     2.96974
      C    9   -0.19922      0.99961     2.19176    0.00785     3.19922
      C   10   -0.20575      0.99963     2.19755    0.00857     3.20575
      C   11   -0.00398      0.99956     1.99409    0.01033     3.00398
      C   12   -0.13799      0.99951     2.12972    0.00876     3.13799
      N   13   -0.24058      0.99966     2.72775    0.01317     3.74058
      C   14    0.00407      0.99968     1.98066    0.01559     2.99593
      H   15    0.09719      0.00000     0.40149    0.00133     0.40281
      H   16    0.09537      0.00000     0.40362    0.00101     0.40463
      H   17    0.09663      0.00000     0.40217    0.00120     0.40337
      H   18    0.08466      0.00000     0.41372    0.00162     0.41534
      H   19    0.08048      0.00000     0.41768    0.00185     0.41952
      H   20    0.17840      0.00000     0.31834    0.00326     0.32160
      H   21    0.08957      0.00000     0.40913    0.00130     0.41043
      H   22    0.08769      0.00000     0.41095    0.00136     0.41231
      H   23    0.08340      0.00000     0.41459    0.00202     0.41660
      H   24    0.09516      0.00000     0.40306    0.00178     0.40484
      H   25    0.19520      0.00000     0.30152    0.00328     0.30480
      H   26    0.09783      0.00000     0.39973    0.00243     0.40217
      H   27    0.08868      0.00000     0.40901    0.00232     0.41132
      H   28    0.09219      0.00000     0.40641    0.00140     0.40781
      H   29    0.09910      0.00000     0.39902    0.00188     0.40090
      H   30    0.08260      0.00000     0.41632    0.00108     0.41740
      H   31    0.08937      0.00000     0.40780    0.00283     0.41063
      H   32    0.05654      0.00000     0.44158    0.00188     0.44346
      H   33    0.06632      0.00000     0.43247    0.00121     0.43368
 =======================================================================
   * Total *    0.00000     13.99451    38.81541    0.19008    53.00000

 Normal termination of Gaussian 16 at Thu Dec 10 11:03:03 2020.
