 Gaussian 16, Revision A.03,

 -----------------------------------------------------------
 # opt freq B3LYP/6-31G(d) empiricaldispersion=gd3bj scf=xqc
 -----------------------------------------------------------

 ------------------------------
 CID_88766103_JID_4432_neutraal
 ------------------------------
 Symbolic Z-matrix:
 Charge =  0 Multiplicity = 1

 SCF Done:  E(RB3LYP) =  -977.429021128     A.U. after   15 cycles
 SCF Done:  E(RB3LYP) =  -977.445338412     A.U. after   13 cycles
 SCF Done:  E(RB3LYP) =  -977.448182470     A.U. after   13 cycles
 SCF Done:  E(RB3LYP) =  -977.449717298     A.U. after   12 cycles
 SCF Done:  E(RB3LYP) =  -977.452258576     A.U. after   12 cycles
 SCF Done:  E(RB3LYP) =  -977.453206322     A.U. after   12 cycles
 SCF Done:  E(RB3LYP) =  -977.453103106     A.U. after   12 cycles
 SCF Done:  E(RB3LYP) =  -977.453949407     A.U. after   12 cycles
 SCF Done:  E(RB3LYP) =  -977.454342811     A.U. after   12 cycles
 SCF Done:  E(RB3LYP) =  -977.454513653     A.U. after   12 cycles
 SCF Done:  E(RB3LYP) =  -977.454574132     A.U. after   10 cycles
 SCF Done:  E(RB3LYP) =  -977.454609691     A.U. after   10 cycles
 SCF Done:  E(RB3LYP) =  -977.454618627     A.U. after   11 cycles
 SCF Done:  E(RB3LYP) =  -977.454621374     A.U. after    9 cycles
 SCF Done:  E(RB3LYP) =  -977.454623778     A.U. after    9 cycles
 Optimization completed.
    -- Stationary point found.
 Normal termination of Gaussian 16 at Thu Dec 10 09:47:23 2020.

 --------------------------------------------------------------------
 #N Geom=AllCheck Guess=TCheck SCRF=Check GenChk RB3LYP/6-31G(d) Freq
 --------------------------------------------------------------------

 Structure from the checkpoint file:  "JID_4432.chk"
 ------------------------------
 CID_88766103_JID_4432_neutraal
 ------------------------------
 Charge =  0 Multiplicity = 1

 SCF Done:  E(RB3LYP) =  -977.454623778     A.U. after    1 cycles

  Exact polarizability: 153.137   1.513 155.022   0.188   5.831 104.188
 Approx polarizability: 221.009  11.339 255.284  -1.565  20.128 177.674

                      1                      2                      3
                      A                      A                      A
 Frequencies --     55.1784                72.2115               116.7962
 Red. masses --      3.1504                 4.3305                 4.4227
 Frc consts  --      0.0057                 0.0133                 0.0355
 IR Inten    --      0.1597                 0.8918                 0.8670

                      4                      5                      6
                      A                      A                      A
 Frequencies --    144.2505               176.6109               189.8676
 Red. masses --      3.8634                 1.7225                 1.2819
 Frc consts  --      0.0474                 0.0317                 0.0272
 IR Inten    --      0.3511                 1.6124                 0.3166

                      7                      8                      9
                      A                      A                      A
 Frequencies --    197.9898               232.9040               246.5046
 Red. masses --      1.2839                 1.5821                 2.5053
 Frc consts  --      0.0297                 0.0506                 0.0897
 IR Inten    --      0.7829                 0.3974                11.8131

                     10                     11                     12
                      A                      A                      A
 Frequencies --    253.4993               282.9331               304.4214
 Red. masses --      2.1645                 2.6254                 2.3231
 Frc consts  --      0.0820                 0.1238                 0.1268
 IR Inten    --      5.8429                17.8600                10.8927

                     13                     14                     15
                      A                      A                      A
 Frequencies --    327.6274               341.2841               347.0466
 Red. masses --      3.5020                 1.6963                 1.9908
 Frc consts  --      0.2215                 0.1164                 0.1413
 IR Inten    --     31.6543                39.3134                 6.4628

                     16                     17                     18
                      A                      A                      A
 Frequencies --    357.5123               377.1771               386.2031
 Red. masses --      1.6848                 2.3411                 2.8010
 Frc consts  --      0.1269                 0.1962                 0.2462
 IR Inten    --     10.3770                31.5185                 4.6097

                     19                     20                     21
                      A                      A                      A
 Frequencies --    403.3595               426.9072               430.3824
 Red. masses --      2.6910                 1.7871                 1.9701
 Frc consts  --      0.2580                 0.1919                 0.2150
 IR Inten    --     10.2350                32.3556                37.3384

                     22                     23                     24
                      A                      A                      A
 Frequencies --    466.1540               502.8831               526.8734
 Red. masses --      6.4360                 5.1608                 4.0629
 Frc consts  --      0.8240                 0.7689                 0.6645
 IR Inten    --      0.7849                15.9035                36.1726

                     25                     26                     27
                      A                      A                      A
 Frequencies --    560.2315               595.5180               606.4068
 Red. masses --      3.4968                 3.8846                 4.5439
 Frc consts  --      0.6466                 0.8117                 0.9845
 IR Inten    --      1.8739                 5.6571                35.0044

                     28                     29                     30
                      A                      A                      A
 Frequencies --    629.7670               745.5437               756.0564
 Red. masses --      5.0342                 6.6789                 5.3101
 Frc consts  --      1.1764                 2.1873                 1.7884
 IR Inten    --      4.4524                 2.1373                31.1164

                     31                     32                     33
                      A                      A                      A
 Frequencies --    791.4662               866.9094               908.6602
 Red. masses --      3.8685                 1.4054                 2.8732
 Frc consts  --      1.4278                 0.6223                 1.3977
 IR Inten    --      2.7946                18.4830                12.2415

                     34                     35                     36
                      A                      A                      A
 Frequencies --    933.2503               936.4780               955.6260
 Red. masses --      2.8318                 1.9117                 1.8632
 Frc consts  --      1.4531                 0.9878                 1.0025
 IR Inten    --      4.5899                 1.6394                 0.9390

                     37                     38                     39
                      A                      A                      A
 Frequencies --    978.7704              1013.1624              1046.2359
 Red. masses --      1.1916                 1.3014                 1.4979
 Frc consts  --      0.6726                 0.7871                 0.9660
 IR Inten    --      0.6313                10.8069                50.9030

                     40                     41                     42
                      A                      A                      A
 Frequencies --   1061.8590              1063.7545              1079.5517
 Red. masses --      1.4117                 1.3978                 1.5068
 Frc consts  --      0.9378                 0.9319                 1.0347
 IR Inten    --      1.3900                 2.1029                 2.1755

                     43                     44                     45
                      A                      A                      A
 Frequencies --   1148.5312              1174.8446              1206.2224
 Red. masses --      2.1259                 2.1204                 2.1869
 Frc consts  --      1.6523                 1.7244                 1.8747
 IR Inten    --     87.1353                43.8024               166.8040

                     46                     47                     48
                      A                      A                      A
 Frequencies --   1213.0694              1238.3342              1256.7359
 Red. masses --      2.4864                 2.6507                 3.0200
 Frc consts  --      2.1558                 2.3949                 2.8102
 IR Inten    --     53.4344                11.9712                11.5705

                     49                     50                     51
                      A                      A                      A
 Frequencies --   1272.7039              1299.0010              1323.6502
 Red. masses --      2.0502                 3.6044                 1.3321
 Frc consts  --      1.9566                 3.5835                 1.3751
 IR Inten    --      8.5985                51.6410                73.3725

                     52                     53                     54
                      A                      A                      A
 Frequencies --   1397.0881              1424.3236              1435.2426
 Red. masses --      2.2748                 1.9017                 1.4250
 Frc consts  --      2.6160                 2.2731                 1.7295
 IR Inten    --     55.8683                17.0529                 1.4977

                     55                     56                     57
                      A                      A                      A
 Frequencies --   1437.6655              1444.9406              1452.0739
 Red. masses --      1.1991                 1.2488                 2.5905
 Frc consts  --      1.4603                 1.5362                 3.2182
 IR Inten    --      5.9148                 2.2428                26.4071

                     58                     59                     60
                      A                      A                      A
 Frequencies --   1468.2733              1504.7226              1509.3084
 Red. masses --      1.2810                 1.0449                 1.0486
 Frc consts  --      1.6271                 1.3939                 1.4074
 IR Inten    --     11.3102                 6.8058                 0.2670

                     61                     62                     63
                      A                      A                      A
 Frequencies --   1518.1440              1518.8718              1522.0891
 Red. masses --      1.0523                 1.0885                 1.0523
 Frc consts  --      1.4289                 1.4796                 1.4363
 IR Inten    --      0.3110                27.4136                 0.7635

                     64                     65                     66
                      A                      A                      A
 Frequencies --   1539.1507              1542.1925              1553.2719
 Red. masses --      1.0867                 1.0530                 1.0597
 Frc consts  --      1.5168                 1.4755                 1.5064
 IR Inten    --      3.7569                 7.2998                 8.7620

                     67                     68                     69
                      A                      A                      A
 Frequencies --   1623.3436              1717.2592              3048.1054
 Red. masses --      6.7897                 7.4133                 1.0357
 Frc consts  --     10.5420                12.8805                 5.6694
 IR Inten    --     82.9089                 4.2322                22.2345

                     70                     71                     72
                      A                      A                      A
 Frequencies --   3050.4517              3056.9009              3057.3920
 Red. masses --      1.0354                 1.0365                 1.0362
 Frc consts  --      5.6768                 5.7064                 5.7068
 IR Inten    --     23.4886                29.8559                14.7268

                     73                     74                     75
                      A                      A                      A
 Frequencies --   3107.9313              3112.2056              3113.2906
 Red. masses --      1.1016                 1.1001                 1.1016
 Frc consts  --      6.2693                 6.2781                 6.2907
 IR Inten    --      9.9183                12.0974                25.4193

                     76                     77                     78
                      A                      A                      A
 Frequencies --   3117.0052              3125.3482              3129.7674
 Red. masses --      1.1008                 1.1021                 1.1023
 Frc consts  --      6.3012                 6.3424                 6.3616
 IR Inten    --     53.7152                36.3480                12.0229

                     79                     80                     81
                      A                      A                      A
 Frequencies --   3135.9085              3142.1303              3203.1245
 Red. masses --      1.1023                 1.1034                 1.0878
 Frc consts  --      6.3867                 6.4182                 6.5755
 IR Inten    --     32.5197                17.3601                 4.8264

                     82                     83                     84
                      A                      A                      A
 Frequencies --   3214.0200              3713.7997              3809.6183
 Red. masses --      1.0913                 1.0650                 1.0646
 Frc consts  --      6.6421                 8.6548                 9.1035
 IR Inten    --      5.8148                26.6122                58.5010

 - Thermochemistry -
 -------------------
 Temperature   298.150 Kelvin.  Pressure   1.00000 Atm.
 Atom     1 has atomic number  6 and mass  12.00000

 Molecular mass:   212.08710 amu.
 Principal axes and moments of inertia in atomic units:
                           1         2         3
     Eigenvalues --  2343.092143166.524664549.85524
           X            0.99609  -0.08829   0.00204
           Y            0.08831   0.99593  -0.01824
           Z           -0.00042   0.01834   0.99983
 This molecule is an asymmetric top.
 Rotational symmetry number  1.
 Warning -- assumption of classical behavior for rotation
           may cause significant error
 Rotational temperatures (Kelvin)      0.03697     0.02735     0.01904
 Rotational constants (GHZ):           0.77024     0.56994     0.39666
 Zero-point vibrational energy     661378.7 (Joules/Mol)
                                  158.07330 (Kcal/Mol)
 Warning -- explicit consideration of  27 degrees of freedom as
           vibrations may cause significant error
 Vibrational temperatures:     79.39   103.90   168.04   207.54   254.10
          (Kelvin)            273.18   284.86   335.10   354.67   364.73
                              407.08   437.99   471.38   491.03   499.32
                              514.38   542.67   555.66   580.34   614.22
                              619.22   670.69   723.54   758.05   806.05
                              856.82   872.48   906.09  1072.67  1087.80
                             1138.74  1247.29  1307.36  1342.74  1347.38
                             1374.93  1408.23  1457.71  1505.30  1527.78
                             1530.51  1553.23  1652.48  1690.34  1735.48
                             1745.34  1781.69  1808.16  1831.14  1868.97
                             1904.44  2010.10  2049.28  2064.99  2068.48
                             2078.95  2089.21  2112.52  2164.96  2171.56
                             2184.27  2185.32  2189.95  2214.49  2218.87
                             2234.81  2335.63  2470.75  4385.54  4388.92
                             4398.20  4398.91  4471.62  4477.77  4479.33
                             4484.68  4496.68  4503.04  4511.87  4520.82
                             4608.58  4624.26  5343.33  5481.19

 Zero-point correction=                           0.251906 (Hartree/Particle)
 Thermal correction to Energy=                    0.267042
 Thermal correction to Enthalpy=                  0.267986
 Thermal correction to Gibbs Free Energy=         0.211370
 Sum of electronic and zero-point Energies=           -977.202718
 Sum of electronic and thermal Energies=              -977.187582
 Sum of electronic and thermal Enthalpies=            -977.186638
 Sum of electronic and thermal Free Energies=         -977.243254

                     E (Thermal)             CV                S
                      KCal/Mol        Cal/Mol-Kelvin    Cal/Mol-Kelvin
 Total                  167.571             59.031            119.160
 Electronic               0.000              0.000              0.000
 Translational            0.889              2.981             41.959
 Rotational               0.889              2.981             31.890
 Vibrational            165.794             53.069             45.310
 Vibration     1          0.596              1.976              4.623
 Vibration     2          0.598              1.967              4.092
 Vibration     3          0.608              1.935              3.153
 Vibration     4          0.616              1.909              2.747
 Vibration     5          0.628              1.871              2.364
 Vibration     6          0.633              1.854              2.229
 Vibration     7          0.637              1.843              2.152
 Vibration     8          0.654              1.791              1.856
 Vibration     9          0.661              1.769              1.755
 Vibration    10          0.665              1.757              1.706
 Vibration    11          0.682              1.705              1.516
 Vibration    12          0.695              1.665              1.392
 Vibration    13          0.711              1.620              1.272
 Vibration    14          0.721              1.593              1.206
 Vibration    15          0.725              1.581              1.180
 Vibration    16          0.733              1.560              1.133
 Vibration    17          0.748              1.519              1.050
 Vibration    18          0.755              1.500              1.015
 Vibration    19          0.769              1.463              0.950
 Vibration    20          0.789              1.412              0.869
 Vibration    21          0.792              1.404              0.857
 Vibration    22          0.824              1.325              0.748
 Vibration    23          0.858              1.244              0.651
 Vibration    24          0.882              1.191              0.594
 Vibration    25          0.916              1.117              0.523
 Vibration    26          0.953              1.041              0.457
 Vibration    27          0.965              1.018              0.439

                           ! Non-Optimized Parameters !
 Normal termination of Gaussian 16 at Thu Dec 10 09:56:07 2020.

 ----------------------------------------------------------------------
 # B3LYP/6-311++G(d,p) empiricaldispersion=gd3bj scf=xqc pop=npa geom=c
 heck
 ----------------------------------------------------------------------

 --------------------------------------
 CID_88766103_JID_4432_Energie_neutraal
 --------------------------------------
 Structure from the checkpoint file:  "JID_4432.chk"
 Charge =  0 Multiplicity = 1

 SCF Done:  E(RB3LYP) =  -977.655589210     A.U. after   16 cycles
 Normal termination of Gaussian 16 at Thu Dec 10 09:59:53 2020.

 ----------------------------------------------------------------------
 # B3LYP/6-311++G(d,p) empiricaldispersion=gd3bj scf=xqc pop=npa geom=c
 heck
 ----------------------------------------------------------------------

 ------------------------------------
 CID_88766103_JID_4432_Energie_kation
 ------------------------------------
 Structure from the checkpoint file:  "JID_4432.chk"
 Charge =  1 Multiplicity = 2

 SCF Done:  E(UB3LYP) =  -977.376505343     A.U. after   25 cycles
 Normal termination of Gaussian 16 at Thu Dec 10 10:07:41 2020.
 Gaussian 16:  ES64L-G16RevA.03 25-Dec-2016

 ----------------------------------------------------------------------
 # B3LYP/6-311++G(d,p) empiricaldispersion=gd3bj scf=xqc pop=npa geom=c
 heck
 ----------------------------------------------------------------------

 -----------------------------------
 CID_88766103_JID_4432_Energie_anion
 -----------------------------------
 Structure from the checkpoint file:  "JID_4432.chk"
 Charge = -1 Multiplicity = 2

                         Standard orientation:
 ---------------------------------------------------------------------
 Center     Atomic      Atomic             Coordinates (Angstroms)
 Number     Number       Type             X           Y           Z
 ---------------------------------------------------------------------
      1          6           0       -1.743255    3.015380   -0.158666
      2          6           0       -1.328924    1.581010    0.024607
      3          6           0       -2.233018    0.593695    0.195633
      4          6           0       -1.820994   -0.797182    0.364847
      5          6           0       -0.369026   -1.075584    0.373554
      6         16           0       -1.250484   -1.768455   -1.179361
      7          6           0        0.602615    0.012006    0.192440
      8          6           0        0.100073    1.266754   -0.001863
      9          8           0        0.856372    2.384965   -0.235259
     10          6           0        2.102871   -0.330957    0.140046
     11          6           0        2.643900   -0.053505   -1.284766
     12          6           0        2.903243    0.459444    1.202694
     13          6           0        2.353101   -1.825924    0.423224
     14          8           0       -2.678800   -1.499172    1.200496
     15          1           0       -1.288746    3.659126    0.602315
     16          1           0       -2.830535    3.111783   -0.098545
     17          1           0       -1.410370    3.398008   -1.130081
     18          1           0       -3.297576    0.799031    0.238336
     19          1           0       -0.065634   -1.896839    1.013215
     20          1           0        1.788548    2.137560   -0.294757
     21          1           0        2.529125    0.989013   -1.601832
     22          1           0        3.710708   -0.299314   -1.342649
     23          1           0        2.105895   -0.666094   -2.014733
     24          1           0        2.538463    0.219324    2.206683
     25          1           0        3.964874    0.192124    1.150497
     26          1           0        2.837636    1.547550    1.097629
     27          1           0        2.063833   -2.101782    1.443235
     28          1           0        1.811815   -2.468201   -0.277699
     29          1           0        3.422185   -2.039042    0.318226
     30          1           0       -2.556560   -2.444132    1.007550
 ---------------------------------------------------------------------

 SCF Done:  E(UB3LYP) =  -977.654277693     A.U. after   33 cycles
 SCF Done:  E(UB3LYP) =  -977.654277693     a.u. after    1 cycles

 The electronic state is 2-A.
 Alpha  occ. eigenvalues --  -88.66993 -19.02122 -19.01218 -10.12260 -10.08069
 Alpha  occ. eigenvalues --  -10.07925 -10.07074 -10.05792 -10.05018 -10.04846
 Alpha  occ. eigenvalues --  -10.03800 -10.02696 -10.02241 -10.00950  -7.75697
 Alpha  occ. eigenvalues --   -5.72173  -5.71599  -5.71120  -0.93289  -0.92225
 Alpha  occ. eigenvalues --   -0.73071  -0.70144  -0.65639  -0.60319  -0.58407
 Alpha  occ. eigenvalues --   -0.57929  -0.56837  -0.51496  -0.47638  -0.46933
 Alpha  occ. eigenvalues --   -0.43748  -0.39678  -0.38207  -0.36695  -0.34518
 Alpha  occ. eigenvalues --   -0.33598  -0.32329  -0.30584  -0.29787  -0.29442
 Alpha  occ. eigenvalues --   -0.28686  -0.28012  -0.27067  -0.26397  -0.26085
 Alpha  occ. eigenvalues --   -0.25451  -0.24973  -0.23872  -0.23050  -0.22737
 Alpha  occ. eigenvalues --   -0.21421  -0.20151  -0.17255  -0.15897  -0.11576
 Alpha  occ. eigenvalues --   -0.08288  -0.06636   0.05128
 Alpha virt. eigenvalues --    0.06995   0.08932   0.09139   0.09844   0.10129
 Alpha virt. eigenvalues --    0.10792   0.11682   0.12146   0.12330   0.12669
 Alpha virt. eigenvalues --    0.12784   0.13677   0.14354   0.14773   0.15026

  Beta  occ. eigenvalues --  -88.66884 -19.02077 -19.01207 -10.12255 -10.07941
  Beta  occ. eigenvalues --  -10.07907 -10.07065 -10.05777 -10.05008 -10.04803
  Beta  occ. eigenvalues --  -10.03813 -10.02528 -10.02017 -10.00639  -7.75583
  Beta  occ. eigenvalues --   -5.71916  -5.71523  -5.71029  -0.93155  -0.92189
  Beta  occ. eigenvalues --   -0.72767  -0.69960  -0.65232  -0.59926  -0.58360
  Beta  occ. eigenvalues --   -0.57849  -0.56520  -0.51036  -0.47515  -0.46670
  Beta  occ. eigenvalues --   -0.43673  -0.39416  -0.37946  -0.36551  -0.34427
  Beta  occ. eigenvalues --   -0.33521  -0.32266  -0.30197  -0.29652  -0.29262
  Beta  occ. eigenvalues --   -0.28544  -0.27939  -0.26929  -0.26337  -0.26003
  Beta  occ. eigenvalues --   -0.25261  -0.24683  -0.23769  -0.22836  -0.22614
  Beta  occ. eigenvalues --   -0.21323  -0.19962  -0.16885  -0.15016  -0.10808
  Beta  occ. eigenvalues --   -0.07852  -0.05394
  Beta virt. eigenvalues --    0.07206   0.08906   0.09167   0.09347   0.10134
  Beta virt. eigenvalues --    0.10680   0.10780   0.11667   0.12164   0.12434
  Beta virt. eigenvalues --    0.12706   0.12955   0.13802   0.14376   0.14923

 Mulliken charges and spin densities:
               1          2
     1  C   -0.516144  -0.022363
     2  C    0.839216   0.121211
     3  C   -0.696322   0.318726
     4  C   -0.554320  -0.011257
     5  C    0.028647   0.058315
     6  S   -0.488679   0.080419
     7  C    0.731691  -0.051233
     8  C   -0.665274  -0.017173
     9  O   -0.187653   0.017512
    10  C   -0.133038   0.380485
    11  C    0.064153  -0.626641
    12  C   -0.560954  -0.068651
    13  C   -0.227941  -0.165758
    14  O   -0.172907  -0.003719
    15  H    0.144318   0.004799
    16  H    0.125739  -0.001622
    17  H    0.125930   0.031944
    18  H    0.126438  -0.018625
    19  H    0.330616  -0.007062
    20  H    0.216754   0.005118
    21  H   -0.084068   0.203002
    22  H   -0.267395   0.402849
    23  H    0.087344   0.067097
    24  H    0.140482   0.001083
    25  H    0.080907   0.061778
    26  H    0.097330   0.000162
    27  H    0.095152   0.005246
    28  H    0.043441   0.122575
    29  H    0.044122   0.105867
    30  H    0.232412   0.005916
 Sum of Mulliken charges =  -1.00000   1.00000

 Dipole moment (field-independent basis, Debye):
    X=              2.1064    Y=              0.9289    Z=              3.2012  Tot=              3.9430
 Quadrupole moment (field-independent basis, Debye-Ang):
   XX=           -130.8688   YY=           -118.4947   ZZ=           -115.2258
   XY=             -0.3774   XZ=              5.0839   YZ=             -6.1243

 Summary of Natural Population Analysis:

                                       Natural Population
                Natural  -----------------------------------------------
    Atom  No    Charge         Core      Valence    Rydberg      Total
 -----------------------------------------------------------------------
      C    1   -0.28878      0.99964     2.28433    0.00481     3.28878
      C    2    0.00081      0.99948     1.99044    0.00927     2.99919
      C    3   -0.04647      0.99943     2.03538    0.01166     3.04647
      C    4    0.10837      0.99940     1.87020    0.02203     2.89163
      C    5   -0.13905      0.99948     2.12373    0.01584     3.13905
      S    6   -0.02339      4.99970     3.01079    0.01290     8.02339
      C    7   -0.02936      0.99940     2.01591    0.01404     3.02936
      C    8    0.19237      0.99930     1.79463    0.01370     2.80763
      O    9   -0.34793      0.99988     3.34188    0.00618     4.34793
      C   10   -0.05336      0.99957     2.04414    0.00965     3.05336
      C   11   -0.28148      0.99963     2.27459    0.00726     3.28148
      C   12   -0.27798      0.99963     2.27148    0.00687     3.27798
      C   13   -0.28527      0.99964     2.27798    0.00765     3.28527
      O   14   -0.36591      0.99987     3.35789    0.00815     4.36591
      H   15    0.10011      0.00000     0.39896    0.00093     0.39989
      H   16    0.09398      0.00000     0.40527    0.00074     0.40602
      H   17    0.10173      0.00000     0.39696    0.00132     0.39827
      H   18    0.09191      0.00000     0.40702    0.00107     0.40809
      H   19    0.10504      0.00000     0.39349    0.00147     0.39496
      H   20    0.23246      0.00000     0.26483    0.00271     0.26754
      H   21    0.09174      0.00000     0.40715    0.00111     0.40826
      H   22    0.09378      0.00000     0.40490    0.00132     0.40622
      H   23    0.10892      0.00000     0.39018    0.00090     0.39108
      H   24    0.10159      0.00000     0.39764    0.00077     0.39841
      H   25    0.09306      0.00000     0.40614    0.00080     0.40694
      H   26    0.09045      0.00000     0.40849    0.00105     0.40955
      H   27    0.09588      0.00000     0.40336    0.00076     0.40412
      H   28    0.10866      0.00000     0.39055    0.00080     0.39134
      H   29    0.09565      0.00000     0.40360    0.00075     0.40435
      H   30    0.23249      0.00000     0.26491    0.00260     0.26751
 =======================================================================
   * Total *   -0.00000     17.99407    38.83684    0.16909    57.00000

 Normal termination of Gaussian 16 at Thu Dec 10 10:17:55 2020.
