 Gaussian 16, Revision A.03,

 -----------------------------------------------------------
 # opt freq B3LYP/6-31G(d) empiricaldispersion=gd3bj scf=xqc
 -----------------------------------------------------------

 --------------------------------
 CID_108291638_JID_10964_neutraal
 --------------------------------
 Symbolic Z-matrix:
 Charge =  0 Multiplicity = 1

 SCF Done:  E(RB3LYP) =  -1542.51073680     A.U. after   15 cycles
 SCF Done:  E(RB3LYP) =  -1542.51533929     A.U. after   13 cycles
 SCF Done:  E(RB3LYP) =  -1542.51483316     A.U. after   16 cycles
 SCF Done:  E(RB3LYP) =  -1542.51658897     A.U. after   13 cycles
 SCF Done:  E(RB3LYP) =  -1542.51713421     A.U. after   13 cycles
 SCF Done:  E(RB3LYP) =  -1542.51774009     A.U. after   13 cycles
 SCF Done:  E(RB3LYP) =  -1542.51804564     A.U. after   12 cycles
 SCF Done:  E(RB3LYP) =  -1542.51826648     A.U. after   12 cycles
 SCF Done:  E(RB3LYP) =  -1542.51831245     A.U. after   11 cycles
 SCF Done:  E(RB3LYP) =  -1542.51834204     A.U. after   11 cycles
 SCF Done:  E(RB3LYP) =  -1542.51835809     A.U. after   11 cycles
 SCF Done:  E(RB3LYP) =  -1542.51836055     A.U. after   10 cycles
 SCF Done:  E(RB3LYP) =  -1542.51836115     A.U. after    9 cycles
 SCF Done:  E(RB3LYP) =  -1542.51836133     A.U. after    9 cycles
 SCF Done:  E(RB3LYP) =  -1542.51836138     A.U. after    7 cycles
 Optimization completed.
    -- Stationary point found.
 Normal termination of Gaussian 16 at Sun Dec 13 20:24:53 2020.

 --------------------------------------------------------------------
 #N Geom=AllCheck Guess=TCheck SCRF=Check GenChk RB3LYP/6-31G(d) Freq
 --------------------------------------------------------------------

 Structure from the checkpoint file:  "JID_10964.chk"
 --------------------------------
 CID_108291638_JID_10964_neutraal
 --------------------------------
 Charge =  0 Multiplicity = 1

 SCF Done:  E(RB3LYP) =  -1542.51836138     A.U. after    1 cycles

  Exact polarizability: 274.627 -15.720 178.915 -15.171  17.287 163.803
 Approx polarizability: 409.494 -24.064 286.819 -44.724  46.915 291.874

                      1                      2                      3
                      A                      A                      A
 Frequencies --     14.2830                31.4723                31.9401
 Red. masses --      5.7760                 4.3007                 8.9323
 Frc consts  --      0.0007                 0.0025                 0.0054
 IR Inten    --      0.2449                 0.4443                 0.8895

                      4                      5                      6
                      A                      A                      A
 Frequencies --     42.0504                47.5419                68.3562
 Red. masses --      6.6566                 3.0649                 5.6578
 Frc consts  --      0.0069                 0.0041                 0.0156
 IR Inten    --      1.8216                 0.4955                 0.1344

                      7                      8                      9
                      A                      A                      A
 Frequencies --    119.1817               132.1484               153.2724
 Red. masses --      4.5780                10.3225                 4.0487
 Frc consts  --      0.0383                 0.1062                 0.0560
 IR Inten    --      0.5343                 4.3487                 1.6828

                     10                     11                     12
                      A                      A                      A
 Frequencies --    166.2720               211.6878               223.4851
 Red. masses --      6.2730                 5.5524                 2.4597
 Frc consts  --      0.1022                 0.1466                 0.0724
 IR Inten    --      1.5294                 2.9758                 0.9556

                     13                     14                     15
                      A                      A                      A
 Frequencies --    237.0939               240.6738               271.5766
 Red. masses --      2.1775                 2.2537                 1.9679
 Frc consts  --      0.0721                 0.0769                 0.0855
 IR Inten    --      2.6178                 1.5129                 0.8030

                     16                     17                     18
                      A                      A                      A
 Frequencies --    286.4595               299.9611               319.1268
 Red. masses --      1.1152                 1.5903                 3.5333
 Frc consts  --      0.0539                 0.0843                 0.2120
 IR Inten    --      0.3320                 0.2482                 0.4461

                     19                     20                     21
                      A                      A                      A
 Frequencies --    356.2855               373.2319               378.5184
 Red. masses --      2.2094                 2.4892                 2.7871
 Frc consts  --      0.1652                 0.2043                 0.2353
 IR Inten    --      2.0177                 0.5795                 1.4085

                     22                     23                     24
                      A                      A                      A
 Frequencies --    392.2052               408.6572               424.3237
 Red. masses --      4.3089                 6.6261                 2.4387
 Frc consts  --      0.3905                 0.6520                 0.2587
 IR Inten    --      1.5273                 0.5401                 0.1808

                     25                     26                     27
                      A                      A                      A
 Frequencies --    449.3126               455.4127               495.1110
 Red. masses --      2.6660                 4.3724                 5.1576
 Frc consts  --      0.3171                 0.5343                 0.7449
 IR Inten    --      9.5996                 5.5453                 5.1262

                     28                     29                     30
                      A                      A                      A
 Frequencies --    502.6269               514.8334               548.6646
 Red. masses --      5.5685                 4.9768                 4.5054
 Frc consts  --      0.8289                 0.7772                 0.7991
 IR Inten    --      0.4379                 9.4151                 5.5056

                     31                     32                     33
                      A                      A                      A
 Frequencies --    582.8378               607.9568               637.8750
 Red. masses --      5.4927                 4.7122                 7.9646
 Frc consts  --      1.0993                 1.0262                 1.9094
 IR Inten    --      1.3747                 9.2993                 0.4622

                     34                     35                     36
                      A                      A                      A
 Frequencies --    654.5735               661.3965               700.1188
 Red. masses --      7.0854                 2.3282                 4.5590
 Frc consts  --      1.7887                 0.6001                 1.3166
 IR Inten    --     10.8411                44.7870                25.1552

                     37                     38                     39
                      A                      A                      A
 Frequencies --    724.8014               731.6995               743.1335
 Red. masses --      1.4192                 3.8847                 3.0035
 Frc consts  --      0.4393                 1.2254                 0.9773
 IR Inten    --     31.0133                14.8212                 7.8334

                     40                     41                     42
                      A                      A                      A
 Frequencies --    751.6379               770.4609               848.4716
 Red. masses --      7.0820                 2.6868                 1.4758
 Frc consts  --      2.3573                 0.9397                 0.6260
 IR Inten    --      6.3532                80.0993                13.9818

                     43                     44                     45
                      A                      A                      A
 Frequencies --    882.2720               886.2570               891.0620
 Red. masses --      4.7008                 1.8485                 1.3206
 Frc consts  --      2.1559                 0.8554                 0.6178
 IR Inten    --      8.2365                 2.0944                 1.0269

                     46                     47                     48
                      A                      A                      A
 Frequencies --    921.5771               921.9594               933.5699
 Red. masses --      1.6872                 1.6746                 3.2169
 Frc consts  --      0.8443                 0.8387                 1.6519
 IR Inten    --      0.9783                11.3103                 8.9798

                     49                     50                     51
                      A                      A                      A
 Frequencies --    943.4182               970.3352               971.9812
 Red. masses --      1.7339                 1.2091                 1.3319
 Frc consts  --      0.9093                 0.6707                 0.7414
 IR Inten    --      3.0711                 0.0797                 0.5314

                     52                     53                     54
                      A                      A                      A
 Frequencies --   1012.8014              1028.0042              1060.3284
 Red. masses --      1.6401                 9.5627                 1.4316
 Frc consts  --      0.9912                 5.9542                 0.9483
 IR Inten    --      1.4267               142.7959                 9.1037

                     55                     56                     57
                      A                      A                      A
 Frequencies --   1067.6099              1076.9903              1091.8721
 Red. masses --      1.5453                 6.3762                 1.4506
 Frc consts  --      1.0377                 4.3575                 1.0190
 IR Inten    --      3.0780                 5.0053                10.1251

                     58                     59                     60
                      A                      A                      A
 Frequencies --   1142.5736              1176.5327              1190.3424
 Red. masses --      3.8096                 1.6647                 1.6964
 Frc consts  --      2.9302                 1.3577                 1.4162
 IR Inten    --     19.4884                 3.8348                 3.0492

                     61                     62                     63
                      A                      A                      A
 Frequencies --   1202.8757              1232.7051              1252.9269
 Red. masses --      1.8668                 1.5531                 2.4925
 Frc consts  --      1.5914                 1.3905                 2.3054
 IR Inten    --      6.7034                 4.7429                14.4873

                     64                     65                     66
                      A                      A                      A
 Frequencies --   1261.1406              1267.6825              1305.6229
 Red. masses --      3.0988                 2.6553                 1.6209
 Frc consts  --      2.9039                 2.5141                 1.6279
 IR Inten    --      5.8644                63.3110                 2.5324

                     67                     68                     69
                      A                      A                      A
 Frequencies --   1325.9255              1350.2953              1351.6267
 Red. masses --      2.4453                 2.0328                 2.9456
 Frc consts  --      2.5329                 2.1838                 3.1705
 IR Inten    --      9.5414                 5.0136                 5.9173

                     70                     71                     72
                      A                      A                      A
 Frequencies --   1391.7478              1425.1028              1425.9980
 Red. masses --      1.3286                 1.2714                 1.2449
 Frc consts  --      1.5162                 1.5213                 1.4914
 IR Inten    --     13.9240                10.7262                 4.5530

                     73                     74                     75
                      A                      A                      A
 Frequencies --   1449.4569              1452.2400              1454.6975
 Red. masses --      2.3683                 3.6912                 1.6195
 Frc consts  --      2.9315                 4.5866                 2.0192
 IR Inten    --     12.8372                14.2721                24.6872

                     76                     77                     78
                      A                      A                      A
 Frequencies --   1500.7648              1508.2279              1512.2423
 Red. masses --      1.1083                 1.0746                 1.1011
 Frc consts  --      1.4708                 1.4403                 1.4836
 IR Inten    --      1.6750                 2.4918                10.3948

                     79                     80                     81
                      A                      A                      A
 Frequencies --   1515.3366              1518.5293              1522.7931
 Red. masses --      1.0987                 1.3985                 1.4753
 Frc consts  --      1.4864                 1.9000                 2.0157
 IR Inten    --      3.9281                10.3240                 8.2531

                     82                     83                     84
                      A                      A                      A
 Frequencies --   1534.2507              1540.7632              1549.4054
 Red. masses --      1.0637                 4.9614                 1.0807
 Frc consts  --      1.4753                 6.9395                 1.5285
 IR Inten    --      4.4855                17.9189                 8.2236

                     85                     86                     87
                      A                      A                      A
 Frequencies --   1552.5564              1617.3171              1650.2837
 Red. masses --      1.1208                 6.1244                 5.6299
 Frc consts  --      1.5917                 9.4385                 9.0338
 IR Inten    --      4.0111                 1.0856                 3.2557

                     88                     89                     90
                      A                      A                      A
 Frequencies --   2352.9331              3042.1306              3047.9711
 Red. masses --     12.6807                 1.0382                 1.0399
 Frc consts  --     41.3629                 5.6611                 5.6918
 IR Inten    --     16.1149                18.7334                28.3412

                     91                     92                     93
                      A                      A                      A
 Frequencies --   3048.7852              3058.1275              3101.7859
 Red. masses --      1.0646                 1.0374                 1.1012
 Frc consts  --      5.8305                 5.7161                 6.2421
 IR Inten    --     51.0829                 4.6510                 2.3413

                     94                     95                     96
                      A                      A                      A
 Frequencies --   3106.5405              3110.4631              3125.9526
 Red. masses --      1.0982                 1.0988                 1.1011
 Frc consts  --      6.2444                 6.2635                 6.3393
 IR Inten    --      6.0841                66.0153                38.4939

                     97                     98                     99
                      A                      A                      A
 Frequencies --   3128.4249              3136.3695              3154.2099
 Red. masses --      1.1030                 1.1026                 1.0970
 Frc consts  --      6.3603                 6.3902                 6.4306
 IR Inten    --      6.8653                38.4114                25.6369

                    100                    101                    102
                      A                      A                      A
 Frequencies --   3181.2299              3202.6031              3217.7724
 Red. masses --      1.0888                 1.0909                 1.0932
 Frc consts  --      6.4923                 6.5921                 6.6691
 IR Inten    --     12.5764                 4.5840                 3.7731

                    103                    104                    105
                      A                      A                      A
 Frequencies --   3237.5699              3284.1491              3496.7063
 Red. masses --      1.0914                 1.0981                 1.0737
 Frc consts  --      6.7400                 6.9779                 7.7347
 IR Inten    --      8.4028                 1.2440                 1.6312

 - Thermochemistry -
 -------------------
 Temperature   298.150 Kelvin.  Pressure   1.00000 Atm.
 Atom     1 has atomic number  6 and mass  12.00000

 Molecular mass:   303.08639 amu.
 Principal axes and moments of inertia in atomic units:
                           1         2         3
     Eigenvalues --  3271.24207********************
           X            0.99996   0.00865  -0.00133
           Y           -0.00864   0.99994   0.00619
           Z            0.00138  -0.00618   0.99998
 This molecule is an asymmetric top.
 Rotational symmetry number  1.
 Warning -- assumption of classical behavior for rotation
           may cause significant error
 Rotational temperatures (Kelvin)      0.02648     0.00751     0.00693
 Rotational constants (GHZ):           0.55170     0.15640     0.14442
 Zero-point vibrational energy     774501.0 (Joules/Mol)
                                  185.11018 (Kcal/Mol)
 Warning -- explicit consideration of  32 degrees of freedom as
           vibrations may cause significant error
 Vibrational temperatures:     20.55    45.28    45.95    60.50    68.40
          (Kelvin)             98.35   171.48   190.13   220.52   239.23
                              304.57   321.55   341.13   346.28   390.74
                              412.15   431.58   459.15   512.62   537.00
                              544.60   564.30   587.97   610.51   646.46
                              655.24   712.35   723.17   740.73   789.41
                              838.57   874.71   917.76   941.79   951.60
                             1007.31  1042.83  1052.75  1069.20  1081.44
                             1108.52  1220.76  1269.39  1275.13  1282.04
                             1325.94  1326.49  1343.20  1357.37  1396.10
                             1398.46  1457.20  1479.07  1525.58  1536.05
                             1549.55  1570.96  1643.91  1692.77  1712.64
                             1730.67  1773.59  1802.68  1814.50  1823.91
                             1878.50  1907.71  1942.77  1944.69  2002.41
                             2050.41  2051.69  2085.45  2089.45  2092.99
                             2159.27  2170.00  2175.78  2180.23  2184.82
                             2190.96  2207.44  2216.81  2229.25  2233.78
                             2326.96  2374.39  3385.35  4376.95  4385.35
                             4386.52  4399.96  4462.78  4469.62  4475.26
                             4497.55  4501.11  4512.54  4538.20  4577.08
                             4607.83  4629.66  4658.14  4725.16  5030.98

 Zero-point correction=                           0.294992 (Hartree/Particle)
 Thermal correction to Energy=                    0.314952
 Thermal correction to Enthalpy=                  0.315897
 Thermal correction to Gibbs Free Energy=         0.244048
 Sum of electronic and zero-point Energies=          -1542.223370
 Sum of electronic and thermal Energies=             -1542.203409
 Sum of electronic and thermal Enthalpies=           -1542.202465
 Sum of electronic and thermal Free Energies=        -1542.274313

                     E (Thermal)             CV                S
                      KCal/Mol        Cal/Mol-Kelvin    Cal/Mol-Kelvin
 Total                  197.636             75.535            151.218
 Electronic               0.000              0.000              0.000
 Translational            0.889              2.981             43.023
 Rotational               0.889              2.981             34.511
 Vibrational            195.858             69.574             73.684
 Vibration     1          0.593              1.986              7.303
 Vibration     2          0.594              1.983              5.734
 Vibration     3          0.594              1.983              5.705
 Vibration     4          0.595              1.980              5.160
 Vibration     5          0.595              1.979              4.917
 Vibration     6          0.598              1.969              4.200
 Vibration     7          0.609              1.933              3.114
 Vibration     8          0.612              1.921              2.915
 Vibration     9          0.619              1.899              2.631
 Vibration    10          0.624              1.884              2.477
 Vibration    11          0.643              1.823              2.029
 Vibration    12          0.649              1.805              1.931
 Vibration    13          0.656              1.784              1.825
 Vibration    14          0.658              1.778              1.798
 Vibration    15          0.675              1.726              1.586
 Vibration    16          0.684              1.699              1.495
 Vibration    17          0.692              1.674              1.417
 Vibration    18          0.705              1.637              1.315
 Vibration    19          0.732              1.562              1.138
 Vibration    20          0.745              1.527              1.066
 Vibration    21          0.749              1.516              1.045
 Vibration    22          0.760              1.487              0.992
 Vibration    23          0.773              1.451              0.931
 Vibration    24          0.786              1.417              0.877
 Vibration    25          0.808              1.362              0.798
 Vibration    26          0.814              1.349              0.780
 Vibration    27          0.851              1.261              0.670
 Vibration    28          0.858              1.244              0.652
 Vibration    29          0.870              1.217              0.622
 Vibration    30          0.904              1.143              0.547
 Vibration    31          0.940              1.068              0.480
 Vibration    32          0.967              1.015              0.436

                           ! Non-Optimized Parameters !
 Normal termination of Gaussian 16 at Sun Dec 13 20:47:24 2020.

 ----------------------------------------------------------------------
 # B3LYP/6-311++G(d,p) empiricaldispersion=gd3bj scf=xqc pop=npa geom=c
 heck
 ----------------------------------------------------------------------

 ----------------------------------------
 CID_108291638_JID_10964_Energie_neutraal
 ----------------------------------------
 Structure from the checkpoint file:  "JID_10964.chk"
 Charge =  0 Multiplicity = 1

 SCF Done:  E(RB3LYP) =  -1542.76997107     A.U. after   16 cycles
 Normal termination of Gaussian 16 at Sun Dec 13 20:58:25 2020.

 ----------------------------------------------------------------------
 # B3LYP/6-311++G(d,p) empiricaldispersion=gd3bj scf=xqc pop=npa geom=c
 heck
 ----------------------------------------------------------------------

 --------------------------------------
 CID_108291638_JID_10964_Energie_kation
 --------------------------------------
 Structure from the checkpoint file:  "JID_10964.chk"
 Charge =  1 Multiplicity = 2

 SCF Done:  E(UB3LYP) =  -1542.48584859     A.U. after   26 cycles
 Normal termination of Gaussian 16 at Sun Dec 13 21:24:24 2020.
 Gaussian 16:  ES64L-G16RevA.03 25-Dec-2016

 ----------------------------------------------------------------------
 # B3LYP/6-311++G(d,p) empiricaldispersion=gd3bj scf=xqc pop=npa geom=c
 heck
 ----------------------------------------------------------------------

 -------------------------------------
 CID_108291638_JID_10964_Energie_anion
 -------------------------------------
 Structure from the checkpoint file:  "JID_10964.chk"
 Charge = -1 Multiplicity = 2

                         Standard orientation:
 ---------------------------------------------------------------------
 Center     Atomic      Atomic             Coordinates (Angstroms)
 Number     Number       Type             X           Y           Z
 ---------------------------------------------------------------------
      1          6           0        3.856539    1.545687    1.302599
      2          6           0        3.951330    1.076350   -0.154832
      3          6           0        2.668450    1.473787   -0.918114
      4          6           0        5.156702    1.754967   -0.827072
      5          7           0        4.253983   -0.373263   -0.186643
      6          6           0        3.464352   -1.314190    0.602379
      7          6           0        1.980355   -1.419711    0.281924
      8          6           0        1.014943   -1.042335    1.214518
      9          6           0       -0.350346   -1.067060    0.897508
     10          6           0       -0.762270   -1.463333   -0.390801
     11          6           0        0.201978   -1.865476   -1.316286
     12          6           0        1.552027   -1.854401   -0.977113
     13         16           0       -2.482454   -1.518733   -0.865436
     14          6           0       -2.940420    0.168971   -0.565305
     15          7           0       -2.147478    1.193061   -0.687189
     16          6           0       -2.810464    2.356970   -0.368446
     17          6           0       -4.121927    2.223620   -0.016466
     18         16           0       -4.571062    0.546890   -0.036492
     19          6           0       -1.299524   -0.666896    1.891109
     20          7           0       -2.051988   -0.339043    2.714796
     21          1           0        3.805331    2.638594    1.338643
     22          1           0        4.735261    1.221877    1.870510
     23          1           0        2.958703    1.162277    1.798329
     24          1           0        2.579101    2.565333   -0.969565
     25          1           0        2.698187    1.094702   -1.947031
     26          1           0        1.762907    1.088178   -0.445051
     27          1           0        6.079297    1.511201   -0.291984
     28          1           0        5.265436    1.413598   -1.864480
     29          1           0        5.032279    2.843139   -0.847014
     30          1           0        4.292996   -0.680400   -1.156340
     31          1           0        3.927117   -2.299228    0.461591
     32          1           0        3.584466   -1.068507    1.661669
     33          1           0        1.314894   -0.713094    2.204807
     34          1           0       -0.112472   -2.167377   -2.309758
     35          1           0        2.287702   -2.157175   -1.718586
     36          1           0       -2.273095    3.296418   -0.422206
     37          1           0       -4.833818    2.992975    0.246956
 ---------------------------------------------------------------------

 SCF Done:  E(UB3LYP) =  -1542.79043156     A.U. after   28 cycles

 The electronic state is 2-A.
 Alpha  occ. eigenvalues --  -88.77048 -88.74245 -14.19766 -14.19308 -14.15305
 Alpha  occ. eigenvalues --  -10.13664 -10.11256 -10.09817 -10.09418 -10.08639
 Alpha  occ. eigenvalues --  -10.06962 -10.06827 -10.06513 -10.05535 -10.05381
 Alpha  occ. eigenvalues --  -10.05210 -10.05031 -10.04912 -10.04273 -10.03200
 Alpha  occ. eigenvalues --   -7.85691  -7.82778  -5.81971  -5.81626  -5.81283
 Alpha  occ. eigenvalues --   -5.79187  -5.78762  -5.78194  -0.85512  -0.80810
 Alpha  occ. eigenvalues --   -0.76053  -0.73543  -0.69491  -0.68950  -0.67768
 Alpha  occ. eigenvalues --   -0.63512  -0.63194  -0.60140  -0.58852  -0.58664
 Alpha  occ. eigenvalues --   -0.54187  -0.50784  -0.48250  -0.47193  -0.45398
 Alpha  occ. eigenvalues --   -0.43364  -0.40285  -0.38928  -0.38740  -0.36253
 Alpha  occ. eigenvalues --   -0.35297  -0.34858  -0.34417  -0.32595  -0.31963
 Alpha  occ. eigenvalues --   -0.31282  -0.30571  -0.30063  -0.29082  -0.28905
 Alpha  occ. eigenvalues --   -0.28187  -0.27034  -0.26885  -0.26299  -0.26027
 Alpha  occ. eigenvalues --   -0.24842  -0.23905  -0.23623  -0.23060  -0.21916
 Alpha  occ. eigenvalues --   -0.21620  -0.20284  -0.19067  -0.17732  -0.16632
 Alpha  occ. eigenvalues --   -0.16588  -0.13898  -0.12957  -0.12013  -0.09940
 Alpha  occ. eigenvalues --    0.03286
 Alpha virt. eigenvalues --    0.06632   0.07421   0.07782   0.08306   0.08777
 Alpha virt. eigenvalues --    0.09216   0.09790   0.10391   0.10464   0.10827
 Alpha virt. eigenvalues --    0.10978   0.11291   0.11803   0.12319   0.13065

  Beta  occ. eigenvalues --  -88.77031 -88.74248 -14.19749 -14.19291 -14.14991
  Beta  occ. eigenvalues --  -10.13492 -10.11256 -10.09822 -10.09395 -10.08649
  Beta  occ. eigenvalues --  -10.06960 -10.06541 -10.06510 -10.05564 -10.05320
  Beta  occ. eigenvalues --  -10.05039 -10.05030 -10.04916 -10.04149 -10.02871
  Beta  occ. eigenvalues --   -7.85675  -7.82776  -5.81952  -5.81613  -5.81244
  Beta  occ. eigenvalues --   -5.79189  -5.78769  -5.78199  -0.85428  -0.80774
  Beta  occ. eigenvalues --   -0.75575  -0.73106  -0.69349  -0.68871  -0.67565
  Beta  occ. eigenvalues --   -0.63117  -0.62746  -0.60106  -0.58734  -0.58654
  Beta  occ. eigenvalues --   -0.54021  -0.50162  -0.48185  -0.47001  -0.45351
  Beta  occ. eigenvalues --   -0.43155  -0.40158  -0.38841  -0.38638  -0.36163
  Beta  occ. eigenvalues --   -0.35174  -0.34672  -0.34252  -0.32510  -0.31894
  Beta  occ. eigenvalues --   -0.31144  -0.30370  -0.29892  -0.29053  -0.28761
  Beta  occ. eigenvalues --   -0.28123  -0.26997  -0.26489  -0.26051  -0.25936
  Beta  occ. eigenvalues --   -0.24437  -0.23854  -0.23245  -0.22869  -0.21607
  Beta  occ. eigenvalues --   -0.21212  -0.19264  -0.18873  -0.17491  -0.16551
  Beta  occ. eigenvalues --   -0.16335  -0.13096  -0.12109  -0.11314  -0.09110
  Beta virt. eigenvalues --    0.06541   0.07717   0.07757   0.08321   0.08684
  Beta virt. eigenvalues --    0.08962   0.09203   0.10032   0.10438   0.10479
  Beta virt. eigenvalues --    0.10830   0.10952   0.11329   0.11867   0.12468

 Mulliken charges and spin densities:
               1          2
     1  C   -0.517267  -0.040511
     2  C   -0.055907   0.037450
     3  C   -0.549775  -0.013048
     4  C   -0.377690  -0.027750
     5  N    0.117535  -0.044092
     6  C   -0.899469   0.053889
     7  C    0.872623   0.043477
     8  C   -0.271097  -0.017061
     9  C    0.492445   0.254462
    10  C    0.483114   0.182954
    11  C   -0.236351  -0.031464
    12  C   -0.308728   0.243740
    13  S   -0.394334   0.053861
    14  C    0.017546   0.002478
    15  N   -0.000105   0.009063
    16  C   -0.141354  -0.009949
    17  C   -0.313811   0.011068
    18  S   -0.131159   0.051047
    19  C   -0.819771  -0.057189
    20  N   -0.310662   0.162486
    21  H    0.124308  -0.003190
    22  H    0.141387   0.002358
    23  H    0.154825   0.020922
    24  H    0.119560   0.003219
    25  H    0.115810  -0.001643
    26  H    0.197350  -0.004808
    27  H    0.140862   0.010075
    28  H    0.115891   0.008308
    29  H    0.107101   0.008194
    30  H    0.211723   0.004514
    31  H    0.092864   0.077422
    32  H    0.137940  -0.003441
    33  H    0.131895   0.000274
    34  H    0.139260   0.007001
    35  H    0.074269   0.001014
    36  H    0.130026   0.005755
    37  H    0.209147  -0.000883
 Sum of Mulliken charges =  -1.00000   1.00000

 Dipole moment (field-independent basis, Debye):
    X=              3.0359    Y=              3.2571    Z=             -3.3590  Tot=              5.5775
 Quadrupole moment (field-independent basis, Debye-Ang):
   XX=           -182.4770   YY=           -148.1480   ZZ=           -158.6397
   XY=             -2.3939   XZ=              7.3878   YZ=              2.9669

 Summary of Natural Population Analysis:

                                       Natural Population
                Natural  -----------------------------------------------
    Atom  No    Charge         Core      Valence    Rydberg      Total
 -----------------------------------------------------------------------
      C    1   -0.29134      0.99962     2.28630    0.00543     3.29134
      C    2    0.05665      0.99960     1.93452    0.00923     2.94335
      C    3   -0.29464      0.99962     2.28909    0.00594     3.29464
      C    4   -0.28236      0.99963     2.27685    0.00588     3.28236
      N    5   -0.34686      0.99972     2.83378    0.01336     3.84686
      C    6   -0.09165      0.99959     2.08055    0.01151     3.09165
      C    7   -0.01555      0.99949     2.00537    0.01069     3.01555
      C    8   -0.08046      0.99949     2.07257    0.00840     3.08046
      C    9   -0.03473      0.99934     2.02444    0.01095     3.03473
      C   10   -0.01985      0.99936     2.00631    0.01417     3.01985
      C   11   -0.12075      0.99950     2.11177    0.00947     3.12075
      C   12   -0.03881      0.99951     2.03115    0.00815     3.03881
      S   13    0.14732      4.99941     2.83320    0.02007     7.85268
      C   14   -0.02940      0.99960     2.00946    0.02033     3.02940
      N   15   -0.25148      0.99962     2.73541    0.01645     3.75148
      C   16   -0.01669      0.99954     2.00376    0.01340     3.01669
      C   17   -0.21625      0.99955     2.20733    0.00938     3.21625
      S   18    0.19800      4.99938     2.78182    0.02080     7.80200
      C   19    0.14125      0.99964     1.83943    0.01968     2.85875
      N   20   -0.15272      0.99979     2.64187    0.01107     3.65272
      H   21    0.09763      0.00000     0.40168    0.00068     0.40237
      H   22    0.09889      0.00000     0.40031    0.00080     0.40111
      H   23    0.10633      0.00000     0.39288    0.00078     0.39367
      H   24    0.09230      0.00000     0.40686    0.00083     0.40770
      H   25    0.09728      0.00000     0.40196    0.00076     0.40272
      H   26    0.11734      0.00000     0.38163    0.00103     0.38266
      H   27    0.10042      0.00000     0.39865    0.00093     0.39958
      H   28    0.09501      0.00000     0.40417    0.00082     0.40499
      H   29    0.09414      0.00000     0.40508    0.00078     0.40586
      H   30    0.17062      0.00000     0.32715    0.00223     0.32938
      H   31    0.09567      0.00000     0.40290    0.00144     0.40433
      H   32    0.09148      0.00000     0.40740    0.00112     0.40852
      H   33    0.09662      0.00000     0.40249    0.00089     0.40338
      H   34    0.09792      0.00000     0.40076    0.00132     0.40208
      H   35    0.08599      0.00000     0.41245    0.00156     0.41401
      H   36    0.09606      0.00000     0.40286    0.00107     0.40394
      H   37    0.10663      0.00000     0.39233    0.00104     0.39337
 =======================================================================
   * Total *    0.00000     27.99101    51.74654    0.26245    80.00000

 Normal termination of Gaussian 16 at Sun Dec 13 21:52:49 2020.
