 Gaussian 16, Revision A.03,

 -----------------------------------------------------------
 # opt freq B3LYP/6-31G(d) empiricaldispersion=gd3bj scf=xqc
 -----------------------------------------------------------

 ------------------------------
 CID_79185352_JID_6162_neutraal
 ------------------------------
 Symbolic Z-matrix:
 Charge =  0 Multiplicity = 1

 SCF Done:  E(RB3LYP) =  -653.866930266     A.U. after   15 cycles
 SCF Done:  E(RB3LYP) =  -653.872703335     A.U. after   12 cycles
 SCF Done:  E(RB3LYP) =  -653.873511028     A.U. after   11 cycles
 SCF Done:  E(RB3LYP) =  -653.874138785     A.U. after   11 cycles
 SCF Done:  E(RB3LYP) =  -653.874288493     A.U. after   11 cycles
 SCF Done:  E(RB3LYP) =  -653.874371757     A.U. after   10 cycles
 SCF Done:  E(RB3LYP) =  -653.874387692     A.U. after   10 cycles
 SCF Done:  E(RB3LYP) =  -653.874400173     A.U. after   10 cycles
 SCF Done:  E(RB3LYP) =  -653.874410574     A.U. after   10 cycles
 SCF Done:  E(RB3LYP) =  -653.874414700     A.U. after    9 cycles
 SCF Done:  E(RB3LYP) =  -653.874415663     A.U. after    8 cycles
 SCF Done:  E(RB3LYP) =  -653.874415723     A.U. after    7 cycles
 Optimization completed.
    -- Stationary point found.
 Normal termination of Gaussian 16 at Thu Dec 10 21:14:38 2020.

 --------------------------------------------------------------------
 #N Geom=AllCheck Guess=TCheck SCRF=Check GenChk RB3LYP/6-31G(d) Freq
 --------------------------------------------------------------------

 Structure from the checkpoint file:  "JID_6162.chk"
 ------------------------------
 CID_79185352_JID_6162_neutraal
 ------------------------------
 Charge =  0 Multiplicity = 1

 SCF Done:  E(RB3LYP) =  -653.874415723     A.U. after    1 cycles

  Exact polarizability: 201.914  -8.374 174.385  16.318   5.075  97.948
 Approx polarizability: 282.712 -13.793 287.222  37.512  14.650 150.429

                      1                      2                      3
                      A                      A                      A
 Frequencies --     28.5335                45.4349                57.8076
 Red. masses --      3.5523                 3.3134                 3.2050
 Frc consts  --      0.0017                 0.0040                 0.0063
 IR Inten    --      0.0486                 0.4316                 0.4017

                      4                      5                      6
                      A                      A                      A
 Frequencies --     74.4375                90.7080               101.5016
 Red. masses --      3.5157                 2.6525                 2.3444
 Frc consts  --      0.0115                 0.0129                 0.0142
 IR Inten    --      0.3109                 1.9546                 1.3661

                      7                      8                      9
                      A                      A                      A
 Frequencies --    173.8814               186.4938               206.1710
 Red. masses --      2.6252                 1.4955                 2.3026
 Frc consts  --      0.0468                 0.0306                 0.0577
 IR Inten    --      0.3447                 0.2959                 2.5511

                     10                     11                     12
                      A                      A                      A
 Frequencies --    230.4794               243.3526               268.3889
 Red. masses --      3.0726                 2.0134                 1.4850
 Frc consts  --      0.0962                 0.0703                 0.0630
 IR Inten    --      0.0996                 1.2691                 0.9109

                     13                     14                     15
                      A                      A                      A
 Frequencies --    284.1807               326.5771               377.6388
 Red. masses --      3.5305                 3.2392                 4.3214
 Frc consts  --      0.1680                 0.2035                 0.3631
 IR Inten    --      0.9156                 0.5833                 0.9069

                     16                     17                     18
                      A                      A                      A
 Frequencies --    394.2136               410.2843               439.0014
 Red. masses --      2.3488                 2.5427                 3.0544
 Frc consts  --      0.2151                 0.2522                 0.3468
 IR Inten    --      1.0012                 3.3059                 3.7784

                     19                     20                     21
                      A                      A                      A
 Frequencies --    491.3490               540.1278               555.6172
 Red. masses --      2.8318                 3.5006                 5.5400
 Frc consts  --      0.4028                 0.6017                 1.0076
 IR Inten    --      1.7482                 1.3626                 0.3319

                     22                     23                     24
                      A                      A                      A
 Frequencies --    583.5772               598.0118               648.9433
 Red. masses --      4.2961                 3.7819                 3.0912
 Frc consts  --      0.8620                 0.7969                 0.7670
 IR Inten    --      2.0371                 7.7015                 8.8618

                     25                     26                     27
                      A                      A                      A
 Frequencies --    694.8922               744.4556               757.1667
 Red. masses --      1.7257                 1.9971                 1.2779
 Frc consts  --      0.4910                 0.6521                 0.4317
 IR Inten    --      5.6252                11.1242                60.5596

                     28                     29                     30
                      A                      A                      A
 Frequencies --    779.9600               786.5018               794.6144
 Red. masses --      2.9500                 2.1752                 2.8392
 Frc consts  --      1.0573                 0.7928                 1.0562
 IR Inten    --      4.2695                11.8334                 7.1651

                     31                     32                     33
                      A                      A                      A
 Frequencies --    807.7723               817.7705               834.2981
 Red. masses --      1.7433                 2.0737                 3.1696
 Frc consts  --      0.6702                 0.8171                 1.2999
 IR Inten    --     46.6126                32.6903                 1.5557

                     34                     35                     36
                      A                      A                      A
 Frequencies --    863.5853               930.2046               931.9595
 Red. masses --      1.5138                 1.3333                 1.3329
 Frc consts  --      0.6652                 0.6798                 0.6821
 IR Inten    --      0.3853                18.8033                27.1605

                     37                     38                     39
                      A                      A                      A
 Frequencies --    968.8354               972.7465               987.3668
 Red. masses --      1.6005                 1.2445                 1.9003
 Frc consts  --      0.8851                 0.6938                 1.0915
 IR Inten    --      2.1334                 0.5075                 3.4620

                     40                     41                     42
                      A                      A                      A
 Frequencies --    990.2000              1002.4722              1046.1290
 Red. masses --      1.7276                 1.6404                 2.1078
 Frc consts  --      0.9980                 0.9713                 1.3591
 IR Inten    --      4.8528                20.1317                 9.3054

                     43                     44                     45
                      A                      A                      A
 Frequencies --   1055.4475              1062.2196              1087.5402
 Red. masses --      2.5663                 1.9003                 1.6290
 Frc consts  --      1.6844                 1.2633                 1.1352
 IR Inten    --      2.3550                19.5568                 2.8424

                     46                     47                     48
                      A                      A                      A
 Frequencies --   1139.1713              1147.5648              1163.9843
 Red. masses --      2.4346                 2.1993                 1.6917
 Frc consts  --      1.8615                 1.7064                 1.3504
 IR Inten    --     20.3046                 7.1512                 9.9096

                     49                     50                     51
                      A                      A                      A
 Frequencies --   1166.8717              1193.4439              1195.6738
 Red. masses --      1.6129                 1.3632                 1.4915
 Frc consts  --      1.2939                 1.1440                 1.2563
 IR Inten    --     10.6468                 7.0789                14.5841

                     52                     53                     54
                      A                      A                      A
 Frequencies --   1211.9363              1242.6740              1284.8390
 Red. masses --      1.3901                 1.7170                 1.4989
 Frc consts  --      1.2030                 1.5622                 1.4578
 IR Inten    --     36.5517                 5.9494                 2.0039

                     55                     56                     57
                      A                      A                      A
 Frequencies --   1302.5478              1318.2663              1375.9971
 Red. masses --      1.5973                 2.3830                 1.5281
 Frc consts  --      1.5967                 2.4399                 1.7046
 IR Inten    --     13.8321                 1.9360                33.7465

                     58                     59                     60
                      A                      A                      A
 Frequencies --   1383.3224              1387.5972              1396.0238
 Red. masses --      2.0735                 2.0679                 4.0248
 Frc consts  --      2.3378                 2.3459                 4.6214
 IR Inten    --    126.7085                 0.4635                10.6282

                     61                     62                     63
                      A                      A                      A
 Frequencies --   1423.6923              1433.7787              1441.0912
 Red. masses --      2.0532                 2.7544                 1.2676
 Frc consts  --      2.4520                 3.3361                 1.5510
 IR Inten    --     11.4024                 8.0690                 6.4612

                     64                     65                     66
                      A                      A                      A
 Frequencies --   1475.2157              1481.6317              1498.7465
 Red. masses --      1.2078                 1.1886                 1.3602
 Frc consts  --      1.5487                 1.5373                 1.8002
 IR Inten    --      7.5915                 2.8183                35.6353

                     67                     68                     69
                      A                      A                      A
 Frequencies --   1502.6042              1508.3366              1513.7962
 Red. masses --      1.2185                 1.3605                 1.3503
 Frc consts  --      1.6209                 1.8236                 1.8231
 IR Inten    --     26.3724                 5.6346                34.8950

                     70                     71                     72
                      A                      A                      A
 Frequencies --   1518.4799              1523.4426              1534.7964
 Red. masses --      1.0871                 1.0636                 2.5974
 Frc consts  --      1.4768                 1.4544                 3.6048
 IR Inten    --     15.5431                 9.1002                 5.9273

                     73                     74                     75
                      A                      A                      A
 Frequencies --   1537.9953              1547.0227              1616.7158
 Red. masses --      1.1041                 1.0595                 5.7694
 Frc consts  --      1.5387                 1.4940                 8.8848
 IR Inten    --     10.9820                 4.7089                25.2496

                     76                     77                     78
                      A                      A                      A
 Frequencies --   1632.8513              1673.8279              1743.6784
 Red. masses --      6.4930                 6.4739                 5.1257
 Frc consts  --     10.1998                10.6865                 9.1820
 IR Inten    --      3.0213                11.2100                 8.0594

                     79                     80                     81
                      A                      A                      A
 Frequencies --   2919.0029              2944.9027              3016.7888
 Red. masses --      1.0739                 1.0619                 1.0849
 Frc consts  --      5.3912                 5.4261                 5.8176
 IR Inten    --     69.4494               144.6982                39.4306

                     82                     83                     84
                      A                      A                      A
 Frequencies --   3039.2537              3046.2964              3070.4562
 Red. masses --      1.0419                 1.0576                 1.0725
 Frc consts  --      5.6705                 5.7823                 5.9573
 IR Inten    --     21.8189                35.8663                43.0053

                     85                     86                     87
                      A                      A                      A
 Frequencies --   3088.5871              3095.4225              3120.3219
 Red. masses --      1.1058                 1.0955                 1.1017
 Frc consts  --      6.2150                 6.1844                 6.3200
 IR Inten    --     15.2285                13.8985                34.3736

                     88                     89                     90
                      A                      A                      A
 Frequencies --   3137.4324              3158.7940              3182.6394
 Red. masses --      1.1015                 1.0605                 1.0859
 Frc consts  --      6.3880                 6.2345                 6.4805
 IR Inten    --     22.2635                 8.7504                 4.8611

                     91                     92                     93
                      A                      A                      A
 Frequencies --   3198.2894              3219.0469              3222.2777
 Red. masses --      1.0909                 1.0927                 1.0943
 Frc consts  --      6.5747                 6.6714                 6.6942
 IR Inten    --     28.1532                18.8601                 8.5465

                     94                     95                     96
                      A                      A                      A
 Frequencies --   3236.7499              3252.5350              3495.0324
 Red. masses --      1.1158                 1.0961                 1.0743
 Frc consts  --      6.8875                 6.8317                 7.7318
 IR Inten    --     16.6343                 2.0013                 0.3374

 - Thermochemistry -
 -------------------
 Temperature   298.150 Kelvin.  Pressure   1.00000 Atm.
 Atom     1 has atomic number  6 and mass  12.00000

 Molecular mass:   214.14700 amu.
 Principal axes and moments of inertia in atomic units:
                           1         2         3
     Eigenvalues --  2098.149665290.291436816.89052
           X            0.99996  -0.00862  -0.00074
           Y            0.00861   0.99994  -0.00630
           Z            0.00080   0.00629   0.99998
 This molecule is an asymmetric top.
 Rotational symmetry number  1.
 Warning -- assumption of classical behavior for rotation
           may cause significant error
 Rotational temperatures (Kelvin)      0.04128     0.01637     0.01271
 Rotational constants (GHZ):           0.86016     0.34114     0.26475
 Zero-point vibrational energy     772992.8 (Joules/Mol)
                                  184.74970 (Kcal/Mol)
 Warning -- explicit consideration of  23 degrees of freedom as
           vibrations may cause significant error
 Vibrational temperatures:     41.05    65.37    83.17   107.10   130.51
          (Kelvin)            146.04   250.18   268.32   296.63   331.61
                              350.13   386.15   408.87   469.87   543.34
                              567.19   590.31   631.63   706.94   777.12
                              799.41   839.64   860.41   933.68   999.79
                             1071.11  1089.39  1122.19  1131.60  1143.27
                             1162.20  1176.59  1200.37  1242.51  1338.36
                             1340.88  1393.94  1399.57  1420.60  1424.68
                             1442.33  1505.15  1518.55  1528.30  1564.73
                             1639.01  1651.09  1674.71  1678.87  1717.10
                             1720.31  1743.71  1787.93  1848.60  1874.08
                             1896.69  1979.75  1990.29  1996.44  2008.57
                             2048.38  2062.89  2073.41  2122.51  2131.74
                             2156.36  2161.91  2170.16  2178.02  2184.75
                             2191.89  2208.23  2212.83  2225.82  2326.09
                             2349.31  2408.27  2508.76  4199.79  4237.06
                             4340.49  4372.81  4382.94  4417.70  4443.79
                             4453.62  4489.45  4514.07  4544.80  4579.11
                             4601.63  4631.49  4636.14  4656.96  4679.67
                             5028.57

 Zero-point correction=                           0.294417 (Hartree/Particle)
 Thermal correction to Energy=                    0.309924
 Thermal correction to Enthalpy=                  0.310868
 Thermal correction to Gibbs Free Energy=         0.250598
 Sum of electronic and zero-point Energies=           -653.579998
 Sum of electronic and thermal Energies=              -653.564491
 Sum of electronic and thermal Enthalpies=            -653.563547
 Sum of electronic and thermal Free Energies=         -653.623818

                     E (Thermal)             CV                S
                      KCal/Mol        Cal/Mol-Kelvin    Cal/Mol-Kelvin
 Total                  194.480             59.133            126.850
 Electronic               0.000              0.000              0.000
 Translational            0.889              2.981             41.988
 Rotational               0.889              2.981             32.692
 Vibrational            192.703             53.171             52.170
 Vibration     1          0.593              1.984              5.929
 Vibration     2          0.595              1.979              5.007
 Vibration     3          0.596              1.974              4.531
 Vibration     4          0.599              1.966              4.032
 Vibration     5          0.602              1.956              3.645
 Vibration     6          0.604              1.948              3.425
 Vibration     7          0.627              1.875              2.393
 Vibration     8          0.632              1.858              2.262
 Vibration     9          0.641              1.831              2.077
 Vibration    10          0.652              1.794              1.875
 Vibration    11          0.659              1.774              1.778
 Vibration    12          0.673              1.731              1.607
 Vibration    13          0.683              1.703              1.508
 Vibration    14          0.710              1.622              1.277
 Vibration    15          0.748              1.518              1.049
 Vibration    16          0.761              1.483              0.984
 Vibration    17          0.774              1.448              0.926
 Vibration    18          0.799              1.385              0.830
 Vibration    19          0.847              1.269              0.680
 Vibration    20          0.895              1.161              0.565
 Vibration    21          0.911              1.127              0.533
 Vibration    22          0.940              1.067              0.479
 Vibration    23          0.956              1.036              0.453

 Optimization completed.
    -- Stationary point found.
 Normal termination of Gaussian 16 at Thu Dec 10 21:27:53 2020.

 ----------------------------------------------------------------------
 # B3LYP/6-311++G(d,p) empiricaldispersion=gd3bj scf=xqc pop=npa geom=c
 heck
 ----------------------------------------------------------------------

 --------------------------------------
 CID_79185352_JID_6162_Energie_neutraal
 --------------------------------------
 Structure from the checkpoint file:  "JID_6162.chk"
 Charge =  0 Multiplicity = 1

 SCF Done:  E(RB3LYP) =  -654.048741498     A.U. after   15 cycles
 Normal termination of Gaussian 16 at Thu Dec 10 21:35:35 2020.

 ----------------------------------------------------------------------
 # B3LYP/6-311++G(d,p) empiricaldispersion=gd3bj scf=xqc pop=npa geom=c
 heck
 ----------------------------------------------------------------------

 ------------------------------------
 CID_79185352_JID_6162_Energie_kation
 ------------------------------------
 Structure from the checkpoint file:  "JID_6162.chk"
 Charge =  1 Multiplicity = 2

 SCF Done:  E(UB3LYP) =  -653.784039660     A.U. after   30 cycles
 Normal termination of Gaussian 16 at Thu Dec 10 21:51:20 2020.
 Gaussian 16:  ES64L-G16RevA.03 25-Dec-2016

 ----------------------------------------------------------------------
 # B3LYP/6-311++G(d,p) empiricaldispersion=gd3bj scf=xqc pop=npa geom=c
 heck
 ----------------------------------------------------------------------

 -----------------------------------
 CID_79185352_JID_6162_Energie_anion
 -----------------------------------
 Structure from the checkpoint file:  "JID_6162.chk"
 Charge = -1 Multiplicity = 2

                         Standard orientation:
 ---------------------------------------------------------------------
 Center     Atomic      Atomic             Coordinates (Angstroms)
 Number     Number       Type             X           Y           Z
 ---------------------------------------------------------------------
      1          6           0       -2.834861   -1.494693    1.477766
      2          6           0       -3.253881   -0.989528    0.124420
      3          6           0       -4.444578   -0.437117   -0.118094
      4          6           0       -2.238238   -1.153544   -0.989600
      5          7           0       -0.913240   -0.683580   -0.625534
      6          6           0        0.193817   -1.482734   -0.386732
      7          6           0        1.252084   -0.724177    0.045551
      8          6           0        0.785153    0.640598    0.082598
      9          6           0        1.386990    1.863828    0.418834
     10          6           0        0.625033    3.023591    0.355116
     11          6           0       -0.727242    2.987652   -0.042536
     12          6           0       -1.347467    1.793398   -0.392655
     13          6           0       -0.576080    0.627688   -0.330386
     14          6           0        2.613642   -1.217709    0.420421
     15          7           0        3.664069   -0.472132   -0.275371
     16          6           0        4.993054   -1.013322   -0.031312
     17          1           0       -3.641476   -1.392344    2.208796
     18          1           0       -1.962328   -0.940731    1.843716
     19          1           0       -2.540735   -2.552051    1.432163
     20          1           0       -4.710241   -0.063718   -1.104290
     21          1           0       -5.198277   -0.340597    0.658553
     22          1           0       -2.133259   -2.215403   -1.244474
     23          1           0       -2.578286   -0.633564   -1.892864
     24          1           0        0.131134   -2.550917   -0.548109
     25          1           0        2.434378    1.887169    0.700688
     26          1           0        1.076265    3.977645    0.613204
     27          1           0       -1.297323    3.911859   -0.078045
     28          1           0       -2.390808    1.765438   -0.687537
     29          1           0        2.787003   -1.080525    1.498526
     30          1           0        2.669539   -2.309754    0.238590
     31          1           0        3.461018   -0.482280   -1.273074
     32          1           0        5.099161   -2.087671   -0.276548
     33          1           0        5.731448   -0.452537   -0.613254
     34          1           0        5.242444   -0.893629    1.029944
 ---------------------------------------------------------------------

 SCF Done:  E(UB3LYP) =  -654.035563149     A.U. after   33 cycles
 SCF Done:  E(UB3LYP) =  -654.035563150     a.u. after    1 cycles

 The electronic state is 2-A.
 Alpha  occ. eigenvalues --  -14.26210 -14.20409 -10.12040 -10.10679 -10.10354
 Alpha  occ. eigenvalues --  -10.10120 -10.09473 -10.09333 -10.07974 -10.07793
 Alpha  occ. eigenvalues --  -10.07453 -10.07383 -10.07362 -10.07070 -10.06917
 Alpha  occ. eigenvalues --  -10.06862  -0.89293  -0.81178  -0.75519  -0.72811
 Alpha  occ. eigenvalues --   -0.69327  -0.65104  -0.63500  -0.61871  -0.59778
 Alpha  occ. eigenvalues --   -0.57604  -0.53960  -0.52388  -0.49046  -0.46909
 Alpha  occ. eigenvalues --   -0.44833  -0.41975  -0.40012  -0.38650  -0.38011
 Alpha  occ. eigenvalues --   -0.37607  -0.36321  -0.35719  -0.35148  -0.33265
 Alpha  occ. eigenvalues --   -0.33053  -0.32090  -0.31328  -0.30711  -0.29376
 Alpha  occ. eigenvalues --   -0.28795  -0.28293  -0.27745  -0.27487  -0.26355
 Alpha  occ. eigenvalues --   -0.25968  -0.24142  -0.23364  -0.18199  -0.16573
 Alpha  occ. eigenvalues --   -0.13662  -0.13172  -0.11081   0.04261
 Alpha virt. eigenvalues --    0.05916   0.06669   0.06773   0.07561   0.07902
 Alpha virt. eigenvalues --    0.08133   0.08714   0.08971   0.09527   0.10041
 Alpha virt. eigenvalues --    0.10169   0.10374   0.10590   0.11843   0.12037

  Beta  occ. eigenvalues --  -14.26212 -14.20399 -10.12006 -10.10675 -10.10328
  Beta  occ. eigenvalues --  -10.10104 -10.09445 -10.09314 -10.07969 -10.07786
  Beta  occ. eigenvalues --  -10.07448 -10.07381 -10.07359 -10.07041 -10.06915
  Beta  occ. eigenvalues --  -10.06830  -0.89285  -0.81160  -0.75502  -0.72776
  Beta  occ. eigenvalues --   -0.69300  -0.65086  -0.63477  -0.61835  -0.59722
  Beta  occ. eigenvalues --   -0.57555  -0.53908  -0.52355  -0.49022  -0.46884
  Beta  occ. eigenvalues --   -0.44767  -0.41923  -0.39988  -0.38600  -0.37971
  Beta  occ. eigenvalues --   -0.37577  -0.36289  -0.35688  -0.35114  -0.33247
  Beta  occ. eigenvalues --   -0.33025  -0.32056  -0.31286  -0.30683  -0.29339
  Beta  occ. eigenvalues --   -0.28774  -0.28259  -0.27712  -0.27460  -0.26327
  Beta  occ. eigenvalues --   -0.25946  -0.24129  -0.23338  -0.18172  -0.16470
  Beta  occ. eigenvalues --   -0.13637  -0.13152  -0.11058
  Beta virt. eigenvalues --    0.06231   0.06660   0.06924   0.07162   0.07935
  Beta virt. eigenvalues --    0.08419   0.08573   0.08946   0.09156   0.09842
  Beta virt. eigenvalues --    0.10281   0.10568   0.10791   0.10950   0.12106

 Mulliken charges and spin densities:
               1          2
     1  C    0.287367  -0.978028
     2  C   -1.298496   2.197457
     3  C    0.499884  -1.108262
     4  C    1.404409  -2.002586
     5  N    0.145494   0.183750
     6  C    0.233619  -0.388721
     7  C   -0.159048   0.970021
     8  C    0.358273   0.210683
     9  C   -0.249979  -0.306086
    10  C   -0.724262   0.056809
    11  C   -0.318612  -0.034504
    12  C   -0.055242  -0.364928
    13  C   -0.349695   0.430792
    14  C    0.887458  -1.902584
    15  N   -0.245268   0.174221
    16  C    0.615166  -0.965413
    17  H   -0.174065   0.312508
    18  H    0.119213   0.047693
    19  H   -0.185128   0.359881
    20  H   -0.200465   0.320820
    21  H   -0.104467   0.225354
    22  H   -0.532348   0.727157
    23  H   -0.185126   0.374095
    24  H   -0.883468   1.085953
    25  H    0.151072   0.025235
    26  H    0.091524   0.039134
    27  H    0.064790   0.088320
    28  H    0.163790  -0.029306
    29  H    0.044166   0.115209
    30  H   -0.028817   0.169879
    31  H    0.112641   0.092939
    32  H   -0.290109   0.417306
    33  H   -0.081568   0.208334
    34  H   -0.112707   0.246868
 Sum of Mulliken charges =  -1.00000   1.00000

 Dipole moment (field-independent basis, Debye):
    X=              0.6350    Y=              6.5570    Z=              1.3158  Tot=              6.7178
 Quadrupole moment (field-independent basis, Debye-Ang):
   XX=           -180.8613   YY=           -151.9148   ZZ=           -128.9597
   XY=             -3.5165   XZ=             -0.5984   YZ=             -3.3598

 Summary of Natural Population Analysis:

                                       Natural Population
                Natural  -----------------------------------------------
    Atom  No    Charge         Core      Valence    Rydberg      Total
 -----------------------------------------------------------------------
      C    1   -0.30239      0.99961     2.29661    0.00617     3.30239
      C    2   -0.00308      0.99953     1.99270    0.01085     3.00308
      C    3   -0.19384      0.99947     2.18595    0.00841     3.19384
      C    4   -0.09471      0.99955     2.08152    0.01364     3.09471
      N    5   -0.21196      0.99962     2.70039    0.01195     3.71196
      C    6    0.01842      0.99948     1.96969    0.01241     2.98158
      C    7   -0.06120      0.99948     2.05043    0.01129     3.06120
      C    8   -0.04049      0.99946     2.03056    0.01047     3.04049
      C    9   -0.09224      0.99953     2.08404    0.00867     3.09224
      C   10   -0.12065      0.99958     2.11114    0.00994     3.12065
      C   11   -0.10927      0.99958     2.09974    0.00995     3.10927
      C   12   -0.11790      0.99952     2.11101    0.00737     3.11790
      C   13    0.08519      0.99947     1.90446    0.01088     2.91481
      C   14   -0.09139      0.99959     2.07947    0.01233     3.09139
      N   15   -0.33554      0.99975     2.82506    0.01073     3.83554
      C   16   -0.17635      0.99967     2.16983    0.00685     3.17635
      H   17    0.10284      0.00000     0.39630    0.00086     0.39716
      H   18    0.10844      0.00000     0.39035    0.00121     0.39156
      H   19    0.10768      0.00000     0.39067    0.00165     0.39232
      H   20    0.09360      0.00000     0.40518    0.00122     0.40640
      H   21    0.09443      0.00000     0.40466    0.00091     0.40557
      H   22    0.11236      0.00000     0.38352    0.00411     0.38764
      H   23    0.10199      0.00000     0.39649    0.00152     0.39801
      H   24    0.10627      0.00000     0.39110    0.00263     0.39373
      H   25    0.10862      0.00000     0.39007    0.00132     0.39138
      H   26    0.09659      0.00000     0.40266    0.00075     0.40341
      H   27    0.09686      0.00000     0.40238    0.00076     0.40314
      H   28    0.10719      0.00000     0.39141    0.00140     0.39281
      H   29    0.09206      0.00000     0.40661    0.00133     0.40794
      H   30    0.08620      0.00000     0.41203    0.00178     0.41380
      H   31    0.17097      0.00000     0.32601    0.00302     0.32903
      H   32    0.07900      0.00000     0.41855    0.00245     0.42100
      H   33    0.09326      0.00000     0.40568    0.00106     0.40674
      H   34    0.08905      0.00000     0.40949    0.00145     0.41095
 =======================================================================
   * Total *   -0.00000     15.99291    41.81575    0.19134    58.00000

 Normal termination of Gaussian 16 at Thu Dec 10 22:08:56 2020.
