 Gaussian 16, Revision A.03,

 -----------------------------------------------------------
 # opt freq B3LYP/6-31G(d) empiricaldispersion=gd3bj scf=xqc
 -----------------------------------------------------------

 ------------------------------
 CID_23508451_JID_5791_neutraal
 ------------------------------
 Symbolic Z-matrix:
 Charge =  0 Multiplicity = 1

 SCF Done:  E(RB3LYP) =  -643.035236618     A.U. after   15 cycles
 SCF Done:  E(RB3LYP) =  -643.039260353     A.U. after   13 cycles
 SCF Done:  E(RB3LYP) =  -643.040041123     A.U. after   13 cycles
 SCF Done:  E(RB3LYP) =  -643.040517396     A.U. after   12 cycles
 SCF Done:  E(RB3LYP) =  -643.040649295     A.U. after   12 cycles
 SCF Done:  E(RB3LYP) =  -643.040714343     A.U. after   11 cycles
 SCF Done:  E(RB3LYP) =  -643.040732058     A.U. after   10 cycles
 SCF Done:  E(RB3LYP) =  -643.040741881     A.U. after    9 cycles
 SCF Done:  E(RB3LYP) =  -643.040745718     A.U. after    9 cycles
 SCF Done:  E(RB3LYP) =  -643.040747388     A.U. after    9 cycles
 SCF Done:  E(RB3LYP) =  -643.040747775     A.U. after    8 cycles
 SCF Done:  E(RB3LYP) =  -643.040747830     A.U. after    7 cycles
 Optimization completed.
    -- Stationary point found.

 1\1\GINC-NODE362\FOpt\RB3LYP\6-31G(d)\C11H8N4\VSC10255\10-Dec-2020\0\\
 # opt freq B3LYP/6-31G(d) empiricaldispersion=gd3bj scf=xqc\\CID_23508
 451_JID_5791_neutraal\\0,1\C,-0.1392696638,-1.3204911088,-0.1533160675
 \C,1.0951448649,-0.8071380333,-0.5349221124\N,1.4647642617,0.455981427
 2,-0.2977755272\C,0.5645491764,1.2175006841,0.3403346871\N,-0.66083915
 11,0.8320512005,0.7584521461\C,-0.9921840218,-0.4306942758,0.504551401
 2\N,0.8492411194,2.5323372244,0.6313532353\C,1.9696031156,3.3242307479
 ,0.388371518\C,3.1305984855,2.8747380356,-0.2658542532\C,4.1935072602,

 Normal termination of Gaussian 16 at Thu Dec 10 16:53:57 2020.

 --------------------------------------------------------------------
 #N Geom=AllCheck Guess=TCheck SCRF=Check GenChk RB3LYP/6-31G(d) Freq
 --------------------------------------------------------------------

 Structure from the checkpoint file:  "JID_5791.chk"
 ------------------------------
 CID_23508451_JID_5791_neutraal
 ------------------------------
 Charge =  0 Multiplicity = 1

 SCF Done:  E(RB3LYP) =  -643.040747830     A.U. after    1 cycles

  Exact polarizability: 272.965   1.460 130.587   0.000  -0.001  47.176
 Approx polarizability: 393.277  11.886 238.247   0.002  -0.003  73.859

                      1                      2                      3
                      A                      A                      A
 Frequencies --     37.8033                50.6844                96.7456
 Red. masses --      5.8742                 4.6766                 7.6003
 Frc consts  --      0.0049                 0.0071                 0.0419
 IR Inten    --      0.0123                 0.0329                 1.5397

                      4                      5                      6
                      A                      A                      A
 Frequencies --    107.3644               169.6990               193.5622
 Red. masses --      7.8135                 6.9130                 6.4284
 Frc consts  --      0.0531                 0.1173                 0.1419
 IR Inten    --      7.1317                 4.9200                 0.6205

                      7                      8                      9
                      A                      A                      A
 Frequencies --    277.2218               287.5572               309.0551
 Red. masses --      6.4914                 8.7461                 5.5377
 Frc consts  --      0.2939                 0.4261                 0.3116
 IR Inten    --      1.6912                 1.0261                 6.4392

                     10                     11                     12
                      A                      A                      A
 Frequencies --    413.3498               418.6408               483.6920
 Red. masses --      3.5934                 3.6543                 5.0351
 Frc consts  --      0.3617                 0.3773                 0.6941
 IR Inten    --      0.0658                 0.0547                 0.0237

                     13                     14                     15
                      A                      A                      A
 Frequencies --    512.9527               525.5097               559.5924
 Red. masses --      7.7699                 2.5708                 7.8717
 Frc consts  --      1.2045                 0.4183                 1.4523
 IR Inten    --      7.3731                 5.6214                 0.2203

                     16                     17                     18
                      A                      A                      A
 Frequencies --    566.2837               629.1360               649.3501
 Red. masses --      3.2157                 1.1545                 7.7134
 Frc consts  --      0.6076                 0.2692                 1.9162
 IR Inten    --     15.4243                68.3524                 4.7246

                     19                     20                     21
                      A                      A                      A
 Frequencies --    650.9820               696.9456               730.1628
 Red. masses --      7.6224                 7.2041                 4.2368
 Frc consts  --      1.9032                 2.0617                 1.3309
 IR Inten    --      5.0432                 1.0328                 0.2291

                     22                     23                     24
                      A                      A                      A
 Frequencies --    760.9134               806.3857               809.5465
 Red. masses --      6.1234                 1.2247                 9.2533
 Frc consts  --      2.0889                 0.4692                 3.5730
 IR Inten    --      0.1783                19.3086                35.4637

                     25                     26                     27
                      A                      A                      A
 Frequencies --    832.5311               854.6715               867.1459
 Red. masses --      1.4067                 6.1562                 1.4466
 Frc consts  --      0.5745                 2.6495                 0.6409
 IR Inten    --     19.9595                 0.8941                30.6844

                     28                     29                     30
                      A                      A                      A
 Frequencies --    944.3504               954.4299               989.6911
 Red. masses --      5.5010                 1.3067                 1.3061
 Frc consts  --      2.8904                 0.7013                 0.7538
 IR Inten    --      1.3541                 0.0460                 0.8895

                     31                     32                     33
                      A                      A                      A
 Frequencies --    991.4699              1004.1906              1008.8307
 Red. masses --      1.3956                 1.3693                 9.1457
 Frc consts  --      0.8083                 0.8135                 5.4841
 IR Inten    --      0.0752                 0.0154                21.3852

                     34                     35                     36
                      A                      A                      A
 Frequencies --   1038.6272              1104.0802              1125.6868
 Red. masses --      2.8069                 2.3701                 1.4631
 Frc consts  --      1.7840                 1.7022                 1.0924
 IR Inten    --      0.0991                 4.2060                 0.4509

                     37                     38                     39
                      A                      A                      A
 Frequencies --   1157.2961              1212.8289              1243.6690
 Red. masses --      1.3297                 1.3145                 2.5728
 Frc consts  --      1.0493                 1.1392                 2.3446
 IR Inten    --      4.4884                46.0256                 0.1843

                     40                     41                     42
                      A                      A                      A
 Frequencies --   1258.1579              1294.3548              1298.8785
 Red. masses --      2.4950                 3.6135                 2.3953
 Frc consts  --      2.3270                 3.5669                 2.3809
 IR Inten    --     19.9614                35.3909                12.9082

                     43                     44                     45
                      A                      A                      A
 Frequencies --   1343.9821              1362.9536              1403.2274
 Red. masses --      1.7926                 2.4560                 2.0115
 Frc consts  --      1.9077                 2.6880                 2.3336
 IR Inten    --      0.2969                24.1435                51.1704

                     46                     47                     48
                      A                      A                      A
 Frequencies --   1447.5511              1469.7894              1500.1414
 Red. masses --      1.9177                 3.1488                 2.6260
 Frc consts  --      2.3675                 4.0078                 3.4819
 IR Inten    --     56.2904               289.8348               218.0518

                     49                     50                     51
                      A                      A                      A
 Frequencies --   1553.9976              1579.6905              1618.0455
 Red. masses --      2.4131                 4.0244                 6.9083
 Frc consts  --      3.4334                 5.9169                10.6562
 IR Inten    --     13.7377               787.5289                67.5359

                     52                     53                     54
                      A                      A                      A
 Frequencies --   1643.8135              1647.1071              1675.4003
 Red. masses --      2.9036                 5.2679                 5.8434
 Frc consts  --      4.6227                 8.4203                 9.6639
 IR Inten    --    286.4893               450.7190                48.8099

                     55                     56                     57
                      A                      A                      A
 Frequencies --   2344.5994              3178.5939              3181.8055
 Red. masses --     12.6769                 1.0906                 1.0915
 Frc consts  --     41.0582                 6.4923                 6.5104
 IR Inten    --     86.5772                30.8575                24.0370

                     58                     59                     60
                      A                      A                      A
 Frequencies --   3183.5601              3216.0347              3221.9319
 Red. masses --      1.0894                 1.0914                 1.0937
 Frc consts  --      6.5054                 6.6507                 6.6895
 IR Inten    --     12.3748                 4.0352                 5.2157

                     61                     62                     63
                      A                      A                      A
 Frequencies --   3238.6404              3278.9123              3604.8292
 Red. masses --      1.0957                 1.0920                 1.0757
 Frc consts  --      6.7711                 6.9169                 8.2356
 IR Inten    --      7.5276                 9.8177                40.3161

 - Thermochemistry -
 -------------------
 Temperature   298.150 Kelvin.  Pressure   1.00000 Atm.
 Atom     1 has atomic number  6 and mass  12.00000

 Molecular mass:   196.07490 amu.
 Principal axes and moments of inertia in atomic units:
                           1         2         3
     Eigenvalues --   740.102186998.316457738.41862
           X            0.99998  -0.00686  -0.00000
           Y            0.00686   0.99998  -0.00000
           Z            0.00000   0.00000   1.00000
 This molecule is an asymmetric top.
 Rotational symmetry number  1.
 Warning -- assumption of classical behavior for rotation
           may cause significant error
 Rotational temperatures (Kelvin)      0.11703     0.01238     0.01119
 Rotational constants (GHZ):           2.43850     0.25788     0.23322
 Zero-point vibrational energy     458281.2 (Joules/Mol)
                                  109.53184 (Kcal/Mol)
 Warning -- explicit consideration of  16 degrees of freedom as
           vibrations may cause significant error
 Vibrational temperatures:     54.39    72.92   139.20   154.47   244.16
          (Kelvin)            278.49   398.86   413.73   444.66   594.72
                              602.33   695.92   738.02   756.09   805.13
                              814.76   905.19   934.27   936.62  1002.75
                             1050.54  1094.78  1160.21  1164.76  1197.83
                             1229.68  1247.63  1358.71  1373.21  1423.94
                             1426.50  1444.81  1451.48  1494.35  1588.53
                             1619.61  1665.09  1744.99  1789.36  1810.21
                             1862.29  1868.80  1933.69  1960.99  2018.93
                             2082.70  2114.70  2158.37  2235.86  2272.82
                             2328.01  2365.08  2369.82  2410.53  3373.36
                             4573.29  4577.91  4580.43  4627.16  4635.64
                             4659.68  4717.62  5186.55

 Zero-point correction=                           0.174550 (Hartree/Particle)
 Thermal correction to Energy=                    0.186150
 Thermal correction to Enthalpy=                  0.187094
 Thermal correction to Gibbs Free Energy=         0.135481
 Sum of electronic and zero-point Energies=           -642.866198
 Sum of electronic and thermal Energies=              -642.854598
 Sum of electronic and thermal Enthalpies=            -642.853654
 Sum of electronic and thermal Free Energies=         -642.905267

                     E (Thermal)             CV                S
                      KCal/Mol        Cal/Mol-Kelvin    Cal/Mol-Kelvin
 Total                  116.811             44.783            108.630
 Electronic               0.000              0.000              0.000
 Translational            0.889              2.981             41.725
 Rotational               0.889              2.981             32.061
 Vibrational            115.033             38.822             34.844
 Vibration     1          0.594              1.982              5.371
 Vibration     2          0.595              1.977              4.791
 Vibration     3          0.603              1.951              3.519
 Vibration     4          0.606              1.943              3.316
 Vibration     5          0.625              1.880              2.439
 Vibration     6          0.635              1.849              2.193
 Vibration     7          0.678              1.716              1.551
 Vibration     8          0.685              1.697              1.488
 Vibration     9          0.698              1.656              1.367
 Vibration    10          0.777              1.441              0.915
 Vibration    11          0.781              1.430              0.897
 Vibration    12          0.840              1.286              0.700
 Vibration    13          0.868              1.221              0.627
 Vibration    14          0.880              1.194              0.597
 Vibration    15          0.915              1.119              0.525
 Vibration    16          0.922              1.104              0.511

 Optimization completed.
    -- Stationary point found.

 1\1\GINC-NODE362\Freq\RB3LYP\6-31G(d)\C11H8N4\VSC10255\10-Dec-2020\0\\
 #N Geom=AllCheck Guess=TCheck SCRF=Check GenChk RB3LYP/6-31G(d) Freq\\
 CID_23508451_JID_5791_neutraal\\0,1\C,-0.1392696638,-1.3204911088,-0.1
 533160675\C,1.0951448649,-0.8071380333,-0.5349221124\N,1.4647642617,0.
 4559814272,-0.2977755272\C,0.5645491764,1.2175006841,0.3403346871\N,-0
 .6608391511,0.8320512005,0.7584521461\C,-0.9921840218,-0.4306942758,0.
 5045514012\N,0.8492411194,2.5323372244,0.6313532353\C,1.9696031156,3.3
 242307479,0.388371518\C,3.1305984855,2.8747380356,-0.2658542532\C,4.19

 Normal termination of Gaussian 16 at Thu Dec 10 17:00:07 2020.

 ----------------------------------------------------------------------
 # B3LYP/6-311++G(d,p) empiricaldispersion=gd3bj scf=xqc pop=npa geom=c
 heck
 ----------------------------------------------------------------------

 --------------------------------------
 CID_23508451_JID_5791_Energie_neutraal
 --------------------------------------
 Structure from the checkpoint file:  "JID_5791.chk"
 Charge =  0 Multiplicity = 1

 SCF Done:  E(RB3LYP) =  -643.207862340     A.U. after   15 cycles
 Normal termination of Gaussian 16 at Thu Dec 10 17:03:57 2020.

 ----------------------------------------------------------------------
 # B3LYP/6-311++G(d,p) empiricaldispersion=gd3bj scf=xqc pop=npa geom=c
 heck
 ----------------------------------------------------------------------

 ------------------------------------
 CID_23508451_JID_5791_Energie_kation
 ------------------------------------
 Structure from the checkpoint file:  "JID_5791.chk"
 Charge =  1 Multiplicity = 2

 SCF Done:  E(UB3LYP) =  -642.915809798     A.U. after   23 cycles
 Normal termination of Gaussian 16 at Thu Dec 10 17:15:38 2020.
 Gaussian 16:  ES64L-G16RevA.03 25-Dec-2016

 -----------------------------------
 CID_23508451_JID_5791_Energie_anion
 -----------------------------------
 Structure from the checkpoint file:  "JID_5791.chk"
 Charge = -1 Multiplicity = 2

                         Standard orientation:
 ---------------------------------------------------------------------
 Center     Atomic      Atomic             Coordinates (Angstroms)
 Number     Number       Type             X           Y           Z
 ---------------------------------------------------------------------
      1          6           0        4.454359   -0.814653   -0.000126
      2          6           0        3.277301   -1.554564   -0.000022
      3          7           0        2.063225   -0.993896    0.000073
      4          6           0        2.039415    0.346595    0.000045
      5          7           0        3.111443    1.168620   -0.000032
      6          6           0        4.301094    0.574051   -0.000125
      7          7           0        0.838725    1.019559    0.000094
      8          6           0       -0.482746    0.577900    0.000109
      9          6           0       -0.865707   -0.775357    0.000155
     10          6           0       -2.213453   -1.108952    0.000104
     11          6           0       -3.207655   -0.118013    0.000012
     12          6           0       -2.822347    1.233571   -0.000028
     13          6           0       -1.480601    1.572645    0.000024
     14          6           0       -4.591298   -0.476213   -0.000090
     15          7           0       -5.718422   -0.766632   -0.000182
     16          1           0        5.430087   -1.285490   -0.000193
     17          1           0        3.295792   -2.642743    0.000016
     18          1           0        5.165805    1.235383   -0.000159
     19          1           0        0.974968    2.022336    0.000082
     20          1           0       -0.104388   -1.540898    0.000206
     21          1           0       -2.505057   -2.154088    0.000127
     22          1           0       -3.580644    2.009232   -0.000094
     23          1           0       -1.191527    2.620655    0.000004
 ---------------------------------------------------------------------

 SCF Done:  E(UB3LYP) =  -643.221367449     A.U. after   25 cycles

 The electronic state is 2-A.
 Alpha  occ. eigenvalues --  -14.22862 -14.18264 -14.17240 -14.16155 -10.14026
 Alpha  occ. eigenvalues --  -10.09354 -10.08643 -10.07504 -10.07351 -10.06650
 Alpha  occ. eigenvalues --  -10.06583 -10.05759 -10.05462 -10.04781 -10.04449
 Alpha  occ. eigenvalues --   -0.87913  -0.81124  -0.77535  -0.75759  -0.73393
 Alpha  occ. eigenvalues --   -0.66314  -0.63397  -0.62767  -0.54636  -0.53486
 Alpha  occ. eigenvalues --   -0.50143  -0.48748  -0.42890  -0.42376  -0.41819
 Alpha  occ. eigenvalues --   -0.36602  -0.36401  -0.33333  -0.32408  -0.32289
 Alpha  occ. eigenvalues --   -0.31074  -0.29669  -0.28247  -0.27798  -0.27785
 Alpha  occ. eigenvalues --   -0.24612  -0.23770  -0.23569  -0.20317  -0.20307
 Alpha  occ. eigenvalues --   -0.19211  -0.18387  -0.15088  -0.14481  -0.12235
 Alpha  occ. eigenvalues --   -0.09093   0.04024
 Alpha virt. eigenvalues --    0.07170   0.07807   0.08552   0.09392   0.09982
 Alpha virt. eigenvalues --    0.10490   0.10833   0.11810   0.12031   0.13536
 Alpha virt. eigenvalues --    0.14086   0.14308   0.15442   0.15567   0.15756

  Beta  occ. eigenvalues --  -14.22932 -14.18317 -14.17058 -14.15724 -10.13928
  Beta  occ. eigenvalues --  -10.09090 -10.08556 -10.07501 -10.06971 -10.06622
  Beta  occ. eigenvalues --  -10.06413 -10.05749 -10.05305 -10.04785 -10.04505
  Beta  occ. eigenvalues --   -0.87643  -0.80900  -0.77256  -0.75262  -0.73152
  Beta  occ. eigenvalues --   -0.65891  -0.63198  -0.62459  -0.54200  -0.53212
  Beta  occ. eigenvalues --   -0.49836  -0.48482  -0.42766  -0.42228  -0.41632
  Beta  occ. eigenvalues --   -0.36415  -0.36269  -0.33180  -0.32301  -0.31499
  Beta  occ. eigenvalues --   -0.31018  -0.29499  -0.28084  -0.27642  -0.26940
  Beta  occ. eigenvalues --   -0.23770  -0.23674  -0.23283  -0.20204  -0.19634
  Beta  occ. eigenvalues --   -0.18188  -0.17688  -0.13976  -0.13774  -0.11932
  Beta  occ. eigenvalues --   -0.08409
  Beta virt. eigenvalues --    0.07757   0.08513   0.08528   0.09097   0.09353
  Beta virt. eigenvalues --    0.10413   0.10454   0.10783   0.11981   0.12805
  Beta virt. eigenvalues --    0.13507   0.14038   0.14446   0.15520   0.15634

 Mulliken charges and spin densities:
               1          2
     1  C   -0.362154   0.015165
     2  C    0.109168   0.084624
     3  N   -0.199680   0.203840
     4  C   -0.310926   0.051310
     5  N   -0.108332  -0.040456
     6  C   -0.009888   0.278830
     7  N   -0.131402  -0.035213
     8  C    0.090684   0.154241
     9  C   -0.296603  -0.046243
    10  C   -0.082168   0.142647
    11  C    1.920227   0.119382
    12  C   -0.614608   0.031704
    13  C   -0.293123   0.036331
    14  C   -1.773190  -0.049948
    15  N   -0.293019   0.098085
    16  H    0.116029   0.000363
    17  H    0.135057  -0.007341
    18  H    0.151444  -0.023363
    19  H    0.292343  -0.000217
    20  H    0.246727  -0.001595
    21  H    0.169517  -0.009415
    22  H    0.146937  -0.000979
    23  H    0.096959  -0.001751
 Sum of Mulliken charges =  -1.00000   1.00000

 Dipole moment (field-independent basis, Debye):
    X=              5.4408    Y=              1.6274    Z=              0.0003  Tot=              5.6790
 Quadrupole moment (field-independent basis, Debye-Ang):
   XX=           -180.7865   YY=            -91.9430   ZZ=            -96.6305
   XY=            -12.2425   XZ=             -0.0017   YZ=             -0.0003

 Summary of Natural Population Analysis:

                                       Natural Population
                Natural  -----------------------------------------------
    Atom  No    Charge         Core      Valence    Rydberg      Total
 -----------------------------------------------------------------------
      C    1   -0.17652      0.99956     2.16813    0.00882     3.17652
      C    2    0.06190      0.99961     1.92403    0.01446     2.93810
      N    3   -0.22223      0.99967     2.71220    0.01036     3.72223
      C    4    0.31288      0.99961     1.67064    0.01686     2.68712
      N    5   -0.28264      0.99969     2.77339    0.00956     3.78264
      C    6    0.10748      0.99962     1.87816    0.01474     2.89252
      N    7   -0.29881      0.99963     2.78668    0.01250     3.79881
      C    8    0.13435      0.99950     1.85622    0.00994     2.86565
      C    9   -0.13616      0.99954     2.12798    0.00864     3.13616
      C   10   -0.04047      0.99955     2.03325    0.00766     3.04047
      C   11   -0.09079      0.99942     2.08166    0.00971     3.09079
      C   12   -0.07171      0.99955     2.06417    0.00799     3.07171
      C   13   -0.12472      0.99955     2.11688    0.00830     3.12472
      C   14    0.15325      0.99964     1.82894    0.01817     2.84675
      N   15   -0.18596      0.99979     2.67451    0.01166     3.68596
      H   16    0.09641      0.00000     0.40245    0.00114     0.40359
      H   17    0.08039      0.00000     0.41845    0.00117     0.41961
      H   18    0.07647      0.00000     0.42228    0.00125     0.42353
      H   19    0.19486      0.00000     0.30343    0.00171     0.30514
      H   20    0.12411      0.00000     0.37462    0.00127     0.37589
      H   21    0.09658      0.00000     0.40254    0.00088     0.40342
      H   22    0.09829      0.00000     0.40081    0.00090     0.40171
      H   23    0.09305      0.00000     0.40587    0.00107     0.40695
 =======================================================================
   * Total *   -0.00000     14.99392    35.82730    0.17878    51.00000

 Normal termination of Gaussian 16 at Thu Dec 10 17:22:06 2020.
