 Gaussian 16, Revision A.03,

 -----------------------------------------------------------
 # opt freq B3LYP/6-31G(d) empiricaldispersion=gd3bj scf=xqc
 -----------------------------------------------------------

 ------------------------------
 CID_79878181_JID_5760_neutraal
 ------------------------------
 Symbolic Z-matrix:
 Charge =  0 Multiplicity = 1

 SCF Done:  E(RB3LYP) =  -635.408408350     A.U. after   13 cycles
 SCF Done:  E(RB3LYP) =  -635.415093536     A.U. after   12 cycles
 SCF Done:  E(RB3LYP) =  -635.415181046     A.U. after   12 cycles
 SCF Done:  E(RB3LYP) =  -635.416238745     A.U. after   12 cycles
 SCF Done:  E(RB3LYP) =  -635.416165942     A.U. after   11 cycles
 SCF Done:  E(RB3LYP) =  -635.416595171     A.U. after   11 cycles
 SCF Done:  E(RB3LYP) =  -635.416692629     A.U. after   11 cycles
 SCF Done:  E(RB3LYP) =  -635.416747553     A.U. after   11 cycles
 SCF Done:  E(RB3LYP) =  -635.416770822     A.U. after   10 cycles
 SCF Done:  E(RB3LYP) =  -635.416780087     A.U. after    9 cycles
 SCF Done:  E(RB3LYP) =  -635.416783780     A.U. after    9 cycles
 SCF Done:  E(RB3LYP) =  -635.416784371     A.U. after    8 cycles
 SCF Done:  E(RB3LYP) =  -635.416784550     A.U. after    7 cycles
 Optimization completed.
    -- Stationary point found.
 Normal termination of Gaussian 16 at Thu Dec 10 16:54:25 2020.

 --------------------------------------------------------------------
 #N Geom=AllCheck Guess=TCheck SCRF=Check GenChk RB3LYP/6-31G(d) Freq
 --------------------------------------------------------------------

 Structure from the checkpoint file:  "JID_5760.chk"
 ------------------------------
 CID_79878181_JID_5760_neutraal
 ------------------------------
 Charge =  0 Multiplicity = 1

 SCF Done:  E(RB3LYP) =  -635.416784550     A.U. after    1 cycles

  Exact polarizability: 173.381  -0.995 127.277  -6.758  -5.319 127.397
 Approx polarizability: 210.694   1.849 184.219 -13.633 -16.146 201.075

                      1                      2                      3
                      A                      A                      A
 Frequencies --     31.0251                41.8988                77.8656
 Red. masses --      3.7018                 2.7601                 2.9064
 Frc consts  --      0.0021                 0.0029                 0.0104
 IR Inten    --      0.0661                 0.0402                 0.2648

                      4                      5                      6
                      A                      A                      A
 Frequencies --     96.8101               114.8813               133.4956
 Red. masses --      3.7758                 3.1478                 3.5194
 Frc consts  --      0.0209                 0.0245                 0.0370
 IR Inten    --      3.0073                 1.8054                 1.3129

                      7                      8                      9
                      A                      A                      A
 Frequencies --    185.0257               209.5243               238.9585
 Red. masses --      2.2725                 3.4431                 1.1997
 Frc consts  --      0.0458                 0.0891                 0.0404
 IR Inten    --      0.1455                 0.3378                 0.0253

                     10                     11                     12
                      A                      A                      A
 Frequencies --    263.8633               287.4452               291.2428
 Red. masses --      1.9996                 2.4953                 1.3783
 Frc consts  --      0.0820                 0.1215                 0.0689
 IR Inten    --      3.4039                 3.7067                 3.0670

                     13                     14                     15
                      A                      A                      A
 Frequencies --    297.8102               329.7297               351.9355
 Red. masses --      1.7346                 1.9726                 1.5985
 Frc consts  --      0.0906                 0.1264                 0.1166
 IR Inten    --     11.1522                 6.7808                32.9302

                     16                     17                     18
                      A                      A                      A
 Frequencies --    359.6967               375.3215               393.4882
 Red. masses --      2.0526                 2.0799                 2.0002
 Frc consts  --      0.1565                 0.1726                 0.1825
 IR Inten    --     11.1763                 0.8405                 9.8553

                     19                     20                     21
                      A                      A                      A
 Frequencies --    440.4592               445.2951               465.6058
 Red. masses --      3.2630                 2.1998                 2.1429
 Frc consts  --      0.3730                 0.2570                 0.2737
 IR Inten    --      2.7573                22.8606                42.9677

                     22                     23                     24
                      A                      A                      A
 Frequencies --    480.7097               519.9965               543.3708
 Red. masses --      2.8078                 2.5368                 2.0030
 Frc consts  --      0.3823                 0.4041                 0.3484
 IR Inten    --     11.6184                18.9656                 9.1508

                     25                     26                     27
                      A                      A                      A
 Frequencies --    558.6141               647.1575               700.7897
 Red. masses --      2.0320                 1.9112                 3.6625
 Frc consts  --      0.3736                 0.4716                 1.0598
 IR Inten    --     29.9863               154.1500                 0.9226

                     28                     29                     30
                      A                      A                      A
 Frequencies --    742.6761               763.7436               769.9719
 Red. masses --      3.0819                 2.5910                 1.1574
 Frc consts  --      1.0016                 0.8904                 0.4043
 IR Inten    --      4.5087               148.4791                 7.7016

                     31                     32                     33
                      A                      A                      A
 Frequencies --    796.3653               826.5461               845.3121
 Red. masses --      2.0734                 1.3211                 1.8905
 Frc consts  --      0.7748                 0.5318                 0.7959
 IR Inten    --      0.3621                 3.8609                 1.5771

                     34                     35                     36
                      A                      A                      A
 Frequencies --    859.4285               867.7519               900.3946
 Red. masses --      2.4631                 2.1262                 2.2910
 Frc consts  --      1.0719                 0.9433                 1.0943
 IR Inten    --      1.9772                 5.5812                12.3853

                     37                     38                     39
                      A                      A                      A
 Frequencies --    933.8134               941.6695               957.0077
 Red. masses --      2.1256                 1.6693                 1.5577
 Frc consts  --      1.0920                 0.8721                 0.8406
 IR Inten    --      1.4131                 5.3237                 0.4277

                     40                     41                     42
                      A                      A                      A
 Frequencies --    966.2853               992.0521              1000.3007
 Red. masses --      2.3543                 2.1588                 1.9686
 Frc consts  --      1.2952                 1.2518                 1.1606
 IR Inten    --      7.1014                13.7268                 6.3595

                     43                     44                     45
                      A                      A                      A
 Frequencies --   1012.2956              1036.1920              1052.5220
 Red. masses --      1.8152                 1.3124                 1.5497
 Frc consts  --      1.0959                 0.8302                 1.0115
 IR Inten    --      3.4678                 0.1860                 5.3589

                     46                     47                     48
                      A                      A                      A
 Frequencies --   1058.6667              1076.7687              1079.4805
 Red. masses --      1.4746                 1.8977                 1.4452
 Frc consts  --      0.9737                 1.2963                 0.9922
 IR Inten    --      4.6539                 1.5955                 4.0364

                     49                     50                     51
                      A                      A                      A
 Frequencies --   1092.5686              1103.4303              1127.3170
 Red. masses --      2.0906                 1.5162                 1.1964
 Frc consts  --      1.4703                 1.0877                 0.8958
 IR Inten    --      0.3399                 5.4632                 3.5145

                     52                     53                     54
                      A                      A                      A
 Frequencies --   1167.2587              1174.7848              1189.0034
 Red. masses --      1.3905                 2.2323                 2.1330
 Frc consts  --      1.1162                 1.8152                 1.7767
 IR Inten    --      3.0115                15.9147                17.7505

                     55                     56                     57
                      A                      A                      A
 Frequencies --   1201.7583              1217.6853              1231.2433
 Red. masses --      1.3794                 2.4903                 2.6023
 Frc consts  --      1.1738                 2.1756                 2.3243
 IR Inten    --      0.2191                 1.1549                40.2372

                     58                     59                     60
                      A                      A                      A
 Frequencies --   1249.9152              1272.7818              1279.7436
 Red. masses --      2.3669                 1.7071                 1.9013
 Frc consts  --      2.1787                 1.6294                 1.8346
 IR Inten    --      2.4915                 1.0627                19.6798

                     61                     62                     63
                      A                      A                      A
 Frequencies --   1307.1166              1324.5776              1338.6632
 Red. masses --      1.3311                 1.6872                 1.7294
 Frc consts  --      1.3399                 1.7441                 1.8259
 IR Inten    --      4.6048                20.7585                57.6173

                     64                     65                     66
                      A                      A                      A
 Frequencies --   1372.2877              1385.0235              1388.7802
 Red. masses --      1.3673                 1.4101                 1.3570
 Frc consts  --      1.5170                 1.5937                 1.5420
 IR Inten    --      3.3197                 7.0083                 7.7188

                     67                     68                     69
                      A                      A                      A
 Frequencies --   1400.3095              1403.3058              1414.5937
 Red. masses --      1.4479                 1.3663                 1.5636
 Frc consts  --      1.6728                 1.5853                 1.8435
 IR Inten    --      1.1145                 2.9429                 5.6002

                     70                     71                     72
                      A                      A                      A
 Frequencies --   1424.7393              1433.3904              1446.2970
 Red. masses --      1.2903                 1.2296                 1.2376
 Frc consts  --      1.5432                 1.4884                 1.5252
 IR Inten    --      5.4363                31.1936                 8.9536

                     73                     74                     75
                      A                      A                      A
 Frequencies --   1490.5787              1508.0430              1508.5682
 Red. masses --      1.0981                 1.0767                 1.0897
 Frc consts  --      1.4375                 1.4427                 1.4611
 IR Inten    --      4.6086                 1.7766                 1.0607

                     76                     77                     78
                      A                      A                      A
 Frequencies --   1517.4316              1519.8131              1523.2577
 Red. masses --      1.0858                 1.0713                 1.2566
 Frc consts  --      1.4731                 1.4580                 1.7178
 IR Inten    --     13.1283                 4.6381                51.9132

                     79                     80                     81
                      A                      A                      A
 Frequencies --   1524.5891              1532.9017              1540.0748
 Red. masses --      1.1025                 1.0923                 1.1389
 Frc consts  --      1.5098                 1.5122                 1.5916
 IR Inten    --     26.6364                 3.6496                17.6267

                     82                     83                     84
                      A                      A                      A
 Frequencies --   1541.6744              1548.7155              1681.6348
 Red. masses --      1.4730                 1.0971                 1.1483
 Frc consts  --      2.0628                 1.5504                 1.9133
 IR Inten    --    122.3789                 6.8236                72.2297

                     85                     86                     87
                      A                      A                      A
 Frequencies --   1769.0492              2981.5034              3021.4065
 Red. masses --      6.6711                 1.0830                 1.0613
 Frc consts  --     12.3007                 5.6720                 5.7082
 IR Inten    --    452.8793                28.8948                25.9906

                     88                     89                     90
                      A                      A                      A
 Frequencies --   3027.0547              3032.0484              3041.2990
 Red. masses --      1.0668                 1.0626                 1.0399
 Frc consts  --      5.7596                 5.7557                 5.6671
 IR Inten    --     25.5106                13.3351                27.6551

                     91                     92                     93
                      A                      A                      A
 Frequencies --   3044.7126              3050.5784              3061.2711
 Red. masses --      1.0536                 1.0477                 1.0970
 Frc consts  --      5.7545                 5.7446                 6.0571
 IR Inten    --     39.3486                19.8837                49.8884

                     94                     95                     96
                      A                      A                      A
 Frequencies --   3071.6563              3077.7506              3089.8731
 Red. masses --      1.0948                 1.1004                 1.1024
 Frc consts  --      6.0862                 6.1415                 6.2011
 IR Inten    --     64.4771                58.2159                56.1912

                     97                     98                     99
                      A                      A                      A
 Frequencies --   3102.1218              3105.1166              3124.9956
 Red. masses --      1.1015                 1.1003                 1.1010
 Frc consts  --      6.2451                 6.2508                 6.3350
 IR Inten    --     41.1426                53.8135                23.4161

                    100                    101                    102
                      A                      A                      A
 Frequencies --   3136.6922              3138.0640              3153.8790
 Red. masses --      1.0557                 1.0989                 1.0557
 Frc consts  --      6.1196                 6.3757                 6.1873
 IR Inten    --     21.8003                33.0153                 9.1740

                    103                    104                    105
                      A                      A                      A
 Frequencies --   3185.6723              3216.2224              3238.4438
 Red. masses --      1.0906                 1.1168                 1.1165
 Frc consts  --      6.5208                 6.8062                 6.8989
 IR Inten    --      7.5817                 7.7425                21.2556

                    106                    107                    108
                      A                      A                      A
 Frequencies --   3542.8122              3571.5693              3679.0333
 Red. masses --      1.0554                 1.0751                 1.0885
 Frc consts  --      7.8049                 8.0804                 8.6809
 IR Inten    --      6.0896                 6.6091                17.9045

 - Thermochemistry -
 -------------------
 Temperature   298.150 Kelvin.  Pressure   1.00000 Atm.
 Atom     1 has atomic number  6 and mass  12.00000

 Molecular mass:   209.18920 amu.
 Principal axes and moments of inertia in atomic units:
                           1         2         3
     Eigenvalues --  1570.260955638.626215849.47070
           X            0.99999  -0.00040   0.00361
           Y            0.00038   0.99999   0.00404
           Z           -0.00361  -0.00404   0.99999
 This molecule is an asymmetric top.
 Rotational symmetry number  1.
 Warning -- assumption of classical behavior for rotation
           may cause significant error
 Rotational temperatures (Kelvin)      0.05516     0.01536     0.01481
 Rotational constants (GHZ):           1.14933     0.32007     0.30853
 Zero-point vibrational energy     910405.7 (Joules/Mol)
                                  217.59218 (Kcal/Mol)
 Warning -- explicit consideration of  25 degrees of freedom as
           vibrations may cause significant error
 Vibrational temperatures:     44.64    60.28   112.03   139.29   165.29
          (Kelvin)            192.07   266.21   301.46   343.81   379.64
                              413.57   419.03   428.48   474.41   506.36
                              517.52   540.00   566.14   633.72   640.68
                              669.90   691.63   748.16   781.79   803.72
                              931.12  1008.28  1068.55  1098.86  1107.82
                             1145.79  1189.22  1216.22  1236.53  1248.50
                             1295.47  1343.55  1354.85  1376.92  1390.27
                             1427.34  1439.21  1456.47  1490.85  1514.34
                             1523.19  1549.23  1553.13  1571.96  1587.59
                             1621.96  1679.42  1690.25  1710.71  1729.06
                             1751.98  1771.48  1798.35  1831.25  1841.27
                             1880.65  1905.77  1926.04  1974.42  1992.74
                             1998.15  2014.73  2019.04  2035.28  2049.88
                             2062.33  2080.90  2144.61  2169.74  2170.49
                             2183.25  2186.67  2191.63  2193.54  2205.50
                             2215.82  2218.13  2228.26  2419.50  2545.27
                             4289.72  4347.13  4355.26  4362.44  4375.75
                             4380.66  4389.10  4404.49  4419.43  4428.20
                             4445.64  4463.26  4467.57  4496.17  4513.00
                             4514.97  4537.73  4583.47  4627.43  4659.40
                             5097.32  5138.69  5293.31

 Zero-point correction=                           0.346755 (Hartree/Particle)
 Thermal correction to Energy=                    0.362677
 Thermal correction to Enthalpy=                  0.363622
 Thermal correction to Gibbs Free Energy=         0.303911
 Sum of electronic and zero-point Energies=           -635.070029
 Sum of electronic and thermal Energies=              -635.054107
 Sum of electronic and thermal Enthalpies=            -635.053163
 Sum of electronic and thermal Free Energies=         -635.112874

                     E (Thermal)             CV                S
                      KCal/Mol        Cal/Mol-Kelvin    Cal/Mol-Kelvin
 Total                  227.583             63.124            125.672
 Electronic               0.000              0.000              0.000
 Translational            0.889              2.981             41.918
 Rotational               0.889              2.981             32.316
 Vibrational            225.806             57.163             51.438
 Vibration     1          0.594              1.983              5.763
 Vibration     2          0.595              1.980              5.167
 Vibration     3          0.599              1.964              3.944
 Vibration     4          0.603              1.951              3.518
 Vibration     5          0.608              1.937              3.185
 Vibration     6          0.613              1.920              2.895
 Vibration     7          0.631              1.860              2.277
 Vibration     8          0.642              1.826              2.048
 Vibration     9          0.657              1.781              1.811
 Vibration    10          0.670              1.739              1.636
 Vibration    11          0.685              1.697              1.489
 Vibration    12          0.687              1.690              1.467
 Vibration    13          0.691              1.678              1.429
 Vibration    14          0.713              1.616              1.261
 Vibration    15          0.728              1.571              1.158
 Vibration    16          0.734              1.555              1.123
 Vibration    17          0.746              1.523              1.058
 Vibration    18          0.761              1.484              0.987
 Vibration    19          0.800              1.382              0.825
 Vibration    20          0.805              1.371              0.810
 Vibration    21          0.823              1.326              0.750
 Vibration    22          0.837              1.293              0.708
 Vibration    23          0.875              1.206              0.610
 Vibration    24          0.898              1.154              0.558
 Vibration    25          0.914              1.121              0.527

                           ! Non-Optimized Parameters !
 Normal termination of Gaussian 16 at Thu Dec 10 17:08:14 2020.

 ----------------------------------------------------------------------
 # B3LYP/6-311++G(d,p) empiricaldispersion=gd3bj scf=xqc pop=npa geom=c
 heck
 ----------------------------------------------------------------------

 --------------------------------------
 CID_79878181_JID_5760_Energie_neutraal
 --------------------------------------
 Structure from the checkpoint file:  "JID_5760.chk"
 Charge =  0 Multiplicity = 1

 SCF Done:  E(RB3LYP) =  -635.600456164     A.U. after   14 cycles
 Normal termination of Gaussian 16 at Thu Dec 10 17:14:51 2020.

 ----------------------------------------------------------------------
 # B3LYP/6-311++G(d,p) empiricaldispersion=gd3bj scf=xqc pop=npa geom=c
 heck
 ----------------------------------------------------------------------

 ------------------------------------
 CID_79878181_JID_5760_Energie_kation
 ------------------------------------
 Structure from the checkpoint file:  "JID_5760.chk"
 Charge =  1 Multiplicity = 2

 SCF Done:  E(UB3LYP) =  -635.316751366     A.U. after   24 cycles
 Normal termination of Gaussian 16 at Thu Dec 10 17:30:35 2020.
 Gaussian 16:  ES64L-G16RevA.03 25-Dec-2016

 ----------------------------------------------------------------------
 # B3LYP/6-311++G(d,p) empiricaldispersion=gd3bj scf=xqc pop=npa geom=c
 heck
 ----------------------------------------------------------------------

 -----------------------------------
 CID_79878181_JID_5760_Energie_anion
 -----------------------------------
 Structure from the checkpoint file:  "JID_5760.chk"
 Charge = -1 Multiplicity = 2

                         Standard orientation:
 ---------------------------------------------------------------------
 Center     Atomic      Atomic             Coordinates (Angstroms)
 Number     Number       Type             X           Y           Z
 ---------------------------------------------------------------------
      1          6           0        1.689643    0.792296    1.687317
      2          6           0        1.669107    0.978792    0.160706
      3          6           0        3.107308    0.910566   -0.408601
      4          6           0        3.739919   -0.485933   -0.363634
      5          6           0        2.852666   -1.515622   -1.073317
      6          6           0        1.442121   -1.517553   -0.472647
      7          6           0        0.812236   -0.109385   -0.565580
      8          7           0       -0.610341    0.004109   -0.292375
      9          6           0       -1.250886   -0.523185    0.677128
     10          7           0       -0.827070   -1.434597    1.665255
     11          7           0       -2.604178   -0.214171    0.848959
     12          6           0       -3.283812    0.536690   -0.170041
     13          6           0       -3.702564   -0.104199   -1.466466
     14          6           0       -4.737355    0.249148   -0.418422
     15          6           0        1.086406    2.367246   -0.146333
     16          1           0        2.106840   -0.174118    1.991688
     17          1           0        2.307879    1.569216    2.152627
     18          1           0        0.682044    0.880209    2.105390
     19          1           0        3.077453    1.245050   -1.455594
     20          1           0        3.738991    1.631685    0.127325
     21          1           0        3.893809   -0.796844    0.678950
     22          1           0        4.734980   -0.455978   -0.824910
     23          1           0        3.296107   -2.517017   -1.008659
     24          1           0        2.790919   -1.266082   -2.142347
     25          1           0        1.520282   -1.874063    0.561558
     26          1           0        0.790911   -2.227470   -0.995435
     27          1           0        0.899331    0.153438   -1.631628
     28          1           0       -1.279267   -1.273370    2.559611
     29          1           0        0.174774   -1.466388    1.781159
     30          1           0       -3.148010   -0.970443    1.247442
     31          1           0       -2.956163    1.570505   -0.219319
     32          1           0       -3.651452    0.490300   -2.373894
     33          1           0       -3.454997   -1.153115   -1.600212
     34          1           0       -5.198149   -0.567790    0.133747
     35          1           0       -5.405599    1.086655   -0.596736
     36          1           0        1.710193    3.154135    0.295875
     37          1           0        1.040319    2.539464   -1.228183
     38          1           0        0.071196    2.461467    0.248012
 ---------------------------------------------------------------------

 SCF Done:  E(UB3LYP) =  -635.586130856     A.U. after   33 cycles
 SCF Done:  E(UB3LYP) =  -635.586130856     a.u. after    1 cycles

 The electronic state is 2-A.
 Alpha  occ. eigenvalues --  -14.21973 -14.21173 -14.16242 -10.15916 -10.10996
 Alpha  occ. eigenvalues --  -10.09265 -10.08122 -10.07925 -10.07396 -10.06735
 Alpha  occ. eigenvalues --  -10.06575 -10.06470 -10.06257 -10.05331 -10.05310
 Alpha  occ. eigenvalues --   -0.87557  -0.80010  -0.76960  -0.73550  -0.72204
 Alpha  occ. eigenvalues --   -0.67844  -0.63386  -0.58582  -0.57609  -0.53244
 Alpha  occ. eigenvalues --   -0.51851  -0.51091  -0.48435  -0.46479  -0.43820
 Alpha  occ. eigenvalues --   -0.42354  -0.40496  -0.39355  -0.37832  -0.36494
 Alpha  occ. eigenvalues --   -0.35871  -0.35552  -0.33514  -0.31898  -0.31673
 Alpha  occ. eigenvalues --   -0.30591  -0.29609  -0.29476  -0.28002  -0.27488
 Alpha  occ. eigenvalues --   -0.27029  -0.26185  -0.25385  -0.23932  -0.23848
 Alpha  occ. eigenvalues --   -0.22195  -0.21479  -0.21127  -0.20584  -0.20499
 Alpha  occ. eigenvalues --   -0.15158  -0.13067  -0.11933   0.04444
 Alpha virt. eigenvalues --    0.06185   0.06948   0.07405   0.08036   0.08210
 Alpha virt. eigenvalues --    0.08836   0.09402   0.10080   0.10248   0.10757
 Alpha virt. eigenvalues --    0.11105   0.11397   0.12598   0.12673   0.12950

  Beta  occ. eigenvalues --  -14.21945 -14.21120 -14.16240 -10.15913 -10.10993
  Beta  occ. eigenvalues --  -10.09263 -10.08101 -10.07923 -10.07388 -10.06724
  Beta  occ. eigenvalues --  -10.06557 -10.06461 -10.06241 -10.05303 -10.05297
  Beta  occ. eigenvalues --   -0.87523  -0.79978  -0.76919  -0.73513  -0.72180
  Beta  occ. eigenvalues --   -0.67821  -0.63358  -0.58531  -0.57588  -0.53208
  Beta  occ. eigenvalues --   -0.51808  -0.51045  -0.48391  -0.46434  -0.43785
  Beta  occ. eigenvalues --   -0.42282  -0.40445  -0.39316  -0.37786  -0.36458
  Beta  occ. eigenvalues --   -0.35846  -0.35526  -0.33485  -0.31879  -0.31645
  Beta  occ. eigenvalues --   -0.30564  -0.29577  -0.29449  -0.27976  -0.27467
  Beta  occ. eigenvalues --   -0.27009  -0.26163  -0.25359  -0.23908  -0.23815
  Beta  occ. eigenvalues --   -0.22172  -0.21454  -0.21105  -0.20563  -0.20476
  Beta  occ. eigenvalues --   -0.15126  -0.13054  -0.11918
  Beta virt. eigenvalues --    0.06466   0.06888   0.07710   0.07857   0.08446
  Beta virt. eigenvalues --    0.08635   0.09049   0.09779   0.10271   0.10599
  Beta virt. eigenvalues --    0.10996   0.11345   0.11669   0.12792   0.12890

 Mulliken charges and spin densities:
               1          2
     1  C    0.993834  -1.735634
     2  C   -0.620490   1.447718
     3  C   -0.492073   0.224892
     4  C    0.347135  -0.801006
     5  C   -0.140363  -0.382482
     6  C    0.088897  -0.053598
     7  C    0.129558  -1.080882
     8  N    0.238692  -0.036701
     9  C    0.391068  -0.753612
    10  N   -0.158753  -0.112797
    11  N   -0.026267   0.023004
    12  C   -1.302448   1.096847
    13  C   -0.017139  -0.178367
    14  C    0.694511  -1.171206
    15  C   -0.245293  -0.192748
    16  H   -0.185372   0.337868
    17  H   -0.186702   0.351062
    18  H    0.040572   0.161691
    19  H    0.016625   0.122929
    20  H    0.053637   0.096577
    21  H   -0.035633   0.172803
    22  H   -0.263172   0.436493
    23  H   -0.204682   0.378588
    24  H    0.134869  -0.030672
    25  H   -0.050396   0.140611
    26  H    0.037263   0.149671
    27  H    0.187605   0.020775
    28  H   -0.480159   0.738537
    29  H    0.068797   0.204762
    30  H   -0.131957   0.385406
    31  H    0.064017   0.133968
    32  H    0.018739   0.106974
    33  H    0.129650   0.029590
    34  H   -0.269182   0.406363
    35  H    0.039643   0.088342
    36  H    0.014552   0.118645
    37  H    0.056297   0.069582
    38  H    0.064120   0.086008
 Sum of Mulliken charges =  -1.00000   1.00000

 Dipole moment (field-independent basis, Debye):
    X=              0.2870    Y=              2.7587    Z=             -5.0913  Tot=              5.7978
 Quadrupole moment (field-independent basis, Debye-Ang):
   XX=           -172.5365   YY=           -131.8224   ZZ=           -140.1909
   XY=             -2.8283   XZ=              3.4079   YZ=              5.5491

 Summary of Natural Population Analysis:

                                       Natural Population
                Natural  -----------------------------------------------
    Atom  No    Charge         Core      Valence    Rydberg      Total
 -----------------------------------------------------------------------
      C    1   -0.29276      0.99962     2.28487    0.00827     3.29276
      C    2   -0.04180      0.99955     2.03047    0.01178     3.04180
      C    3   -0.18748      0.99959     2.17730    0.01060     3.18748
      C    4   -0.19029      0.99962     2.18221    0.00845     3.19029
      C    5   -0.18700      0.99963     2.17872    0.00864     3.18700
      C    6   -0.19421      0.99960     2.18616    0.00846     3.19421
      C    7   -0.01074      0.99951     1.99658    0.01464     3.01074
      N    8   -0.30639      0.99963     2.79655    0.01022     3.80639
      C    9    0.31390      0.99959     1.66996    0.01655     2.68610
      N   10   -0.41783      0.99972     2.90764    0.01047     3.91783
      N   11   -0.32808      0.99967     2.81501    0.01340     3.82808
      C   12   -0.01055      0.99957     1.99698    0.01399     3.01055
      C   13   -0.19916      0.99962     2.19257    0.00696     3.19916
      C   14   -0.20390      0.99963     2.19668    0.00758     3.20390
      C   15   -0.28185      0.99962     2.27612    0.00611     3.28185
      H   16    0.09849      0.00000     0.39975    0.00176     0.40151
      H   17    0.10029      0.00000     0.39868    0.00103     0.39971
      H   18    0.10420      0.00000     0.39406    0.00174     0.39580
      H   19    0.09383      0.00000     0.40498    0.00119     0.40617
      H   20    0.09907      0.00000     0.39998    0.00095     0.40093
      H   21    0.09574      0.00000     0.40279    0.00147     0.40426
      H   22    0.09722      0.00000     0.40179    0.00099     0.40278
      H   23    0.09880      0.00000     0.40029    0.00091     0.40120
      H   24    0.09032      0.00000     0.40852    0.00116     0.40968
      H   25    0.08950      0.00000     0.40861    0.00188     0.41050
      H   26    0.10270      0.00000     0.39627    0.00103     0.39730
      H   27    0.08907      0.00000     0.40886    0.00207     0.41093
      H   28    0.19141      0.00000     0.30252    0.00607     0.30859
      H   29    0.19125      0.00000     0.30601    0.00274     0.30875
      H   30    0.18832      0.00000     0.30756    0.00412     0.31168
      H   31    0.10260      0.00000     0.39614    0.00126     0.39740
      H   32    0.09961      0.00000     0.39938    0.00101     0.40039
      H   33    0.10384      0.00000     0.39493    0.00123     0.39616
      H   34    0.10237      0.00000     0.39635    0.00128     0.39763
      H   35    0.10083      0.00000     0.39832    0.00085     0.39917
      H   36    0.09451      0.00000     0.40467    0.00082     0.40549
      H   37    0.09693      0.00000     0.40228    0.00079     0.40307
      H   38    0.10723      0.00000     0.39170    0.00107     0.39277
 =======================================================================
   * Total *    0.00000     14.99416    42.81227    0.19357    58.00000

 Normal termination of Gaussian 16 at Thu Dec 10 17:50:17 2020.
