 Gaussian 16, Revision A.03,

 -----------------------------------------------------------
 # opt freq B3LYP/6-31G(d) empiricaldispersion=gd3bj scf=xqc
 -----------------------------------------------------------

 ------------------------------
 CID_71383630_JID_5484_neutraal
 ------------------------------
 Symbolic Z-matrix:
 Charge =  0 Multiplicity = 1

 SCF Done:  E(RB3LYP) =  -686.219388181     A.U. after   13 cycles
 SCF Done:  E(RB3LYP) =  -686.227086132     A.U. after   12 cycles
 SCF Done:  E(RB3LYP) =  -686.229156055     A.U. after   12 cycles
 SCF Done:  E(RB3LYP) =  -686.229977789     A.U. after   12 cycles
 SCF Done:  E(RB3LYP) =  -686.230339783     A.U. after   11 cycles
 SCF Done:  E(RB3LYP) =  -686.230477293     A.U. after   10 cycles
 SCF Done:  E(RB3LYP) =  -686.230530994     A.U. after   10 cycles
 SCF Done:  E(RB3LYP) =  -686.230539239     A.U. after    8 cycles
 SCF Done:  E(RB3LYP) =  -686.230541064     A.U. after    8 cycles
 SCF Done:  E(RB3LYP) =  -686.230541671     A.U. after    7 cycles
 Optimization completed.
    -- Stationary point found.
 Normal termination of Gaussian 16 at Thu Dec 10 16:21:04 2020.

 --------------------------------------------------------------------
 #N Geom=AllCheck Guess=TCheck SCRF=Check GenChk RB3LYP/6-31G(d) Freq
 --------------------------------------------------------------------

 Structure from the checkpoint file:  "JID_5484.chk"
 ------------------------------
 CID_71383630_JID_5484_neutraal
 ------------------------------
 Charge =  0 Multiplicity = 1

 SCF Done:  E(RB3LYP) =  -686.230541671     A.U. after    1 cycles

  Exact polarizability: 173.258  -0.952 147.025   1.644  -0.921  92.419
 Approx polarizability: 223.168  -8.954 219.499   2.956  -2.596 134.549

                      1                      2                      3
                      A                      A                      A
 Frequencies --     10.0385                24.5253                67.4315
 Red. masses --      2.2900                 2.9146                 2.7995
 Frc consts  --      0.0001                 0.0010                 0.0075
 IR Inten    --      0.1505                 0.5128                 3.4055

                      4                      5                      6
                      A                      A                      A
 Frequencies --     82.9302               106.7367               147.5795
 Red. masses --      3.2338                 3.1002                 4.0040
 Frc consts  --      0.0131                 0.0208                 0.0514
 IR Inten    --      1.6833                 0.1764                 5.8607

                      7                      8                      9
                      A                      A                      A
 Frequencies --    159.4734               162.4106               200.0964
 Red. masses --      3.3722                 1.2912                 4.7974
 Frc consts  --      0.0505                 0.0201                 0.1132
 IR Inten    --      1.7743                 0.0463                 0.5955

                     10                     11                     12
                      A                      A                      A
 Frequencies --    220.9785               230.5001               251.6547
 Red. masses --      1.2194                 2.1820                 1.7110
 Frc consts  --      0.0351                 0.0683                 0.0638
 IR Inten    --      0.0888                 0.3278                 2.8116

                     13                     14                     15
                      A                      A                      A
 Frequencies --    273.5868               274.7819               280.2180
 Red. masses --      1.2125                 1.8026                 1.1702
 Frc consts  --      0.0535                 0.0802                 0.0541
 IR Inten    --      0.1350                 0.5811                 0.6113

                     16                     17                     18
                      A                      A                      A
 Frequencies --    287.1789               313.6874               319.2967
 Red. masses --      2.0270                 2.8972                 2.6997
 Frc consts  --      0.0985                 0.1680                 0.1622
 IR Inten    --      1.4417                 0.0478                 0.4400

                     19                     20                     21
                      A                      A                      A
 Frequencies --    347.4264               394.4963               425.4901
 Red. masses --      3.0047                 2.5747                 2.8136
 Frc consts  --      0.2137                 0.2361                 0.3001
 IR Inten    --      3.8361                 0.1668                 0.8953

                     22                     23                     24
                      A                      A                      A
 Frequencies --    481.0361               504.3956               562.1239
 Red. masses --      3.0005                 1.2168                 3.4966
 Frc consts  --      0.4091                 0.1824                 0.6510
 IR Inten    --     22.8094                75.8505                 6.3821

                     25                     26                     27
                      A                      A                      A
 Frequencies --    584.1009               660.5471               706.4684
 Red. masses --      6.5310                 4.7430                 6.1244
 Frc consts  --      1.3128                 1.2193                 1.8009
 IR Inten    --      1.0431                 7.0476                 1.3923

                     28                     29                     30
                      A                      A                      A
 Frequencies --    742.2157               749.1728               811.8847
 Red. masses --      8.3327                10.7841                 1.4021
 Frc consts  --      2.7046                 3.5661                 0.5445
 IR Inten    --      7.6885                 1.3888                 1.2644

                     31                     32                     33
                      A                      A                      A
 Frequencies --    823.1885               845.9092               917.6034
 Red. masses --      2.0429                10.6724                 2.2916
 Frc consts  --      0.8157                 4.4994                 1.1368
 IR Inten    --      2.0740                27.1722                 6.1558

                     34                     35                     36
                      A                      A                      A
 Frequencies --    949.6297               956.8576               965.6060
 Red. masses --      1.7722                 1.7790                 2.4236
 Frc consts  --      0.9416                 0.9597                 1.3314
 IR Inten    --      1.2640                 0.1042                 4.2178

                     37                     38                     39
                      A                      A                      A
 Frequencies --    979.9019               999.3642              1046.5103
 Red. masses --      1.1991                13.1943                 3.5115
 Frc consts  --      0.6784                 7.7640                 2.2658
 IR Inten    --      0.1232                 7.0990                10.8637

                     40                     41                     42
                      A                      A                      A
 Frequencies --   1060.4426              1061.8339              1100.6133
 Red. masses --      1.4192                 1.5501                 3.3641
 Frc consts  --      0.9403                 1.0298                 2.4010
 IR Inten    --      0.3609                14.6246               103.2259

                     43                     44                     45
                      A                      A                      A
 Frequencies --   1142.8385              1174.7092              1186.2711
 Red. masses --      2.7592                 1.5844                 1.2679
 Frc consts  --      2.1232                 1.2882                 1.0512
 IR Inten    --     49.6495                 2.7993                 0.6411

                     46                     47                     48
                      A                      A                      A
 Frequencies --   1192.5447              1229.3184              1242.2796
 Red. masses --      2.8251                 1.8829                 2.6560
 Frc consts  --      2.3672                 1.6765                 2.4150
 IR Inten    --     57.8893                59.7158                 2.2690

                     49                     50                     51
                      A                      A                      A
 Frequencies --   1255.0941              1269.6399              1284.9541
 Red. masses --      2.8070                 3.3297                 3.6876
 Frc consts  --      2.6052                 3.1624                 3.5873
 IR Inten    --      5.1323                 4.1740                22.0408

                     52                     53                     54
                      A                      A                      A
 Frequencies --   1306.9108              1363.3687              1408.1636
 Red. masses --      1.1828                 1.7775                 2.4506
 Frc consts  --      1.1903                 1.9466                 2.8631
 IR Inten    --     14.9815                87.1134                66.7616

                     55                     56                     57
                      A                      A                      A
 Frequencies --   1416.5296              1418.7963              1433.7012
 Red. masses --      1.2136                 1.5511                 1.7860
 Frc consts  --      1.4348                 1.8397                 2.1629
 IR Inten    --      4.2709                58.6156               179.6327

                     58                     59                     60
                      A                      A                      A
 Frequencies --   1444.0297              1450.4875              1461.2074
 Red. masses --      1.3351                 1.5562                 1.5148
 Frc consts  --      1.6403                 1.9291                 1.9055
 IR Inten    --     65.9288               136.3802                29.2471

                     61                     62                     63
                      A                      A                      A
 Frequencies --   1505.9660              1511.6514              1514.1268
 Red. masses --      1.0492                 1.0491                 1.0523
 Frc consts  --      1.4020                 1.4125                 1.4214
 IR Inten    --      0.0525                 5.7486                 0.3513

                     64                     65                     66
                      A                      A                      A
 Frequencies --   1522.0690              1522.9566              1524.1243
 Red. masses --      1.0450                 1.0998                 1.0541
 Frc consts  --      1.4263                 1.5029                 1.4427
 IR Inten    --      0.0699               106.9685                 6.3239

                     67                     68                     69
                      A                      A                      A
 Frequencies --   1528.8533              1529.0873              1530.4731
 Red. masses --      1.0508                 1.1728                 1.0575
 Frc consts  --      1.4471                 1.6156                 1.4594
 IR Inten    --      4.8144                20.4376                19.9978

                     70                     71                     72
                      A                      A                      A
 Frequencies --   1534.1241              1551.2667              1553.5450
 Red. masses --      1.4211                 1.1086                 1.1001
 Frc consts  --      1.9706                 1.5718                 1.5643
 IR Inten    --    112.5930                59.5376                11.4164

                     73                     74                     75
                      A                      A                      A
 Frequencies --   1600.8695              1605.7245              1639.4441
 Red. masses --      8.2986                 5.9906                 5.0469
 Frc consts  --     12.5305                 9.1005                 7.9922
 IR Inten    --    161.1268               438.4581               956.2007

                     76                     77                     78
                      A                      A                      A
 Frequencies --   3019.7144              3047.0155              3048.9565
 Red. masses --      1.0739                 1.0359                 1.0365
 Frc consts  --      5.7695                 5.6664                 5.6769
 IR Inten    --     47.0456                35.4385                12.9480

                     79                     80                     81
                      A                      A                      A
 Frequencies --   3051.4349              3058.1596              3068.6318
 Red. masses --      1.0382                 1.0372                 1.0298
 Frc consts  --      5.6956                 5.7152                 5.7136
 IR Inten    --     24.0858                39.3086                38.4639

                     82                     83                     84
                      A                      A                      A
 Frequencies --   3107.0683              3109.5960              3111.6950
 Red. masses --      1.0933                 1.1030                 1.1020
 Frc consts  --      6.2184                 6.2842                 6.2866
 IR Inten    --      2.8952                15.1390                27.6370

                     85                     86                     87
                      A                      A                      A
 Frequencies --   3124.5024              3127.1396              3136.4726
 Red. masses --      1.1006                 1.0964                 1.1030
 Frc consts  --      6.3308                 6.3171                 6.3930
 IR Inten    --     60.2106                33.6868                25.8568

                     88                     89                     90
                      A                      A                      A
 Frequencies --   3137.7536              3140.3095              3144.8023
 Red. masses --      1.1023                 1.1071                 1.1010
 Frc consts  --      6.3944                 6.4327                 6.4157
 IR Inten    --     27.9252                26.1148                 2.2162

                     91                     92                     93
                      A                      A                      A
 Frequencies --   3148.4147              3174.0580              3625.3616
 Red. masses --      1.1003                 1.1065                 1.0766
 Frc consts  --      6.4261                 6.5678                 8.3368
 IR Inten    --     29.0535                27.2146                43.3430

 - Thermochemistry -
 -------------------
 Temperature   298.150 Kelvin.  Pressure   1.00000 Atm.
 Atom     1 has atomic number  6 and mass  12.00000

 Molecular mass:   210.14806 amu.
 Principal axes and moments of inertia in atomic units:
                           1         2         3
     Eigenvalues --  2353.511494471.461746380.02326
           X            0.99999   0.00373  -0.00070
           Y           -0.00373   0.99999   0.00160
           Z            0.00070  -0.00160   1.00000
 This molecule is an asymmetric top.
 Rotational symmetry number  1.
 Warning -- assumption of classical behavior for rotation
           may cause significant error
 Rotational temperatures (Kelvin)      0.03680     0.01937     0.01358
 Rotational constants (GHZ):           0.76683     0.40361     0.28287
 Zero-point vibrational energy     749616.8 (Joules/Mol)
                                  179.16271 (Kcal/Mol)
 Warning -- explicit consideration of  25 degrees of freedom as
           vibrations may cause significant error
 Vibrational temperatures:     14.44    35.29    97.02   119.32   153.57
          (Kelvin)            212.33   229.45   233.67   287.89   317.94
                              331.64   362.08   393.63   395.35   403.17
                              413.19   451.33   459.40   499.87   567.59
                              612.19   692.10   725.71   808.77   840.39
                              950.38  1016.45  1067.88  1077.89  1168.12
                             1184.38  1217.07  1320.23  1366.31  1376.70
                             1389.29  1409.86  1437.86  1505.69  1525.74
                             1527.74  1583.54  1644.29  1690.14  1706.78
                             1715.81  1768.71  1787.36  1805.80  1826.73
                             1848.76  1880.35  1961.58  2026.03  2038.07
                             2041.33  2062.78  2077.64  2086.93  2102.35
                             2166.75  2174.93  2178.49  2189.92  2191.19
                             2192.87  2199.68  2200.02  2202.01  2207.26
                             2231.93  2235.20  2303.29  2310.28  2358.79
                             4344.70  4383.98  4386.77  4390.33  4400.01
                             4415.08  4470.38  4474.02  4477.04  4495.46
                             4499.26  4512.68  4514.53  4518.20  4524.67
                             4529.87  4566.76  5216.09

 Zero-point correction=                           0.285514 (Hartree/Particle)
 Thermal correction to Energy=                    0.302077
 Thermal correction to Enthalpy=                  0.303021
 Thermal correction to Gibbs Free Energy=         0.239781
 Sum of electronic and zero-point Energies=           -685.945028
 Sum of electronic and thermal Energies=              -685.928464
 Sum of electronic and thermal Enthalpies=            -685.927520
 Sum of electronic and thermal Free Energies=         -685.990761

                     E (Thermal)             CV                S
                      KCal/Mol        Cal/Mol-Kelvin    Cal/Mol-Kelvin
 Total                  189.556             60.469            133.102
 Electronic               0.000              0.000              0.000
 Translational            0.889              2.981             41.932
 Rotational               0.889              2.981             32.573
 Vibrational            187.779             54.507             58.596
 Vibration     1          0.593              1.987              8.003
 Vibration     2          0.593              1.985              6.229
 Vibration     3          0.598              1.970              4.227
 Vibration     4          0.600              1.961              3.820
 Vibration     5          0.606              1.944              3.327
 Vibration     6          0.617              1.905              2.703
 Vibration     7          0.621              1.892              2.556
 Vibration     8          0.623              1.889              2.522
 Vibration     9          0.638              1.840              2.132
 Vibration    10          0.648              1.809              1.951
 Vibration    11          0.652              1.794              1.875
 Vibration    12          0.664              1.760              1.719
 Vibration    13          0.676              1.722              1.573
 Vibration    14          0.677              1.720              1.566
 Vibration    15          0.680              1.710              1.532
 Vibration    16          0.684              1.698              1.491
 Vibration    17          0.702              1.648              1.343
 Vibration    18          0.705              1.637              1.314
 Vibration    19          0.725              1.581              1.178
 Vibration    20          0.761              1.482              0.983
 Vibration    21          0.787              1.415              0.874
 Vibration    22          0.837              1.292              0.707
 Vibration    23          0.860              1.240              0.647
 Vibration    24          0.918              1.113              0.520
 Vibration    25          0.941              1.066              0.478

                           ! Non-Optimized Parameters !
 Normal termination of Gaussian 16 at Thu Dec 10 16:31:57 2020.

 ----------------------------------------------------------------------
 # B3LYP/6-311++G(d,p) empiricaldispersion=gd3bj scf=xqc pop=npa geom=c
 heck
 ----------------------------------------------------------------------

 --------------------------------------
 CID_71383630_JID_5484_Energie_neutraal
 --------------------------------------
 Structure from the checkpoint file:  "JID_5484.chk"
 Charge =  0 Multiplicity = 1

 SCF Done:  E(RB3LYP) =  -686.421091599     A.U. after   14 cycles
 Normal termination of Gaussian 16 at Thu Dec 10 16:37:01 2020.

 ----------------------------------------------------------------------
 # B3LYP/6-311++G(d,p) empiricaldispersion=gd3bj scf=xqc pop=npa geom=c
 heck
 ----------------------------------------------------------------------

 ------------------------------------
 CID_71383630_JID_5484_Energie_kation
 ------------------------------------
 Structure from the checkpoint file:  "JID_5484.chk"
 Charge =  1 Multiplicity = 2

 SCF Done:  E(UB3LYP) =  -686.111370296     A.U. after   26 cycles
 Normal termination of Gaussian 16 at Thu Dec 10 16:49:52 2020.
 Gaussian 16:  ES64L-G16RevA.03 25-Dec-2016

 ----------------------------------------------------------------------
 # B3LYP/6-311++G(d,p) empiricaldispersion=gd3bj scf=xqc pop=npa geom=c
 heck
 ----------------------------------------------------------------------

 -----------------------------------
 CID_71383630_JID_5484_Energie_anion
 -----------------------------------
 Structure from the checkpoint file:  "JID_5484.chk"
 Charge = -1 Multiplicity = 2

                         Standard orientation:
 ---------------------------------------------------------------------
 Center     Atomic      Atomic             Coordinates (Angstroms)
 Number     Number       Type             X           Y           Z
 ---------------------------------------------------------------------
      1          6           0        4.332862   -2.165256   -0.241006
      2          6           0        3.432822   -1.018763    0.208196
      3          7           0        2.033314   -1.394352    0.087557
      4          6           0        1.003058   -0.520895    0.061729
      5          7           0        1.284384    0.795608    0.039695
      6          6           0        0.200218    1.571230   -0.010563
      7          7           0       -1.071464    1.168573   -0.029466
      8          6           0       -1.231334   -0.165844    0.003343
      9          7           0       -0.239376   -1.055401    0.048711
     10          6           0       -2.670392   -0.671076   -0.012359
     11          6           0       -3.400395   -0.082024    1.213220
     12          6           0       -3.344632   -0.158668   -1.302723
     13          6           0       -2.729117   -2.203256    0.032926
     14          8           0        0.361948    2.899491   -0.042379
     15          6           0        1.703554    3.396381   -0.022363
     16          1           0        4.171518   -3.061169    0.371140
     17          1           0        5.385354   -1.882151   -0.142140
     18          1           0        4.141646   -2.426252   -1.287156
     19          1           0        3.667205   -0.731354    1.243957
     20          1           0        3.594147   -0.130492   -0.407974
     21          1           0        1.766571   -2.363742    0.190771
     22          1           0       -3.351918    1.009736    1.203611
     23          1           0       -4.452067   -0.390729    1.204710
     24          1           0       -2.949480   -0.439324    2.146441
     25          1           0       -2.852730   -0.570806   -2.191537
     26          1           0       -4.395857   -0.468383   -1.322347
     27          1           0       -3.295907    0.931807   -1.356938
     28          1           0       -2.215567   -2.647136   -0.824798
     29          1           0       -2.255281   -2.593374    0.938400
     30          1           0       -3.775328   -2.529725    0.019519
     31          1           0        2.224559    3.080650    0.885774
     32          1           0        2.265001    3.042206   -0.891597
     33          1           0        1.604705    4.482339   -0.048672
 ---------------------------------------------------------------------

 SCF Done:  E(UB3LYP) =  -686.408712831     A.U. after   33 cycles
 SCF Done:  E(UB3LYP) =  -686.408712831     a.u. after    1 cycles

 The electronic state is 2-A.
 Alpha  occ. eigenvalues --  -19.07175 -14.24035 -14.21042 -14.20701 -14.20342
 Alpha  occ. eigenvalues --  -10.20347 -10.18426 -10.15221 -10.12851 -10.10435
 Alpha  occ. eigenvalues --  -10.09960 -10.07120 -10.07035 -10.06435 -10.06365
 Alpha  occ. eigenvalues --   -1.00394  -0.92097  -0.85240  -0.79949  -0.77679
 Alpha  occ. eigenvalues --   -0.72406  -0.66141  -0.63899  -0.59863  -0.59558
 Alpha  occ. eigenvalues --   -0.57143  -0.55071  -0.53047  -0.47802  -0.45953
 Alpha  occ. eigenvalues --   -0.43844  -0.40371  -0.39575  -0.38319  -0.37073
 Alpha  occ. eigenvalues --   -0.35868  -0.35328  -0.34608  -0.33931  -0.33382
 Alpha  occ. eigenvalues --   -0.30584  -0.30025  -0.29116  -0.28767  -0.27921
 Alpha  occ. eigenvalues --   -0.27611  -0.27202  -0.26374  -0.25911  -0.25167
 Alpha  occ. eigenvalues --   -0.24875  -0.24229  -0.21841  -0.18599  -0.17235
 Alpha  occ. eigenvalues --   -0.17007  -0.14274   0.04266
 Alpha virt. eigenvalues --    0.06056   0.06581   0.06761   0.08121   0.08304
 Alpha virt. eigenvalues --    0.08567   0.08865   0.09005   0.09113   0.10091
 Alpha virt. eigenvalues --    0.10683   0.11292   0.11426   0.11561   0.12072

  Beta  occ. eigenvalues --  -19.07170 -14.24022 -14.21016 -14.20703 -14.20337
  Beta  occ. eigenvalues --  -10.20344 -10.18411 -10.15181 -10.12821 -10.10407
  Beta  occ. eigenvalues --  -10.09962 -10.07113 -10.07020 -10.06424 -10.06305
  Beta  occ. eigenvalues --   -1.00381  -0.92065  -0.85205  -0.79910  -0.77657
  Beta  occ. eigenvalues --   -0.72391  -0.66083  -0.63862  -0.59840  -0.59535
  Beta  occ. eigenvalues --   -0.57072  -0.55032  -0.52945  -0.47764  -0.45913
  Beta  occ. eigenvalues --   -0.43817  -0.40340  -0.39529  -0.38285  -0.37034
  Beta  occ. eigenvalues --   -0.35820  -0.35287  -0.34586  -0.33908  -0.33339
  Beta  occ. eigenvalues --   -0.30553  -0.29999  -0.29069  -0.28723  -0.27868
  Beta  occ. eigenvalues --   -0.27597  -0.27126  -0.26347  -0.25862  -0.25126
  Beta  occ. eigenvalues --   -0.24837  -0.24214  -0.21764  -0.18548  -0.17218
  Beta  occ. eigenvalues --   -0.16988  -0.14242
  Beta virt. eigenvalues --    0.06044   0.06805   0.07003   0.07476   0.08454
  Beta virt. eigenvalues --    0.08551   0.08700   0.08959   0.09456   0.09703
  Beta virt. eigenvalues --    0.10673   0.11024   0.11297   0.11564   0.11734

 Mulliken charges and spin densities:
               1          2
     1  C    1.921672  -2.453960
     2  C   -0.751886   0.679902
     3  N   -0.332139   0.196560
     4  C   -0.046616   0.316689
     5  N   -0.245179   0.048149
     6  C    0.762025  -0.513778
     7  N   -0.172779   0.068594
     8  C   -0.406092  -0.997602
     9  N    0.030730  -0.024887
    10  C   -0.329610   1.342407
    11  C   -0.343800  -0.203114
    12  C   -0.193537  -0.356350
    13  C   -0.022817  -0.671887
    14  O   -0.120830   0.034530
    15  C    0.772912  -1.000365
    16  H   -0.525532   0.662807
    17  H   -0.548114   0.705022
    18  H   -0.350224   0.500327
    19  H   -0.423705   0.612028
    20  H    0.118599   0.057534
    21  H    0.169427   0.151335
    22  H    0.147868   0.008590
    23  H    0.072145   0.081518
    24  H    0.046239   0.098500
    25  H    0.003289   0.143974
    26  H    0.017540   0.137109
    27  H    0.151009   0.006159
    28  H    0.028312   0.129384
    29  H   -0.005979   0.161096
    30  H    0.018092   0.123754
    31  H   -0.156253   0.336783
    32  H   -0.195124   0.375780
    33  H   -0.089642   0.243412
 Sum of Mulliken charges =  -1.00000   1.00000

 Dipole moment (field-independent basis, Debye):
    X=             -8.2720    Y=              2.2107    Z=             -0.3194  Tot=              8.5683
 Quadrupole moment (field-independent basis, Debye-Ang):
   XX=           -182.6199   YY=           -145.4058   ZZ=           -120.6427
   XY=             12.9196   XZ=             -3.8051   YZ=              0.9094

 Summary of Natural Population Analysis:

                                       Natural Population
                Natural  -----------------------------------------------
    Atom  No    Charge         Core      Valence    Rydberg      Total
 -----------------------------------------------------------------------
      C    1   -0.28694      0.99967     2.28292    0.00435     3.28694
      C    2   -0.08751      0.99963     2.07713    0.01075     3.08751
      N    3   -0.29276      0.99965     2.78304    0.01007     3.79276
      C    4    0.32066      0.99963     1.66269    0.01702     2.67934
      N    5   -0.31001      0.99963     2.80169    0.00870     3.81001
      C    6    0.38172      0.99954     1.59884    0.01990     2.61828
      N    7   -0.29952      0.99962     2.79003    0.00987     3.79952
      C    8    0.25644      0.99956     1.72291    0.02110     2.74356
      N    9   -0.29592      0.99964     2.78662    0.00966     3.79592
      C   10   -0.06593      0.99955     2.05484    0.01155     3.06593
      C   11   -0.27998      0.99963     2.27478    0.00557     3.27998
      C   12   -0.27984      0.99963     2.27458    0.00563     3.27984
      C   13   -0.28222      0.99964     2.27630    0.00629     3.28222
      O   14   -0.26260      0.99985     3.25376    0.00900     4.26260
      C   15   -0.10324      0.99959     2.09459    0.00905     3.10324
      H   16    0.09773      0.00000     0.39977    0.00250     0.40227
      H   17    0.10615      0.00000     0.39142    0.00244     0.39385
      H   18    0.09920      0.00000     0.39903    0.00177     0.40080
      H   19    0.09308      0.00000     0.40463    0.00230     0.40692
      H   20    0.10446      0.00000     0.39340    0.00214     0.39554
      H   21    0.19757      0.00000     0.29931    0.00313     0.30243
      H   22    0.10918      0.00000     0.38979    0.00102     0.39082
      H   23    0.09525      0.00000     0.40398    0.00077     0.40475
      H   24    0.09969      0.00000     0.39950    0.00080     0.40031
      H   25    0.10018      0.00000     0.39899    0.00083     0.39982
      H   26    0.09566      0.00000     0.40351    0.00083     0.40434
      H   27    0.10893      0.00000     0.39001    0.00106     0.39107
      H   28    0.10581      0.00000     0.39308    0.00111     0.39419
      H   29    0.10542      0.00000     0.39346    0.00111     0.39458
      H   30    0.09387      0.00000     0.40529    0.00084     0.40613
      H   31    0.09348      0.00000     0.40503    0.00149     0.40652
      H   32    0.09291      0.00000     0.40561    0.00148     0.40709
      H   33    0.08912      0.00000     0.40983    0.00105     0.41088
 =======================================================================
   * Total *    0.00001     14.99446    41.82033    0.18520    56.99999

 Normal termination of Gaussian 16 at Thu Dec 10 17:06:44 2020.
