 Gaussian 16, Revision A.03,

 -----------------------------------------------------------
 # opt freq B3LYP/6-31G(d) empiricaldispersion=gd3bj scf=xqc
 -----------------------------------------------------------

 -----------------------------
 CID_53358898_JID_697_neutraal
 -----------------------------
 Symbolic Z-matrix:
 Charge =  0 Multiplicity = 1

 SCF Done:  E(RB3LYP) =  -493.420020460     A.U. after   15 cycles
 SCF Done:  E(RB3LYP) =  -493.424840210     A.U. after   13 cycles
 SCF Done:  E(RB3LYP) =  -493.425173266     A.U. after   11 cycles
 SCF Done:  E(RB3LYP) =  -493.425211061     A.U. after   11 cycles
 SCF Done:  E(RB3LYP) =  -493.425201663     A.U. after   11 cycles
 SCF Done:  E(RB3LYP) =  -493.425237870     A.U. after   10 cycles
 SCF Done:  E(RB3LYP) =  -493.425240443     A.U. after    8 cycles
 SCF Done:  E(RB3LYP) =  -493.425241279     A.U. after    9 cycles
 SCF Done:  E(RB3LYP) =  -493.425241482     A.U. after    7 cycles
 SCF Done:  E(RB3LYP) =  -493.425241646     A.U. after    7 cycles
 SCF Done:  E(RB3LYP) =  -493.425241780     A.U. after    8 cycles
 SCF Done:  E(RB3LYP) =  -493.425241838     A.U. after    8 cycles
 Optimization completed.
    -- Stationary point found.
 Normal termination of Gaussian 16 at Tue Dec  8 12:22:26 2020.

 --------------------------------------------------------------------
 #N Geom=AllCheck Guess=TCheck SCRF=Check GenChk RB3LYP/6-31G(d) Freq
 --------------------------------------------------------------------

 Structure from the checkpoint file:  "JID_697.chk"
 -----------------------------
 CID_53358898_JID_697_neutraal
 -----------------------------
 Charge =  0 Multiplicity = 1

 SCF Done:  E(RB3LYP) =  -493.425241838     A.U. after    1 cycles

  Exact polarizability: 113.040   7.084  82.974  -2.685   2.377  46.848
 Approx polarizability: 153.112  14.051 150.785  -3.902   7.017  70.230

                      1                      2                      3
                      A                      A                      A
 Frequencies --     40.1700                59.8357                90.9311
 Red. masses --      1.3366                 2.8988                 2.8536
 Frc consts  --      0.0013                 0.0061                 0.0139
 IR Inten    --      1.5262                 4.7844                 1.4272

                      4                      5                      6
                      A                      A                      A
 Frequencies --    135.8953               151.0143               204.5632
 Red. masses --      4.4516                 4.2529                 4.8350
 Frc consts  --      0.0484                 0.0571                 0.1192
 IR Inten    --     11.6862                 1.0522                 8.7083

                      7                      8                      9
                      A                      A                      A
 Frequencies --    287.6692               370.0833               392.3332
 Red. masses --      2.6123                 3.1430                 1.5086
 Frc consts  --      0.1274                 0.2536                 0.1368
 IR Inten    --     16.8054                44.3483                96.8139

                     10                     11                     12
                      A                      A                      A
 Frequencies --    449.7232               533.3099               563.5421
 Red. masses --      3.4182                 5.8221                 3.3236
 Frc consts  --      0.4073                 0.9756                 0.6219
 IR Inten    --     38.4948                 1.8748                 6.7487

                     13                     14                     15
                      A                      A                      A
 Frequencies --    624.2489               650.8533               688.4029
 Red. masses --      3.5919                 2.7342                 1.5769
 Frc consts  --      0.8247                 0.6824                 0.4403
 IR Inten    --      7.3501                24.9505                59.9033

                     16                     17                     18
                      A                      A                      A
 Frequencies --    729.5682               754.6314               849.9885
 Red. masses --      3.4281                 3.8463                 1.3056
 Frc consts  --      1.0751                 1.2905                 0.5558
 IR Inten    --      2.6878                12.2274                23.5151

                     19                     20                     21
                      A                      A                      A
 Frequencies --    956.1883               979.9112              1015.4967
 Red. masses --      3.1308                 1.5582                 2.5763
 Frc consts  --      1.6865                 0.8815                 1.5653
 IR Inten    --     47.5934                30.2959                 2.9903

                     22                     23                     24
                      A                      A                      A
 Frequencies --   1041.2499              1053.5201              1068.8361
 Red. masses --      5.2068                 1.7858                 4.5777
 Frc consts  --      3.3261                 1.1678                 3.0812
 IR Inten    --     46.2592                 4.6380                36.1879

                     25                     26                     27
                      A                      A                      A
 Frequencies --   1131.1098              1186.8724              1216.5939
 Red. masses --      1.8456                 1.5951                 1.3313
 Frc consts  --      1.3912                 1.3239                 1.1610
 IR Inten    --     13.6811                29.5881                31.7920

                     28                     29                     30
                      A                      A                      A
 Frequencies --   1254.1384              1317.9848              1369.2678
 Red. masses --      2.4641                 2.5954                 1.5567
 Frc consts  --      2.2835                 2.6563                 1.7196
 IR Inten    --    205.8808                31.7431                 8.6781

                     31                     32                     33
                      A                      A                      A
 Frequencies --   1413.2694              1421.1965              1450.2416
 Red. masses --      1.3260                 1.4289                 2.7673
 Frc consts  --      1.5604                 1.7004                 3.4291
 IR Inten    --     23.3031               100.2615                28.2896

                     34                     35                     36
                      A                      A                      A
 Frequencies --   1472.9843              1488.5576              1494.0782
 Red. masses --      4.6146                 1.0880                 1.0476
 Frc consts  --      5.8990                 1.4205                 1.3778
 IR Inten    --     11.6273                26.7683                 8.4336

                     37                     38                     39
                      A                      A                      A
 Frequencies --   1513.0036              1529.4644              1605.4188
 Red. masses --      6.6666                 1.0859                 4.6950
 Frc consts  --      8.9916                 1.4966                 7.1296
 IR Inten    --     93.3515                 0.1678                 2.1952

                     40                     41                     42
                      A                      A                      A
 Frequencies --   1766.4052              3031.0871              3066.4891
 Red. masses --     10.5042                 1.0657                 1.0360
 Frc consts  --     19.3105                 5.7688                 5.7400
 IR Inten    --    196.8592                50.5602                 0.4433

                     43                     44                     45
                      A                      A                      A
 Frequencies --   3085.8939              3127.2387              3174.6689
 Red. masses --      1.0987                 1.0991                 1.1045
 Frc consts  --      6.1643                 6.3330                 6.5585
 IR Inten    --     22.9422                 4.4335                13.1327

                     46                     47                     48
                      A                      A                      A
 Frequencies --   3257.0329              3636.5782              3731.3862
 Red. masses --      1.0966                 1.0804                 1.0662
 Frc consts  --      6.8540                 8.4179                 8.7464
 IR Inten    --      8.7834                83.8498                15.3820

 - Thermochemistry -
 -------------------
 Temperature   298.150 Kelvin.  Pressure   1.00000 Atm.
 Atom     1 has atomic number  6 and mass  12.00000

 Molecular mass:   140.05858 amu.
 Principal axes and moments of inertia in atomic units:
                           1         2         3
     Eigenvalues --   602.833062270.720692795.82862
           X            0.99997  -0.00658  -0.00360
           Y            0.00658   0.99998  -0.00034
           Z            0.00360   0.00032   0.99999
 This molecule is an asymmetric top.
 Rotational symmetry number  1.
 Warning -- assumption of classical behavior for rotation
           may cause significant error
 Rotational temperatures (Kelvin)      0.14368     0.03814     0.03098
 Rotational constants (GHZ):           2.99377     0.79479     0.64551
 Zero-point vibrational energy     373431.8 (Joules/Mol)
                                   89.25235 (Kcal/Mol)
 Warning -- explicit consideration of  12 degrees of freedom as
           vibrations may cause significant error
 Vibrational temperatures:     57.80    86.09   130.83   195.52   217.28
          (Kelvin)            294.32   413.89   532.47   564.48   647.05
                              767.31   810.81   898.15   936.43   990.46
                             1049.69  1085.75  1222.94  1375.74  1409.87
                             1461.07  1498.13  1515.78  1537.82  1627.41
                             1707.64  1750.41  1804.43  1896.29  1970.07
                             2033.38  2044.78  2086.57  2119.30  2141.70
                             2149.65  2176.87  2200.56  2309.84  2541.46
                             4361.06  4411.99  4439.91  4499.40  4567.64
                             4686.14  5232.22  5368.63

 Zero-point correction=                           0.142233 (Hartree/Particle)
 Thermal correction to Energy=                    0.152091
 Thermal correction to Enthalpy=                  0.153035
 Thermal correction to Gibbs Free Energy=         0.105751
 Sum of electronic and zero-point Energies=           -493.283009
 Sum of electronic and thermal Energies=              -493.273151
 Sum of electronic and thermal Enthalpies=            -493.272206
 Sum of electronic and thermal Free Energies=         -493.319490

                     E (Thermal)             CV                S
                      KCal/Mol        Cal/Mol-Kelvin    Cal/Mol-Kelvin
 Total                   95.439             34.710             99.517
 Electronic               0.000              0.000              0.000
 Translational            0.889              2.981             40.722
 Rotational               0.889              2.981             29.727
 Vibrational             93.661             28.749             29.068
 Vibration     1          0.594              1.981              5.251
 Vibration     2          0.597              1.973              4.463
 Vibration     3          0.602              1.956              3.640
 Vibration     4          0.614              1.917              2.861
 Vibration     5          0.618              1.902              2.659
 Vibration     6          0.640              1.833              2.092
 Vibration     7          0.685              1.697              1.488
 Vibration     8          0.742              1.534              1.079
 Vibration     9          0.760              1.487              0.991
 Vibration    10          0.809              1.361              0.797
 Vibration    11          0.888              1.176              0.580
 Vibration    12          0.919              1.110              0.517

                           ! Non-Optimized Parameters !
 Normal termination of Gaussian 16 at Tue Dec  8 12:26:58 2020.

 ----------------------------------------------------------------------
 # B3LYP/6-311++G(d,p) empiricaldispersion=gd3bj scf=xqc pop=npa geom=c
 heck
 ----------------------------------------------------------------------

 -------------------------------------
 CID_53358898_JID_697_Energie_neutraal
 -------------------------------------
 Structure from the checkpoint file:  "JID_697.chk"
 Charge =  0 Multiplicity = 1

 SCF Done:  E(RB3LYP) =  -493.579057525     A.U. after   14 cycles
 Normal termination of Gaussian 16 at Tue Dec  8 12:41:10 2020.

 ----------------------------------------------------------------------
 # B3LYP/6-311++G(d,p) empiricaldispersion=gd3bj scf=xqc pop=npa geom=c
 heck
 ----------------------------------------------------------------------

 -----------------------------------
 CID_53358898_JID_697_Energie_kation
 -----------------------------------
 Structure from the checkpoint file:  "JID_697.chk"
 Charge =  1 Multiplicity = 2

 SCF Done:  E(UB3LYP) =  -493.250854572     A.U. after   26 cycles
 Normal termination of Gaussian 16 at Tue Dec  8 12:49:40 2020.
 Gaussian 16:  ES64L-G16RevA.03 25-Dec-2016

 ----------------------------------------------------------------------
 # B3LYP/6-311++G(d,p) empiricaldispersion=gd3bj scf=xqc pop=npa geom=c
 heck
 ----------------------------------------------------------------------

 ----------------------------------
 CID_53358898_JID_697_Energie_anion
 ----------------------------------
 Structure from the checkpoint file:  "JID_697.chk"
 Charge = -1 Multiplicity = 2

                         Standard orientation:
 ---------------------------------------------------------------------
 Center     Atomic      Atomic             Coordinates (Angstroms)
 Number     Number       Type             X           Y           Z
 ---------------------------------------------------------------------
      1          6           0       -3.328675    0.330334    0.159313
      2          6           0       -2.081006   -0.501171   -0.014111
      3          8           0       -2.090974   -1.720807   -0.135807
      4          6           0       -0.796605    0.214998   -0.035723
      5          7           0       -0.580673    1.518801    0.104757
      6          6           0        0.776104    1.669817    0.037420
      7          6           0        1.400886    0.445674   -0.153821
      8          7           0        0.379855   -0.464572   -0.199520
      9          6           0        2.829110    0.034564   -0.312250
     10          8           0        3.125795   -1.160124    0.406902
     11          1           0       -4.201088   -0.325012    0.171211
     12          1           0       -3.412874    1.058563   -0.654814
     13          1           0       -3.273055    0.908029    1.088190
     14          1           0        1.244915    2.641165    0.124675
     15          1           0        0.459507   -1.469421   -0.287241
     16          1           0        3.053713   -0.205404   -1.357792
     17          1           0        3.481335    0.870952   -0.022837
     18          1           0        2.975821   -0.976324    1.348222
 ---------------------------------------------------------------------

 SCF Done:  E(UB3LYP) =  -493.585308143     A.U. after   30 cycles

 The electronic state is 2-A.
 Alpha  occ. eigenvalues --  -19.00760 -18.92708 -14.20720 -14.14532 -10.10638
 Alpha  occ. eigenvalues --  -10.07101 -10.06381 -10.06196 -10.04850 -10.02519
 Alpha  occ. eigenvalues --   -0.90972  -0.87783  -0.85635  -0.72751  -0.63383
 Alpha  occ. eigenvalues --   -0.59703  -0.55039  -0.47721  -0.45895  -0.42838
 Alpha  occ. eigenvalues --   -0.39474  -0.33961  -0.33117  -0.31538  -0.30163
 Alpha  occ. eigenvalues --   -0.29958  -0.28816  -0.27163  -0.25948  -0.23985
 Alpha  occ. eigenvalues --   -0.22942  -0.20515  -0.17555  -0.14717  -0.13438
 Alpha  occ. eigenvalues --   -0.09353  -0.09177   0.04985
 Alpha virt. eigenvalues --    0.07960   0.09788   0.09946   0.10512   0.11950
 Alpha virt. eigenvalues --    0.13423   0.13710   0.14631   0.15554   0.16281
 Alpha virt. eigenvalues --    0.16694   0.17066   0.19482   0.19609   0.20105

  Beta  occ. eigenvalues --  -19.00696 -18.92188 -14.20487 -14.14337 -10.10624
  Beta  occ. eigenvalues --  -10.06736 -10.06301 -10.06096 -10.04925 -10.02551
  Beta  occ. eigenvalues --   -0.90806  -0.87222  -0.84940  -0.72347  -0.63066
  Beta  occ. eigenvalues --   -0.59352  -0.54918  -0.47196  -0.45784  -0.42572
  Beta  occ. eigenvalues --   -0.39194  -0.33567  -0.32804  -0.31416  -0.29763
  Beta  occ. eigenvalues --   -0.29249  -0.28708  -0.26678  -0.25663  -0.23630
  Beta  occ. eigenvalues --   -0.22820  -0.18298  -0.17331  -0.13650  -0.13182
  Beta  occ. eigenvalues --   -0.08878  -0.08154
  Beta virt. eigenvalues --    0.08146   0.09884   0.10088   0.10538   0.11651
  Beta virt. eigenvalues --    0.12074   0.13441   0.13726   0.14660   0.15598
  Beta virt. eigenvalues --    0.16534   0.16785   0.17355   0.19439   0.19639

 Mulliken charges and spin densities:
               1          2
     1  C   -0.645091  -0.040136
     2  C    0.105832   0.060085
     3  O   -0.460094   0.180295
     4  C   -0.007382   0.161061
     5  N   -0.164495   0.098397
     6  C   -0.220854   0.070092
     7  C   -0.086595   0.469048
     8  N   -0.230458   0.131669
     9  C    0.520005  -1.097226
    10  O   -0.214233  -0.044834
    11  H    0.135462  -0.002065
    12  H    0.109889   0.038538
    13  H    0.144015   0.005574
    14  H    0.033950   0.085866
    15  H    0.291592   0.023151
    16  H   -0.155055   0.314286
    17  H   -0.110515   0.263679
    18  H   -0.045972   0.282518
 Sum of Mulliken charges =  -1.00000   1.00000

 Dipole moment (field-independent basis, Debye):
    X=              0.5133    Y=              2.1196    Z=             -0.4340  Tot=              2.2237
 Quadrupole moment (field-independent basis, Debye-Ang):
   XX=            -98.9319   YY=            -81.9040   ZZ=            -68.4377
   XY=              1.0847   XZ=             -2.3013   YZ=             -1.0260

 Summary of Natural Population Analysis:

                                       Natural Population
                Natural  -----------------------------------------------
    Atom  No    Charge         Core      Valence    Rydberg      Total
 -----------------------------------------------------------------------
      C    1   -0.32761      0.99965     2.32399    0.00398     3.32761
      C    2    0.29489      0.99964     1.68422    0.02125     2.70511
      O    3   -0.26205      0.99988     3.25556    0.00660     4.26205
      C    4    0.15474      0.99959     1.82752    0.01815     2.84526
      N    5   -0.23304      0.99970     2.72322    0.01012     3.73304
      C    6   -0.05912      0.99954     2.04368    0.01590     3.05912
      C    7    0.05249      0.99955     1.93543    0.01252     2.94751
      N    8   -0.23399      0.99962     2.72548    0.00889     3.73399
      C    9   -0.02266      0.99956     2.00912    0.01398     3.02266
      O   10   -0.37028      0.99990     3.36311    0.00727     4.37028
      H   11    0.09696      0.00000     0.40187    0.00117     0.40304
      H   12    0.10541      0.00000     0.39269    0.00190     0.39459
      H   13    0.10676      0.00000     0.39239    0.00085     0.39324
      H   14    0.08857      0.00000     0.41010    0.00134     0.41143
      H   15    0.20926      0.00000     0.28834    0.00240     0.29074
      H   16    0.08893      0.00000     0.40945    0.00162     0.41107
      H   17    0.08129      0.00000     0.41743    0.00128     0.41871
      H   18    0.22946      0.00000     0.26464    0.00589     0.27054
 =======================================================================
   * Total *   -0.00000      9.99664    26.86824    0.13512    37.00000

 Normal termination of Gaussian 16 at Tue Dec  8 13:05:06 2020.
