 Gaussian 16, Revision A.03,

 -----------------------------------------------------------
 # opt freq B3LYP/6-31G(d) empiricaldispersion=gd3bj scf=xqc
 -----------------------------------------------------------

 -------------------------------
 CID_103543959_JID_6829_neutraal
 -------------------------------
 Symbolic Z-matrix:
 Charge =  0 Multiplicity = 1

 SCF Done:  E(RB3LYP) =  -1072.13224113     A.U. after   14 cycles
 SCF Done:  E(RB3LYP) =  -1072.13758707     A.U. after   13 cycles
 SCF Done:  E(RB3LYP) =  -1072.13914180     A.U. after   12 cycles
 SCF Done:  E(RB3LYP) =  -1072.13914973     A.U. after   12 cycles
 SCF Done:  E(RB3LYP) =  -1072.13952160     A.U. after   12 cycles
 SCF Done:  E(RB3LYP) =  -1072.13976010     A.U. after   11 cycles
 SCF Done:  E(RB3LYP) =  -1072.14012840     A.U. after   11 cycles
 SCF Done:  E(RB3LYP) =  -1072.14026674     A.U. after   11 cycles
 SCF Done:  E(RB3LYP) =  -1072.14032337     A.U. after   11 cycles
 SCF Done:  E(RB3LYP) =  -1072.14046480     A.U. after   11 cycles
 SCF Done:  E(RB3LYP) =  -1072.14110065     A.U. after   10 cycles
 SCF Done:  E(RB3LYP) =  -1072.14110689     A.U. after   10 cycles
 SCF Done:  E(RB3LYP) =  -1072.14110726     A.U. after   10 cycles
 SCF Done:  E(RB3LYP) =  -1072.14110747     A.U. after    8 cycles
 SCF Done:  E(RB3LYP) =  -1072.14110749     A.U. after    7 cycles
 Optimization completed.
    -- Stationary point found.
 Normal termination of Gaussian 16 at Fri Dec 11 01:15:32 2020.

 --------------------------------------------------------------------
 #N Geom=AllCheck Guess=TCheck SCRF=Check GenChk RB3LYP/6-31G(d) Freq
 --------------------------------------------------------------------

 Structure from the checkpoint file:  "JID_6829.chk"
 -------------------------------
 CID_103543959_JID_6829_neutraal
 -------------------------------
 Charge =  0 Multiplicity = 1

 SCF Done:  E(RB3LYP) =  -1072.14110749     A.U. after    1 cycles

  Exact polarizability: 184.116  10.478 156.522 -14.679  10.402 115.467
 Approx polarizability: 236.157  12.835 240.656 -33.014  22.877 189.023

                      1                      2                      3
                      A                      A                      A
 Frequencies --     16.4538                30.6175                33.9829
 Red. masses --      3.9762                 4.0590                 3.4424
 Frc consts  --      0.0006                 0.0022                 0.0023
 IR Inten    --      0.1878                 0.5882                 0.3026

                      4                      5                      6
                      A                      A                      A
 Frequencies --     44.9778                62.2074                74.1952
 Red. masses --      3.0317                 4.4290                 4.4569
 Frc consts  --      0.0036                 0.0101                 0.0145
 IR Inten    --      1.7701                 1.6277                 0.1177

                      7                      8                      9
                      A                      A                      A
 Frequencies --    105.3781               129.9548               168.3910
 Red. masses --      3.1608                 3.3910                 4.0253
 Frc consts  --      0.0207                 0.0337                 0.0672
 IR Inten    --      0.3589                 0.5695                 0.8302

                     10                     11                     12
                      A                      A                      A
 Frequencies --    193.9019               217.0103               255.1172
 Red. masses --      2.5211                 1.5195                 2.7553
 Frc consts  --      0.0558                 0.0422                 0.1057
 IR Inten    --      0.2516                 1.8086                 6.6977

                     13                     14                     15
                      A                      A                      A
 Frequencies --    275.6678               285.8750               302.3471
 Red. masses --      2.1251                 1.9083                 1.8287
 Frc consts  --      0.0951                 0.0919                 0.0985
 IR Inten    --     14.8481                11.1645                15.5999

                     16                     17                     18
                      A                      A                      A
 Frequencies --    350.7804               354.0075               386.8036
 Red. masses --      3.3275                 3.1171                 2.9794
 Frc consts  --      0.2412                 0.2302                 0.2626
 IR Inten    --      6.5018                 6.4824                 1.8942

                     19                     20                     21
                      A                      A                      A
 Frequencies --    433.4468               472.9580               545.2799
 Red. masses --      2.4420                 3.1407                 4.3870
 Frc consts  --      0.2703                 0.4139                 0.7685
 IR Inten    --      3.9531                 1.4797                 2.0255

                     22                     23                     24
                      A                      A                      A
 Frequencies --    555.2038               578.4060               606.2367
 Red. masses --      3.9376                 2.3404                 3.3392
 Frc consts  --      0.7151                 0.4613                 0.7231
 IR Inten    --     13.4337                 2.4918                 0.9516

                     25                     26                     27
                      A                      A                      A
 Frequencies --    659.8662               684.0595               725.2020
 Red. masses --      5.2055                 2.7410                 5.5392
 Frc consts  --      1.3354                 0.7557                 1.7164
 IR Inten    --      1.9357                 2.2743                 5.4655

                     28                     29                     30
                      A                      A                      A
 Frequencies --    728.3639               750.7933               801.1379
 Red. masses --      5.2883                 4.0707                 1.2661
 Frc consts  --      1.6530                 1.3520                 0.4788
 IR Inten    --      1.5425                 1.7710                 1.9205

                     31                     32                     33
                      A                      A                      A
 Frequencies --    807.4538               819.0602               863.6692
 Red. masses --      2.5662                 1.4283                 2.4399
 Frc consts  --      0.9858                 0.5646                 1.0723
 IR Inten    --      9.5736                28.9354                 8.1921

                     34                     35                     36
                      A                      A                      A
 Frequencies --    887.1806               892.9623               936.7833
 Red. masses --      1.4828                 1.6283                 1.6509
 Frc consts  --      0.6877                 0.7650                 0.8536
 IR Inten    --      1.2957                 1.5263                41.6685

                     37                     38                     39
                      A                      A                      A
 Frequencies --    949.4205               953.7986               960.3839
 Red. masses --      2.1728                 2.5517                 2.1290
 Frc consts  --      1.1539                 1.3677                 1.1570
 IR Inten    --    127.3340                 8.8324                 7.2550

                     40                     41                     42
                      A                      A                      A
 Frequencies --    987.1864              1024.4959              1041.8327
 Red. masses --      2.0550                 2.9155                 2.3895
 Frc consts  --      1.1799                 1.8030                 1.5281
 IR Inten    --    100.7045                13.8626                59.1931

                     43                     44                     45
                      A                      A                      A
 Frequencies --   1054.8724              1070.2934              1085.3202
 Red. masses --      2.3233                 4.2575                 1.6528
 Frc consts  --      1.5232                 2.8735                 1.1470
 IR Inten    --     20.2690                37.9622                 5.6141

                     46                     47                     48
                      A                      A                      A
 Frequencies --   1099.4851              1104.6390              1136.8233
 Red. masses --      1.9016                 1.9467                 1.7550
 Frc consts  --      1.3544                 1.3996                 1.3363
 IR Inten    --     10.5109                11.7568                 2.4637

                     49                     50                     51
                      A                      A                      A
 Frequencies --   1157.7204              1162.6265              1179.8848
 Red. masses --      2.7135                 2.0786                 2.0346
 Frc consts  --      2.1429                 1.6554                 1.6688
 IR Inten    --    234.1889                10.4167                45.4975

                     52                     53                     54
                      A                      A                      A
 Frequencies --   1192.6754              1215.0219              1234.7070
 Red. masses --      2.9480                 1.7719                 1.1700
 Frc consts  --      2.4707                 1.5412                 1.0509
 IR Inten    --      0.5302                 0.3526                 1.2939

                     55                     56                     57
                      A                      A                      A
 Frequencies --   1241.2559              1258.0516              1266.7679
 Red. masses --      1.3102                 1.3189                 1.2783
 Frc consts  --      1.1893                 1.2299                 1.2086
 IR Inten    --      5.4163                10.3147                 8.7348

                     58                     59                     60
                      A                      A                      A
 Frequencies --   1281.6273              1311.4529              1340.3691
 Red. masses --      1.2805                 1.2617                 1.4556
 Frc consts  --      1.2392                 1.2786                 1.5407
 IR Inten    --      2.5075                 3.5893                10.0080

                     61                     62                     63
                      A                      A                      A
 Frequencies --   1357.0782              1363.9967              1375.1142
 Red. masses --      1.2174                 1.5933                 1.4986
 Frc consts  --      1.3210                 1.7465                 1.6695
 IR Inten    --      1.1045                14.7173                 7.4237

                     64                     65                     66
                      A                      A                      A
 Frequencies --   1390.8967              1394.7284              1402.4991
 Red. masses --      1.5204                 1.3848                 1.4795
 Frc consts  --      1.7330                 1.5871                 1.7146
 IR Inten    --     14.4951                 1.8940                 9.0609

                     67                     68                     69
                      A                      A                      A
 Frequencies --   1416.0125              1437.6715              1440.1619
 Red. masses --      1.3111                 1.2267                 1.3056
 Frc consts  --      1.5489                 1.4939                 1.5955
 IR Inten    --     11.5702                 1.6377                11.3448

                     70                     71                     72
                      A                      A                      A
 Frequencies --   1472.0860              1505.1276              1511.1571
 Red. masses --      1.4742                 1.1267                 1.0691
 Frc consts  --      1.8823                 1.5039                 1.4384
 IR Inten    --     28.6693                 7.6244                 2.4875

                     73                     74                     75
                      A                      A                      A
 Frequencies --   1522.8328              1525.9379              1533.5449
 Red. masses --      1.0923                 1.0401                 1.1277
 Frc consts  --      1.4924                 1.4269                 1.5626
 IR Inten    --      5.9926                 7.1173                 2.9193

                     76                     77                     78
                      A                      A                      A
 Frequencies --   1540.9027              1548.8732              1559.3060
 Red. masses --      1.1043                 5.5079                 1.0989
 Frc consts  --      1.5449                 7.7852                 1.5743
 IR Inten    --      1.9680                 5.7158                 1.6160

                     79                     80                     81
                      A                      A                      A
 Frequencies --   1621.8846              1716.3610              2993.7971
 Red. masses --      5.6303                 1.0851                 1.0822
 Frc consts  --      8.7261                 1.8834                 5.7147
 IR Inten    --      1.0168                16.4203                82.8366

                     82                     83                     84
                      A                      A                      A
 Frequencies --   3016.3023              3036.7317              3043.1715
 Red. masses --      1.0724                 1.0634                 1.0811
 Frc consts  --      5.7484                 5.7779                 5.8990
 IR Inten    --     52.6672                31.6834                19.8775

                     85                     86                     87
                      A                      A                      A
 Frequencies --   3051.7756              3052.4081              3060.4229
 Red. masses --      1.0565                 1.0350                 1.0609
 Frc consts  --      5.7974                 5.6819                 5.8542
 IR Inten    --     72.2362                29.2382                 5.1747

                     88                     89                     90
                      A                      A                      A
 Frequencies --   3062.6017              3078.0196              3091.8902
 Red. masses --      1.0641                 1.0996                 1.1098
 Frc consts  --      5.8807                 6.1381                 6.2511
 IR Inten    --     39.6142                10.5908                42.8415

                     91                     92                     93
                      A                      A                      A
 Frequencies --   3100.4757              3105.0289              3121.7529
 Red. masses --      1.1029                 1.1036                 1.1026
 Frc consts  --      6.2464                 6.2688                 6.3308
 IR Inten    --     19.2673                36.1990                46.0853

                     94                     95                     96
                      A                      A                      A
 Frequencies --   3129.1654              3138.8583              3201.4504
 Red. masses --      1.1035                 1.0962                 1.0888
 Frc consts  --      6.3665                 6.3635                 6.5748
 IR Inten    --     29.8857                34.7686                13.9243

                     97                     98                     99
                      A                      A                      A
 Frequencies --   3216.4287              3461.6578              3542.1591
 Red. masses --      1.0967                 1.0503                 1.0905
 Frc consts  --      6.6850                 7.4155                 8.0612
 IR Inten    --     10.8418                 6.6097                10.8890

 - Thermochemistry -
 -------------------
 Temperature   298.150 Kelvin.  Pressure   1.00000 Atm.
 Atom     1 has atomic number  6 and mass  12.00000

 Molecular mass:   241.11365 amu.
 Principal axes and moments of inertia in atomic units:
                           1         2         3
     Eigenvalues --  2322.584696983.603888443.32860
           X            0.99995   0.01023  -0.00154
           Y           -0.01021   0.99982   0.01602
           Z            0.00171  -0.01600   0.99987
 This molecule is an asymmetric top.
 Rotational symmetry number  1.
 Warning -- assumption of classical behavior for rotation
           may cause significant error
 Rotational temperatures (Kelvin)      0.03729     0.01240     0.01026
 Rotational constants (GHZ):           0.77704     0.25843     0.21375
 Zero-point vibrational energy     792446.5 (Joules/Mol)
                                  189.39927 (Kcal/Mol)
 Warning -- explicit consideration of  24 degrees of freedom as
           vibrations may cause significant error
 Vibrational temperatures:     23.67    44.05    48.89    64.71    89.50
          (Kelvin)            106.75   151.62   186.98   242.28   278.98
                              312.23   367.06   396.62   411.31   435.01
                              504.69   509.34   556.52   623.63   680.48
                              784.54   798.81   832.20   872.24   949.40
                              984.21  1043.40  1047.95  1080.22  1152.66
                             1161.75  1178.44  1242.63  1276.46  1284.77
                             1347.82  1366.00  1372.30  1381.78  1420.34
                             1474.02  1498.96  1517.73  1539.91  1561.53
                             1581.91  1589.33  1635.64  1665.70  1672.76
                             1697.59  1715.99  1748.15  1776.47  1785.89
                             1810.06  1822.60  1843.98  1886.89  1928.49
                             1952.53  1962.49  1978.48  2001.19  2006.70
                             2017.88  2037.33  2068.49  2072.07  2118.00
                             2165.54  2174.22  2191.02  2195.48  2206.43
                             2217.02  2228.48  2243.49  2333.53  2469.46
                             4307.41  4339.79  4369.18  4378.45  4390.82
                             4391.73  4403.27  4406.40  4428.58  4448.54
                             4460.89  4467.44  4491.51  4502.17  4516.12
                             4606.17  4627.72  4980.55  5096.38

 Zero-point correction=                           0.301827 (Hartree/Particle)
 Thermal correction to Energy=                    0.318606
 Thermal correction to Enthalpy=                  0.319550
 Thermal correction to Gibbs Free Energy=         0.254066
 Sum of electronic and zero-point Energies=          -1071.839281
 Sum of electronic and thermal Energies=             -1071.822501
 Sum of electronic and thermal Enthalpies=           -1071.821557
 Sum of electronic and thermal Free Energies=        -1071.887041

                     E (Thermal)             CV                S
                      KCal/Mol        Cal/Mol-Kelvin    Cal/Mol-Kelvin
 Total                  199.928             61.785            137.822
 Electronic               0.000              0.000              0.000
 Translational            0.889              2.981             42.341
 Rotational               0.889              2.981             33.282
 Vibrational            198.151             55.823             62.199
 Vibration     1          0.593              1.986              7.022
 Vibration     2          0.594              1.984              5.789
 Vibration     3          0.594              1.983              5.582
 Vibration     4          0.595              1.979              5.027
 Vibration     5          0.597              1.972              4.386
 Vibration     6          0.599              1.966              4.039
 Vibration     7          0.605              1.945              3.352
 Vibration     8          0.612              1.923              2.947
 Vibration     9          0.625              1.881              2.453
 Vibration    10          0.635              1.848              2.190
 Vibration    11          0.646              1.815              1.984
 Vibration    12          0.665              1.754              1.695
 Vibration    13          0.677              1.718              1.560
 Vibration    14          0.684              1.700              1.498
 Vibration    15          0.694              1.669              1.404
 Vibration    16          0.728              1.574              1.163
 Vibration    17          0.730              1.567              1.148
 Vibration    18          0.755              1.498              1.012
 Vibration    19          0.794              1.397              0.847
 Vibration    20          0.830              1.310              0.729
 Vibration    21          0.900              1.150              0.554
 Vibration    22          0.911              1.128              0.533
 Vibration    23          0.935              1.078              0.488
 Vibration    24          0.965              1.019              0.439

 Optimization completed.
    -- Stationary point found.
 Normal termination of Gaussian 16 at Fri Dec 11 01:26:06 2020.

 ----------------------------------------------------------------------
 # B3LYP/6-311++G(d,p) empiricaldispersion=gd3bj scf=xqc pop=npa geom=c
 heck
 ----------------------------------------------------------------------

 ---------------------------------------
 CID_103543959_JID_6829_Energie_neutraal
 ---------------------------------------
 Structure from the checkpoint file:  "JID_6829.chk"
 Charge =  0 Multiplicity = 1

 SCF Done:  E(RB3LYP) =  -1072.36357215     A.U. after   16 cycles
 Normal termination of Gaussian 16 at Fri Dec 11 01:31:21 2020.

 ----------------------------------------------------------------------
 # B3LYP/6-311++G(d,p) empiricaldispersion=gd3bj scf=xqc pop=npa geom=c
 heck
 ----------------------------------------------------------------------

 -------------------------------------
 CID_103543959_JID_6829_Energie_kation
 -------------------------------------
 Structure from the checkpoint file:  "JID_6829.chk"
 Charge =  1 Multiplicity = 2

 SCF Done:  E(UB3LYP) =  -1072.07959031     A.U. after   26 cycles
 Normal termination of Gaussian 16 at Fri Dec 11 01:42:43 2020.
 Gaussian 16:  ES64L-G16RevA.03 25-Dec-2016

 ----------------------------------------------------------------------
 # B3LYP/6-311++G(d,p) empiricaldispersion=gd3bj scf=xqc pop=npa geom=c
 heck
 ----------------------------------------------------------------------

 ------------------------------------
 CID_103543959_JID_6829_Energie_anion
 ------------------------------------
 Structure from the checkpoint file:  "JID_6829.chk"
 Charge = -1 Multiplicity = 2

                         Standard orientation:
 ---------------------------------------------------------------------
 Center     Atomic      Atomic             Coordinates (Angstroms)
 Number     Number       Type             X           Y           Z
 ---------------------------------------------------------------------
      1          6           0       -4.825602   -1.639823   -0.780041
      2          6           0       -4.088859   -1.289611    0.522808
      3          6           0       -3.069716   -0.199706    0.362366
      4          6           0       -3.087607    1.069013    0.875845
      5          6           0       -1.962358    1.862384    0.492949
      6          6           0       -1.076709    1.204424   -0.318040
      7         16           0       -1.637820   -0.425190   -0.620050
      8          6           0        0.226270    1.705840   -0.872240
      9          6           0        1.308495    1.939970    0.205656
     10          6           0        1.625120    0.677060    1.039794
     11          6           0        2.031189   -0.546454    0.243424
     12          8           0        3.157146   -0.280852   -0.604598
     13          6           0        3.980886   -1.448805   -0.612720
     14          6           0        3.228914   -2.434273    0.300619
     15          8           0        2.440059   -1.577702    1.114789
     16          7           0        2.465410    2.567702   -0.443741
     17          1           0       -5.331910   -0.758053   -1.186319
     18          1           0       -5.574220   -2.420854   -0.606456
     19          1           0       -4.126903   -2.003114   -1.541433
     20          1           0       -4.812342   -0.958121    1.277412
     21          1           0       -3.615305   -2.194867    0.926156
     22          1           0       -3.890455    1.428083    1.512207
     23          1           0       -1.815570    2.890863    0.807536
     24          1           0        0.613281    1.017129   -1.632574
     25          1           0        0.072824    2.663493   -1.381116
     26          1           0        0.901444    2.678258    0.908267
     27          1           0        2.438990    0.901710    1.739314
     28          1           0        0.747251    0.397783    1.633856
     29          1           0        1.205885   -0.912407   -0.388739
     30          1           0        4.969003   -1.188294   -0.215705
     31          1           0        4.095859   -1.826545   -1.635223
     32          1           0        3.879230   -3.025979    0.948231
     33          1           0        2.589034   -3.110232   -0.286719
     34          1           0        3.122211    2.869100    0.275662
     35          1           0        2.961162    1.849497   -0.971409
 ---------------------------------------------------------------------

 SCF Done:  E(UB3LYP) =  -1072.35075911     A.U. after   33 cycles
 SCF Done:  E(UB3LYP) =  -1072.35075911     a.u. after    1 cycles

 The electronic state is 2-A.
 Alpha  occ. eigenvalues --  -88.77278 -19.04640 -19.04285 -14.19921 -10.17875
 Alpha  occ. eigenvalues --  -10.13170 -10.13086 -10.11645 -10.10463 -10.10358
 Alpha  occ. eigenvalues --  -10.08884 -10.08672 -10.07828 -10.07705 -10.07610
 Alpha  occ. eigenvalues --  -10.07020  -7.85926  -5.82206  -5.81848  -5.81526
 Alpha  occ. eigenvalues --   -1.00654  -0.91140  -0.80366  -0.78452  -0.70630
 Alpha  occ. eigenvalues --   -0.69629  -0.66602  -0.63514  -0.62565  -0.59189
 Alpha  occ. eigenvalues --   -0.54611  -0.53926  -0.52826  -0.49136  -0.44621
 Alpha  occ. eigenvalues --   -0.44387  -0.43087  -0.42014  -0.39946  -0.39412
 Alpha  occ. eigenvalues --   -0.37915  -0.37029  -0.35984  -0.34932  -0.34351
 Alpha  occ. eigenvalues --   -0.33253  -0.32750  -0.31527  -0.30454  -0.29513
 Alpha  occ. eigenvalues --   -0.28728  -0.28506  -0.27419  -0.26386  -0.26015
 Alpha  occ. eigenvalues --   -0.25695  -0.25517  -0.24996  -0.24119  -0.23792
 Alpha  occ. eigenvalues --   -0.19028  -0.17838  -0.15774  -0.15571  -0.12916
 Alpha  occ. eigenvalues --    0.04107
 Alpha virt. eigenvalues --    0.05471   0.06517   0.06895   0.07454   0.07845
 Alpha virt. eigenvalues --    0.08180   0.08742   0.09326   0.09557   0.09756
 Alpha virt. eigenvalues --    0.10265   0.10635   0.11347   0.11707   0.11951

  Beta  occ. eigenvalues --  -88.77268 -19.04637 -19.04285 -14.19914 -10.17869
  Beta  occ. eigenvalues --  -10.13137 -10.13053 -10.11636 -10.10400 -10.10321
  Beta  occ. eigenvalues --  -10.08887 -10.08654 -10.07823 -10.07708 -10.07593
  Beta  occ. eigenvalues --  -10.06985  -7.85915  -5.82201  -5.81842  -5.81501
  Beta  occ. eigenvalues --   -1.00646  -0.91132  -0.80342  -0.78394  -0.70589
  Beta  occ. eigenvalues --   -0.69574  -0.66564  -0.63466  -0.62520  -0.59142
  Beta  occ. eigenvalues --   -0.54538  -0.53883  -0.52773  -0.49113  -0.44568
  Beta  occ. eigenvalues --   -0.44325  -0.43062  -0.41973  -0.39904  -0.39363
  Beta  occ. eigenvalues --   -0.37881  -0.36991  -0.35946  -0.34896  -0.34321
  Beta  occ. eigenvalues --   -0.33210  -0.32712  -0.31496  -0.30399  -0.29466
  Beta  occ. eigenvalues --   -0.28688  -0.28465  -0.27353  -0.26353  -0.25976
  Beta  occ. eigenvalues --   -0.25667  -0.25478  -0.24953  -0.24088  -0.23745
  Beta  occ. eigenvalues --   -0.19002  -0.17815  -0.15719  -0.15505  -0.12686
  Beta virt. eigenvalues --    0.06139   0.06595   0.06902   0.07174   0.07846
  Beta virt. eigenvalues --    0.08428   0.08643   0.09075   0.09589   0.09794
  Beta virt. eigenvalues --    0.10057   0.10327   0.10789   0.11585   0.11956

 Mulliken charges and spin densities:
               1          2
     1  C    0.542835  -1.086643
     2  C   -0.449939  -0.018192
     3  C    0.077948   0.288973
     4  C   -0.147306   0.027346
     5  C   -0.046637  -0.326066
     6  C    0.620118   0.187774
     7  S    0.315431  -0.481095
     8  C   -0.464714  -0.251739
     9  C   -0.532069   0.224811
    10  C    0.577714  -0.679896
    11  C   -1.531939   0.512312
    12  O   -0.143367   0.048873
    13  C    0.457722  -0.537290
    14  C    0.762001  -0.944318
    15  O   -0.070619   0.031636
    16  N   -0.228641  -0.013308
    17  H    0.045591   0.088690
    18  H   -0.464230   0.606814
    19  H   -0.020199   0.155448
    20  H   -0.251271   0.404736
    21  H   -0.194476   0.361418
    22  H   -0.163952   0.318494
    23  H    0.096398   0.028247
    24  H    0.095913   0.095140
    25  H    0.225778  -0.013244
    26  H    0.076505   0.140168
    27  H    0.132718   0.067568
    28  H    0.147159   0.053797
    29  H    0.408596  -0.254622
    30  H   -0.264193   0.410802
    31  H   -0.289162   0.443101
    32  H   -0.443156   0.619081
    33  H   -0.237648   0.373334
    34  H    0.133534   0.082840
    35  H    0.227558   0.035010
 Sum of Mulliken charges =  -1.00000   1.00000

 Dipole moment (field-independent basis, Debye):
    X=              0.3093    Y=              5.9410    Z=             -0.3154  Tot=              5.9574
 Quadrupole moment (field-independent basis, Debye-Ang):
   XX=           -214.0306   YY=           -157.7801   ZZ=           -134.9568
   XY=             -1.7442   XZ=              4.4702   YZ=              3.2500

 Summary of Natural Population Analysis:

                                       Natural Population
                Natural  -----------------------------------------------
    Atom  No    Charge         Core      Valence    Rydberg      Total
 -----------------------------------------------------------------------
      C    1   -0.28087      0.99966     2.27545    0.00576     3.28087
      C    2   -0.20650      0.99958     2.19667    0.01025     3.20650
      C    3   -0.08778      0.99950     2.07538    0.01290     3.08778
      C    4   -0.12840      0.99946     2.11876    0.01018     3.12840
      C    5   -0.13563      0.99946     2.12616    0.01001     3.13563
      C    6   -0.08675      0.99949     2.07588    0.01137     3.08675
      S    7    0.20341      4.99936     2.77770    0.01953     7.79659
      C    8   -0.21209      0.99956     2.20191    0.01061     3.21209
      C    9   -0.00378      0.99960     1.99241    0.01177     3.00378
      C   10   -0.21492      0.99957     2.20501    0.01033     3.21492
      C   11    0.21846      0.99958     1.76289    0.01907     2.78154
      O   12   -0.31640      0.99988     3.30783    0.00869     4.31640
      C   13   -0.02086      0.99960     2.00936    0.01190     3.02086
      C   14   -0.02629      0.99961     2.01452    0.01216     3.02629
      O   15   -0.29270      0.99988     3.28433    0.00849     4.29270
      N   16   -0.42822      0.99977     2.91850    0.00994     3.92822
      H   17    0.09695      0.00000     0.40206    0.00099     0.40305
      H   18    0.10027      0.00000     0.39806    0.00168     0.39973
      H   19    0.09798      0.00000     0.40105    0.00096     0.40202
      H   20    0.10458      0.00000     0.39378    0.00165     0.39542
      H   21    0.10523      0.00000     0.39316    0.00161     0.39477
      H   22    0.10459      0.00000     0.39442    0.00099     0.39541
      H   23    0.10322      0.00000     0.39578    0.00100     0.39678
      H   24    0.10429      0.00000     0.39455    0.00116     0.39571
      H   25    0.11221      0.00000     0.38652    0.00127     0.38779
      H   26    0.08977      0.00000     0.40845    0.00178     0.41023
      H   27    0.10381      0.00000     0.39473    0.00147     0.39619
      H   28    0.11320      0.00000     0.38560    0.00120     0.38680
      H   29    0.07253      0.00000     0.42548    0.00199     0.42747
      H   30    0.08630      0.00000     0.41167    0.00203     0.41370
      H   31    0.08789      0.00000     0.41024    0.00187     0.41211
      H   32    0.09744      0.00000     0.40052    0.00204     0.40256
      H   33    0.08288      0.00000     0.41533    0.00179     0.41712
      H   34    0.17182      0.00000     0.32663    0.00155     0.32818
      H   35    0.18436      0.00000     0.31331    0.00233     0.31564
 =======================================================================
   * Total *    0.00000     19.99358    44.79409    0.21233    65.00000

 Normal termination of Gaussian 16 at Fri Dec 11 01:57:02 2020.
