 Gaussian 16, Revision A.03,

 -----------------------------------------------------------
 # opt freq B3LYP/6-31G(d) empiricaldispersion=gd3bj scf=xqc
 -----------------------------------------------------------

 ------------------------------
 CID_53402224_JID_4492_neutraal
 ------------------------------
 Symbolic Z-matrix:
 Charge =  0 Multiplicity = 1

 SCF Done:  E(RB3LYP) =  -650.617445817     A.U. after   13 cycles
 SCF Done:  E(RB3LYP) =  -650.625659633     A.U. after   12 cycles
 SCF Done:  E(RB3LYP) =  -650.627502077     A.U. after   11 cycles
 SCF Done:  E(RB3LYP) =  -650.628204825     A.U. after   12 cycles
 SCF Done:  E(RB3LYP) =  -650.628649718     A.U. after   12 cycles
 SCF Done:  E(RB3LYP) =  -650.629308047     A.U. after   11 cycles
 SCF Done:  E(RB3LYP) =  -650.629690276     A.U. after   11 cycles
 SCF Done:  E(RB3LYP) =  -650.629921787     A.U. after   11 cycles
 SCF Done:  E(RB3LYP) =  -650.630691323     A.U. after   12 cycles
 SCF Done:  E(RB3LYP) =  -650.634495459     A.U. after   13 cycles
 SCF Done:  E(RB3LYP) =  -650.636627743     A.U. after   10 cycles
 SCF Done:  E(RB3LYP) =  -650.636787123     A.U. after   10 cycles
 SCF Done:  E(RB3LYP) =  -650.636881606     A.U. after   10 cycles
 SCF Done:  E(RB3LYP) =  -650.636944964     A.U. after   10 cycles
 SCF Done:  E(RB3LYP) =  -650.636947125     A.U. after    8 cycles
 SCF Done:  E(RB3LYP) =  -650.636947519     A.U. after    7 cycles
 Optimization completed.
    -- Stationary point found.
 Normal termination of Gaussian 16 at Thu Dec 10 09:59:37 2020.

 --------------------------------------------------------------------
 #N Geom=AllCheck Guess=TCheck SCRF=Check GenChk RB3LYP/6-31G(d) Freq
 --------------------------------------------------------------------

 Structure from the checkpoint file:  "JID_4492.chk"
 ------------------------------
 CID_53402224_JID_4492_neutraal
 ------------------------------
 Charge =  0 Multiplicity = 1

 SCF Done:  E(RB3LYP) =  -650.636947519     A.U. after    1 cycles

  Exact polarizability: 154.341   1.995 136.297   3.185  -6.369  84.830
 Approx polarizability: 225.134   1.674 208.829   4.993 -12.180 120.391

                      1                      2                      3
                      A                      A                      A
 Frequencies --     45.7033                58.8635                76.7259
 Red. masses --      3.6143                 2.9150                 4.2645
 Frc consts  --      0.0044                 0.0060                 0.0148
 IR Inten    --      0.1655                 4.2835                 1.2414

                      4                      5                      6
                      A                      A                      A
 Frequencies --     97.1367               133.0699               175.9258
 Red. masses --      3.6907                 3.1946                 3.6341
 Frc consts  --      0.0205                 0.0333                 0.0663
 IR Inten    --      0.1501                 6.1765                 1.1983

                      7                      8                      9
                      A                      A                      A
 Frequencies --    194.9601               200.0436               213.2010
 Red. masses --      2.8618                 1.9101                 1.6563
 Frc consts  --      0.0641                 0.0450                 0.0444
 IR Inten    --      1.0933                 0.0823                 0.9135

                     10                     11                     12
                      A                      A                      A
 Frequencies --    233.5572               262.9321               270.6981
 Red. masses --      1.4930                 1.7497                 1.4393
 Frc consts  --      0.0480                 0.0713                 0.0621
 IR Inten    --      3.0049                 1.3017                 0.2633

                     13                     14                     15
                      A                      A                      A
 Frequencies --    298.8535               316.7658               355.5585
 Red. masses --      1.5204                 2.5507                 1.4279
 Frc consts  --      0.0800                 0.1508                 0.1064
 IR Inten    --      0.0246                 8.6194                26.8263

                     16                     17                     18
                      A                      A                      A
 Frequencies --    373.1473               377.0181               431.2330
 Red. masses --      4.6191                 4.3415                 3.5838
 Frc consts  --      0.3789                 0.3636                 0.3927
 IR Inten    --      2.8259                 1.8078                 5.2699

                     19                     20                     21
                      A                      A                      A
 Frequencies --    490.5640               512.4491               558.0177
 Red. masses --      3.6044                 5.0622                 4.2713
 Frc consts  --      0.5111                 0.7832                 0.7836
 IR Inten    --      2.8219                 1.0809                 2.7742

                     22                     23                     24
                      A                      A                      A
 Frequencies --    580.2115               627.5439               635.3577
 Red. masses --      3.8836                 4.5950                 3.9701
 Frc consts  --      0.7703                 1.0662                 0.9443
 IR Inten    --      0.5475                 0.0198                 8.6170

                     25                     26                     27
                      A                      A                      A
 Frequencies --    701.3682               737.2639               774.6618
 Red. masses --      3.7649                 1.6890                 2.9727
 Frc consts  --      1.0912                 0.5409                 1.0511
 IR Inten    --     20.6436                11.0499                67.8310

                     28                     29                     30
                      A                      A                      A
 Frequencies --    780.7860               828.2169               840.6152
 Red. masses --      3.5303                 2.7778                 1.4415
 Frc consts  --      1.2680                 1.1226                 0.6002
 IR Inten    --     16.0798                94.2950                 0.0518

                     31                     32                     33
                      A                      A                      A
 Frequencies --    929.0185               946.1336               954.1101
 Red. masses --      3.8612                 1.2377                 1.4866
 Frc consts  --      1.9634                 0.6528                 0.7973
 IR Inten    --      2.1531                 0.3188                28.1255

                     34                     35                     36
                      A                      A                      A
 Frequencies --   1004.1463              1048.0398              1089.7552
 Red. masses --      1.7195                 2.0131                 7.8252
 Frc consts  --      1.0215                 1.3028                 5.4753
 IR Inten    --     57.0368                55.0894                14.2833

                     37                     38                     39
                      A                      A                      A
 Frequencies --   1107.1186              1126.4571              1152.8374
 Red. masses --      2.2942                 2.6720                 2.2360
 Frc consts  --      1.6568                 1.9976                 1.7509
 IR Inten    --     15.6580                 5.5152                40.1286

                     40                     41                     42
                      A                      A                      A
 Frequencies --   1159.2665              1185.9939              1186.5127
 Red. masses --      3.1121                 1.2699                 1.2707
 Frc consts  --      2.4641                 1.0524                 1.0540
 IR Inten    --    208.6516                 0.9946                 0.5157

                     43                     44                     45
                      A                      A                      A
 Frequencies --   1198.3374              1209.0232              1224.3525
 Red. masses --      1.9024                 1.4807                 1.4167
 Frc consts  --      1.6096                 1.2752                 1.2512
 IR Inten    --     82.9833                36.6648                 1.2036

                     46                     47                     48
                      A                      A                      A
 Frequencies --   1228.4458              1232.8964              1286.3164
 Red. masses --      1.7798                 1.6914                 2.0240
 Frc consts  --      1.5824                 1.5147                 1.9731
 IR Inten    --      4.2341                57.6326               210.2315

                     49                     50                     51
                      A                      A                      A
 Frequencies --   1318.9864              1330.6900              1351.1705
 Red. masses --      2.2360                 1.9077                 2.6316
 Frc consts  --      2.2919                 1.9903                 2.8307
 IR Inten    --     28.2128                 5.5899                12.0602

                     52                     53                     54
                      A                      A                      A
 Frequencies --   1378.1334              1413.9646              1425.9180
 Red. masses --      1.4430                 1.5356                 1.2476
 Frc consts  --      1.6147                 1.8089                 1.4945
 IR Inten    --      8.4995                42.8225                 7.6259

                     55                     56                     57
                      A                      A                      A
 Frequencies --   1490.4821              1500.7531              1513.5733
 Red. masses --      1.3097                 1.4084                 1.2055
 Frc consts  --      1.7143                 1.8689                 1.6272
 IR Inten    --     82.2552                 1.3787                 5.9706

                     58                     59                     60
                      A                      A                      A
 Frequencies --   1518.6317              1521.0279              1521.6362
 Red. masses --      1.6355                 1.0489                 1.0537
 Frc consts  --      2.2223                 1.4297                 1.4374
 IR Inten    --     14.6234                 3.6055                 6.7654

                     61                     62                     63
                      A                      A                      A
 Frequencies --   1524.3598              1536.0066              1538.4642
 Red. masses --      1.5516                 1.0528                 1.1809
 Frc consts  --      2.1243                 1.4635                 1.6468
 IR Inten    --     85.8009                33.5832                 0.6642

                     64                     65                     66
                      A                      A                      A
 Frequencies --   1540.4451              1554.1017              1647.3868
 Red. masses --      1.1487                 1.1299                 6.0555
 Frc consts  --      1.6060                 1.6079                 9.6826
 IR Inten    --      0.8739                 4.3021                44.7948

                     67                     68                     69
                      A                      A                      A
 Frequencies --   1653.2022              1714.7313              3026.9606
 Red. masses --      6.3325                 1.0631                 1.0346
 Frc consts  --     10.1971                 1.8416                 5.5849
 IR Inten    --    114.9608                 7.4326                61.5905

                     70                     71                     72
                      A                      A                      A
 Frequencies --   3032.7804              3061.8717              3086.3961
 Red. masses --      1.0340                 1.0346                 1.1067
 Frc consts  --      5.6036                 5.7145                 6.2111
 IR Inten    --     55.0088                27.0780                40.4446

                     73                     74                     75
                      A                      A                      A
 Frequencies --   3094.7619              3104.7353              3131.9172
 Red. masses --      1.1070                 1.0854                 1.1030
 Frc consts  --      6.2467                 6.1645                 6.3747
 IR Inten    --     36.9078                 7.2589                26.9884

                     76                     77                     78
                      A                      A                      A
 Frequencies --   3144.8605              3157.8285              3161.6331
 Red. masses --      1.1014                 1.0999                 1.1006
 Frc consts  --      6.4178                 6.4625                 6.4820
 IR Inten    --     24.3547                24.4445                20.7033

                     79                     80                     81
                      A                      A                      A
 Frequencies --   3194.6986              3236.3384              3239.9978
 Red. masses --      1.0887                 1.0899                 1.0928
 Frc consts  --      6.5463                 6.7261                 6.7591
 IR Inten    --     11.7166                14.8249                 6.9213

                     82                     83                     84
                      A                      A                      A
 Frequencies --   3358.3852              3507.2568              3536.5028
 Red. masses --      1.0555                 1.0840                 1.0744
 Frc consts  --      7.0138                 7.8562                 7.9172
 IR Inten    --     16.6127                 2.0747                 2.5296

 - Thermochemistry -
 -------------------
 Temperature   298.150 Kelvin.  Pressure   1.00000 Atm.
 Atom     1 has atomic number  6 and mass  12.00000

 Molecular mass:   196.12118 amu.
 Principal axes and moments of inertia in atomic units:
                           1         2         3
     Eigenvalues --  2156.715102921.650754150.70051
           X            0.99962   0.02654   0.00714
           Y           -0.02640   0.99949  -0.01798
           Z           -0.00761   0.01778   0.99981
 This molecule is an asymmetric top.
 Rotational symmetry number  1.
 Warning -- assumption of classical behavior for rotation
           may cause significant error
 Rotational temperatures (Kelvin)      0.04016     0.02965     0.02087
 Rotational constants (GHZ):           0.83680     0.61771     0.43480
 Zero-point vibrational energy     679011.2 (Joules/Mol)
                                  162.28756 (Kcal/Mol)
 Warning -- explicit consideration of  22 degrees of freedom as
           vibrations may cause significant error
 Vibrational temperatures:     65.76    84.69   110.39   139.76   191.46
          (Kelvin)            253.12   280.50   287.82   306.75   336.04
                              378.30   389.47   429.98   455.76   511.57
                              536.88   542.44   620.45   705.81   737.30
                              802.86   834.79   902.90   914.14  1009.11
                             1060.76  1114.57  1123.38  1191.62  1209.46
                             1336.65  1361.28  1372.75  1444.74  1507.90
                             1567.91  1592.90  1620.72  1658.68  1667.93
                             1706.38  1707.13  1724.14  1739.51  1761.57
                             1767.46  1773.86  1850.72  1897.73  1914.57
                             1944.03  1982.83  2034.38  2051.58  2144.47
                             2159.25  2177.69  2184.97  2188.42  2189.30
                             2193.21  2209.97  2213.51  2216.36  2236.01
                             2370.22  2378.59  2467.12  4355.12  4363.49
                             4405.35  4440.64  4452.67  4467.02  4506.13
                             4524.75  4543.41  4548.88  4596.46  4656.37
                             4661.63  4831.97  5046.16  5088.24

 Zero-point correction=                           0.258622 (Hartree/Particle)
 Thermal correction to Energy=                    0.273297
 Thermal correction to Enthalpy=                  0.274241
 Thermal correction to Gibbs Free Energy=         0.217339
 Sum of electronic and zero-point Energies=           -650.378326
 Sum of electronic and thermal Energies=              -650.363651
 Sum of electronic and thermal Enthalpies=            -650.362707
 Sum of electronic and thermal Free Energies=         -650.419609

                     E (Thermal)             CV                S
                      KCal/Mol        Cal/Mol-Kelvin    Cal/Mol-Kelvin
 Total                  171.496             54.959            119.761
 Electronic               0.000              0.000              0.000
 Translational            0.889              2.981             41.726
 Rotational               0.889              2.981             31.637
 Vibrational            169.719             48.997             46.398
 Vibration     1          0.595              1.979              4.995
 Vibration     2          0.596              1.974              4.495
 Vibration     3          0.599              1.965              3.973
 Vibration     4          0.603              1.951              3.511
 Vibration     5          0.613              1.920              2.901
 Vibration     6          0.628              1.872              2.371
 Vibration     7          0.636              1.847              2.180
 Vibration     8          0.638              1.840              2.133
 Vibration     9          0.644              1.821              2.016
 Vibration    10          0.654              1.790              1.851
 Vibration    11          0.670              1.741              1.642
 Vibration    12          0.674              1.727              1.592
 Vibration    13          0.692              1.676              1.423
 Vibration    14          0.704              1.642              1.327
 Vibration    15          0.731              1.564              1.141
 Vibration    16          0.745              1.527              1.067
 Vibration    17          0.748              1.519              1.051
 Vibration    18          0.792              1.402              0.855
 Vibration    19          0.846              1.271              0.682
 Vibration    20          0.868              1.222              0.628
 Vibration    21          0.914              1.122              0.528
 Vibration    22          0.937              1.074              0.485

                           ! Non-Optimized Parameters !
 Normal termination of Gaussian 16 at Thu Dec 10 10:08:17 2020.

 ----------------------------------------------------------------------
 # B3LYP/6-311++G(d,p) empiricaldispersion=gd3bj scf=xqc pop=npa geom=c
 heck
 ----------------------------------------------------------------------

 --------------------------------------
 CID_53402224_JID_4492_Energie_neutraal
 --------------------------------------
 Structure from the checkpoint file:  "JID_4492.chk"
 Charge =  0 Multiplicity = 1

 SCF Done:  E(RB3LYP) =  -650.829282216     A.U. after   14 cycles
 Normal termination of Gaussian 16 at Thu Dec 10 10:12:19 2020.

 ----------------------------------------------------------------------
 # B3LYP/6-311++G(d,p) empiricaldispersion=gd3bj scf=xqc pop=npa geom=c
 heck
 ----------------------------------------------------------------------

 ------------------------------------
 CID_53402224_JID_4492_Energie_kation
 ------------------------------------
 Structure from the checkpoint file:  "JID_4492.chk"
 Charge =  1 Multiplicity = 2

 SCF Done:  E(UB3LYP) =  -650.539442217     A.U. after   31 cycles
 Normal termination of Gaussian 16 at Thu Dec 10 10:22:48 2020.
 Gaussian 16:  ES64L-G16RevA.03 25-Dec-2016

 ----------------------------------------------------------------------
 # B3LYP/6-311++G(d,p) empiricaldispersion=gd3bj scf=xqc pop=npa geom=c
 heck
 ----------------------------------------------------------------------

 -----------------------------------
 CID_53402224_JID_4492_Energie_anion
 -----------------------------------
 Structure from the checkpoint file:  "JID_4492.chk"
 Charge = -1 Multiplicity = 2

                         Standard orientation:
 ---------------------------------------------------------------------
 Center     Atomic      Atomic             Coordinates (Angstroms)
 Number     Number       Type             X           Y           Z
 ---------------------------------------------------------------------
      1          6           0        0.784581   -1.862308    1.801815
      2          6           0        0.206225   -1.582452    0.409926
      3          6           0       -0.097152   -0.097094    0.198708
      4          6           0       -1.424082    0.356876    0.085212
      5          6           0       -1.722858    1.709094   -0.131700
      6          6           0       -0.679264    2.622530   -0.238598
      7          6           0        0.647880    2.215263   -0.133685
      8          6           0        0.927272    0.861177    0.084276
      9          8           0        2.205425    0.377480    0.199821
     10          6           0        3.288657    1.281997    0.057514
     11          8           0       -2.390371   -0.605537    0.206391
     12          6           0       -3.747440   -0.218255    0.085526
     13          7           0        1.089985   -2.169367   -0.611667
     14          7           0        0.631891   -2.001400   -1.958558
     15          1           0        1.733882   -1.338919    1.946335
     16          1           0        0.956375   -2.936986    1.918207
     17          1           0        0.087902   -1.527069    2.577004
     18          1           0       -0.743465   -2.115940    0.325682
     19          1           0       -2.747005    2.049244   -0.216546
     20          1           0       -0.903317    3.671996   -0.406897
     21          1           0        1.443625    2.943891   -0.219925
     22          1           0        3.268958    2.056490    0.834517
     23          1           0        4.193018    0.681551    0.167420
     24          1           0        3.285211    1.758898   -0.930562
     25          1           0       -4.329918   -1.133492    0.204421
     26          1           0       -4.033565    0.498171    0.866440
     27          1           0       -3.956256    0.220448   -0.899001
     28          1           0        1.992062   -1.703762   -0.564734
     29          1           0       -0.069335   -2.723215   -2.118318
     30          1           0        0.145343   -1.102461   -2.056125
 ---------------------------------------------------------------------

 SCF Done:  E(UB3LYP) =  -650.817196888     A.U. after   32 cycles

 The electronic state is 2-A.
 Alpha  occ. eigenvalues --  -19.06485 -19.06028 -14.22160 -14.22023 -10.14411
 Alpha  occ. eigenvalues --  -10.14309 -10.13026 -10.12546 -10.10503 -10.08310
 Alpha  occ. eigenvalues --  -10.08039 -10.07321 -10.07257 -10.06531  -0.98088
 Alpha  occ. eigenvalues --   -0.97662  -0.86384  -0.76226  -0.71107  -0.66409
 Alpha  occ. eigenvalues --   -0.66299  -0.61654  -0.61170  -0.59493  -0.53782
 Alpha  occ. eigenvalues --   -0.49764  -0.49094  -0.44898  -0.42126  -0.40264
 Alpha  occ. eigenvalues --   -0.39679  -0.39297  -0.38006  -0.37533  -0.36875
 Alpha  occ. eigenvalues --   -0.36129  -0.35158  -0.33542  -0.31551  -0.30970
 Alpha  occ. eigenvalues --   -0.29671  -0.28840  -0.28411  -0.27329  -0.25803
 Alpha  occ. eigenvalues --   -0.25312  -0.25106  -0.22805  -0.21610  -0.16127
 Alpha  occ. eigenvalues --   -0.14525  -0.13451  -0.13047   0.04096
 Alpha virt. eigenvalues --    0.05618   0.07089   0.07872   0.08219   0.08359
 Alpha virt. eigenvalues --    0.08561   0.09655   0.09837   0.10250   0.10331
 Alpha virt. eigenvalues --    0.10795   0.11361   0.12172   0.12682   0.13463

  Beta  occ. eigenvalues --  -19.06477 -19.06019 -14.22155 -14.22021 -10.14411
  Beta  occ. eigenvalues --  -10.14309 -10.12977 -10.12492 -10.10502 -10.08295
  Beta  occ. eigenvalues --  -10.08039 -10.07306 -10.07241 -10.06527  -0.98068
  Beta  occ. eigenvalues --   -0.97641  -0.86378  -0.76211  -0.71094  -0.66378
  Beta  occ. eigenvalues --   -0.66270  -0.61626  -0.61125  -0.59435  -0.53762
  Beta  occ. eigenvalues --   -0.49726  -0.49054  -0.44851  -0.42104  -0.40243
  Beta  occ. eigenvalues --   -0.39648  -0.39271  -0.37976  -0.37500  -0.36857
  Beta  occ. eigenvalues --   -0.36098  -0.35116  -0.33526  -0.31513  -0.30934
  Beta  occ. eigenvalues --   -0.29651  -0.28827  -0.28379  -0.27310  -0.25786
  Beta  occ. eigenvalues --   -0.25283  -0.25067  -0.22777  -0.21587  -0.16120
  Beta  occ. eigenvalues --   -0.14518  -0.13444  -0.13035
  Beta virt. eigenvalues --    0.06438   0.06935   0.07595   0.07949   0.08469
  Beta virt. eigenvalues --    0.08738   0.09320   0.10018   0.10144   0.10666
  Beta virt. eigenvalues --    0.10818   0.11131   0.11601   0.12597   0.12895

 Mulliken charges and spin densities:
               1          2
     1  C   -0.231533  -0.279685
     2  C   -0.945905   0.124345
     3  C    0.524048   0.146082
     4  C   -1.058947   0.650752
     5  C    0.353953  -0.342620
     6  C    1.276992  -1.490509
     7  C    0.162496  -0.265355
     8  C   -0.442799   0.243353
     9  O   -0.189358   0.049614
    10  C    1.012131  -1.282090
    11  O   -0.194413   0.060337
    12  C    1.147825  -1.454781
    13  N    0.058899   0.012334
    14  N   -0.464416  -0.060173
    15  H    0.132313   0.039402
    16  H    0.116271   0.020959
    17  H    0.091332   0.053696
    18  H    0.188610   0.026815
    19  H   -0.161863   0.328218
    20  H   -0.759152   0.944168
    21  H   -0.136962   0.300657
    22  H   -0.368954   0.529758
    23  H   -0.336980   0.499004
    24  H   -0.271454   0.425449
    25  H   -0.515657   0.688327
    26  H   -0.348184   0.502134
    27  H   -0.370334   0.530001
    28  H    0.291631  -0.022370
    29  H    0.192939   0.044218
    30  H    0.247470  -0.022039
 Sum of Mulliken charges =  -1.00000   1.00000

 Dipole moment (field-independent basis, Debye):
    X=              1.7676    Y=             -4.1168    Z=              0.9458  Tot=              4.5790
 Quadrupole moment (field-independent basis, Debye-Ang):
   XX=           -167.2070   YY=           -139.2199   ZZ=           -116.0329
   XY=             -2.1555   XZ=              1.9152   YZ=             -1.6664

 Summary of Natural Population Analysis:

                                       Natural Population
                Natural  -----------------------------------------------
    Atom  No    Charge         Core      Valence    Rydberg      Total
 -----------------------------------------------------------------------
      C    1   -0.28564      0.99964     2.28078    0.00523     3.28564
      C    2   -0.02465      0.99957     2.01109    0.01400     3.02465
      C    3   -0.07545      0.99943     2.06250    0.01353     3.07545
      C    4    0.17077      0.99935     1.81585    0.01403     2.82923
      C    5   -0.15403      0.99951     2.14493    0.00959     3.15403
      C    6   -0.07911      0.99958     2.06912    0.01042     3.07911
      C    7   -0.15409      0.99952     2.14507    0.00951     3.15409
      C    8    0.17112      0.99935     1.81611    0.01342     2.82888
      O    9   -0.28335      0.99986     3.27305    0.01044     4.28335
      C   10   -0.10000      0.99960     2.09111    0.00929     3.10000
      O   11   -0.27777      0.99986     3.26795    0.00996     4.27777
      C   12   -0.09951      0.99960     2.09074    0.00916     3.09951
      N   13   -0.25372      0.99973     2.74067    0.01332     3.75372
      N   14   -0.32662      0.99978     2.81604    0.01080     3.82662
      H   15    0.10285      0.00000     0.39578    0.00137     0.39715
      H   16    0.09953      0.00000     0.39942    0.00105     0.40047
      H   17    0.10096      0.00000     0.39817    0.00087     0.39904
      H   18    0.10456      0.00000     0.39296    0.00248     0.39544
      H   19    0.10941      0.00000     0.38862    0.00197     0.39059
      H   20    0.10276      0.00000     0.39574    0.00150     0.39724
      H   21    0.10891      0.00000     0.38923    0.00186     0.39109
      H   22    0.08778      0.00000     0.41031    0.00191     0.41222
      H   23    0.09401      0.00000     0.40488    0.00111     0.40599
      H   24    0.08746      0.00000     0.41086    0.00168     0.41254
      H   25    0.09453      0.00000     0.40398    0.00149     0.40547
      H   26    0.08669      0.00000     0.41125    0.00206     0.41331
      H   27    0.08657      0.00000     0.41122    0.00221     0.41343
      H   28    0.17478      0.00000     0.32144    0.00378     0.32522
      H   29    0.16677      0.00000     0.33105    0.00217     0.33323
      H   30    0.16451      0.00000     0.33330    0.00219     0.33549
 =======================================================================
   * Total *    0.00000     13.99436    38.82323    0.18241    53.00000

 Normal termination of Gaussian 16 at Thu Dec 10 10:37:57 2020.
