 Gaussian 16, Revision A.03,

 -----------------------------------------------------------
 # opt freq B3LYP/6-31G(d) empiricaldispersion=gd3bj scf=xqc
 -----------------------------------------------------------

 ------------------------------
 CID_58890794_JID_4812_neutraal
 ------------------------------
 Symbolic Z-matrix:
 Charge =  0 Multiplicity = 1

 SCF Done:  E(RB3LYP) =  -560.349067067     A.U. after   15 cycles
 SCF Done:  E(RB3LYP) =  -560.366192391     A.U. after   13 cycles
 SCF Done:  E(RB3LYP) =  -560.366439102     A.U. after   13 cycles
 SCF Done:  E(RB3LYP) =  -560.365035611     A.U. after   14 cycles
 SCF Done:  E(RB3LYP) =  -560.367070545     A.U. after   12 cycles
 SCF Done:  E(RB3LYP) =  -560.367189104     A.U. after   11 cycles
 SCF Done:  E(RB3LYP) =  -560.367377632     A.U. after   12 cycles
 SCF Done:  E(RB3LYP) =  -560.367383073     A.U. after   11 cycles
 SCF Done:  E(RB3LYP) =  -560.367391200     A.U. after   10 cycles
 SCF Done:  E(RB3LYP) =  -560.367401948     A.U. after   10 cycles
 SCF Done:  E(RB3LYP) =  -560.367632410     A.U. after   10 cycles
 SCF Done:  E(RB3LYP) =  -560.367632600     A.U. after    8 cycles
 SCF Done:  E(RB3LYP) =  -560.367633824     A.U. after   11 cycles
 SCF Done:  E(RB3LYP) =  -560.367633840     A.U. after    7 cycles
 SCF Done:  E(RB3LYP) =  -560.367633834     A.U. after    8 cycles
 Optimization completed.
    -- Stationary point found.
 Normal termination of Gaussian 16 at Thu Dec 10 10:24:05 2020.

 --------------------------------------------------------------------
 #N Geom=AllCheck Guess=TCheck SCRF=Check GenChk RB3LYP/6-31G(d) Freq
 --------------------------------------------------------------------

 Structure from the checkpoint file:  "JID_4812.chk"
 ------------------------------
 CID_58890794_JID_4812_neutraal
 ------------------------------
 Charge =  0 Multiplicity = 1

 SCF Done:  E(RB3LYP) =  -560.367633834     A.U. after    1 cycles

  Exact polarizability: 246.846   2.870 122.742  -4.433   2.392  85.916
 Approx polarizability: 328.681   4.211 201.891 -10.053   7.140 123.022

                      1                      2                      3
                      A                      A                      A
 Frequencies --     13.9966                42.4318                54.2063
 Red. masses --      3.0049                 3.8715                 3.2973
 Frc consts  --      0.0003                 0.0041                 0.0057
 IR Inten    --      2.6895                 1.4344                 0.1361

                      4                      5                      6
                      A                      A                      A
 Frequencies --     62.8964               112.7646               174.6175
 Red. masses --      3.3947                 3.3858                 3.8075
 Frc consts  --      0.0079                 0.0254                 0.0684
 IR Inten    --      2.4623                 3.6339                 0.3476

                      7                      8                      9
                      A                      A                      A
 Frequencies --    208.2547               234.5818               244.7388
 Red. masses --      2.2237                 1.3169                 1.7382
 Frc consts  --      0.0568                 0.0427                 0.0613
 IR Inten    --     15.4086                 0.2138                24.2450

                     10                     11                     12
                      A                      A                      A
 Frequencies --    266.4648               281.4913               295.5473
 Red. masses --      1.6162                 1.4231                 2.2295
 Frc consts  --      0.0676                 0.0664                 0.1147
 IR Inten    --      6.8549                14.7212                 6.0662

                     13                     14                     15
                      A                      A                      A
 Frequencies --    328.1006               334.7515               340.4197
 Red. masses --      2.5903                 1.0516                 2.8235
 Frc consts  --      0.1643                 0.0694                 0.1928
 IR Inten    --      2.8010                 0.0307                 4.1422

                     16                     17                     18
                      A                      A                      A
 Frequencies --    384.0489               416.2980               427.8801
 Red. masses --      2.6077                 3.0264                 3.4031
 Frc consts  --      0.2266                 0.3090                 0.3671
 IR Inten    --      1.3697                 0.0060                 1.0310

                     19                     20                     21
                      A                      A                      A
 Frequencies --    456.1409               482.0488               518.2407
 Red. masses --      3.1175                 4.7420                 5.0160
 Frc consts  --      0.3822                 0.6492                 0.7937
 IR Inten    --      0.2885                 1.2643                 0.8187

                     22                     23                     24
                      A                      A                      A
 Frequencies --    551.7046               581.1373               615.1407
 Red. masses --      4.6345                 2.6045                 3.6740
 Frc consts  --      0.8311                 0.5182                 0.8191
 IR Inten    --      4.2664                12.0361                 4.0766

                     25                     26                     27
                      A                      A                      A
 Frequencies --    663.8281               753.3607               758.1824
 Red. masses --      7.2857                 4.1882                 4.7843
 Frc consts  --      1.8916                 1.4005                 1.6204
 IR Inten    --      0.0700                 0.9560                 0.9040

                     28                     29                     30
                      A                      A                      A
 Frequencies --    850.5060               855.0749               855.4084
 Red. masses --      1.2981                 2.5548                 1.5628
 Frc consts  --      0.5532                 1.1006                 0.6738
 IR Inten    --      5.5135                 3.3999                24.2378

                     31                     32                     33
                      A                      A                      A
 Frequencies --    872.9799               940.8173               953.0637
 Red. masses --      1.2729                 1.7702                 1.7484
 Frc consts  --      0.5715                 0.9232                 0.9357
 IR Inten    --    130.1564                 1.2128                 1.1144

                     34                     35                     36
                      A                      A                      A
 Frequencies --    955.9901               964.0883               971.4651
 Red. masses --      3.7383                 1.3287                 1.2525
 Frc consts  --      2.0129                 0.7276                 0.6965
 IR Inten    --      0.4191                 0.0021                 0.0428

                     37                     38                     39
                      A                      A                      A
 Frequencies --    977.6557              1018.8711              1041.8959
 Red. masses --      1.2324                 2.2171                 2.8312
 Frc consts  --      0.6940                 1.3560                 1.8108
 IR Inten    --      0.0457                29.8244                 5.2988

                     40                     41                     42
                      A                      A                      A
 Frequencies --   1057.1627              1063.8592              1089.1840
 Red. masses --      1.4358                 1.3908                 2.1535
 Frc consts  --      0.9454                 0.9275                 1.5052
 IR Inten    --      2.8721                 0.0040                10.0381

                     43                     44                     45
                      A                      A                      A
 Frequencies --   1145.4853              1153.1832              1197.0883
 Red. masses --      2.4202                 1.4177                 1.1672
 Frc consts  --      1.8710                 1.1108                 0.9855
 IR Inten    --     11.4867                 3.8755                 6.1723

                     46                     47                     48
                      A                      A                      A
 Frequencies --   1227.7222              1242.9736              1246.8332
 Red. masses --      1.1404                 2.7050                 2.4885
 Frc consts  --      1.0127                 2.4623                 2.2793
 IR Inten    --      0.2112                 3.1609                 0.7773

                     49                     50                     51
                      A                      A                      A
 Frequencies --   1306.0435              1308.0998              1314.8229
 Red. masses --      2.9009                 3.4864                 1.1825
 Frc consts  --      2.9154                 3.5148                 1.2045
 IR Inten    --      1.1991                29.5780                 8.6230

                     52                     53                     54
                      A                      A                      A
 Frequencies --   1335.5866              1349.9578              1425.5616
 Red. masses --      5.4366                 1.4517                 1.2887
 Frc consts  --      5.7138                 1.5587                 1.5431
 IR Inten    --      0.4820                 0.3517                 4.6271

                     55                     56                     57
                      A                      A                      A
 Frequencies --   1426.8771              1442.0573              1455.9905
 Red. masses --      1.2121                 1.4620                 2.5468
 Frc consts  --      1.4540                 1.7913                 3.1810
 IR Inten    --      3.8778                99.5766                 7.7953

                     58                     59                     60
                      A                      A                      A
 Frequencies --   1458.9968              1512.7108              1516.8568
 Red. masses --      1.2174                 1.0496                 1.0456
 Frc consts  --      1.5268                 1.4151                 1.4174
 IR Inten    --      2.4641                 0.0068                 0.1568

                     61                     62                     63
                      A                      A                      A
 Frequencies --   1520.5668              1527.3365              1533.4787
 Red. masses --      1.0563                 1.0809                 1.0743
 Frc consts  --      1.4389                 1.4857                 1.4884
 IR Inten    --      1.4969                 0.5527                 8.4114

                     64                     65                     66
                      A                      A                      A
 Frequencies --   1538.4312              1550.3367              1563.6078
 Red. masses --      1.0504                 1.0830                 2.2365
 Frc consts  --      1.4647                 1.5336                 3.2216
 IR Inten    --      5.1701                 2.4759                44.0619

                     67                     68                     69
                      A                      A                      A
 Frequencies --   1606.7146              1671.6301              1689.3101
 Red. masses --      6.0361                 5.6890                 1.0859
 Frc consts  --      9.1809                 9.3662                 1.8257
 IR Inten    --      1.3395                 0.5538                27.5943

                     70                     71                     72
                      A                      A                      A
 Frequencies --   2353.0017              2945.7220              3043.3812
 Red. masses --     11.9161                 1.0739                 1.0853
 Frc consts  --     38.8712                 5.4902                 5.9224
 IR Inten    --      3.3668                79.2847                31.5776

                     73                     74                     75
                      A                      A                      A
 Frequencies --   3045.5496              3045.6769              3053.3709
 Red. masses --      1.0351                 1.0350                 1.0363
 Frc consts  --      5.6567                 5.6566                 5.6924
 IR Inten    --     26.9115                25.3860                30.7408

                     76                     77                     78
                      A                      A                      A
 Frequencies --   3111.7700              3112.4191              3118.2127
 Red. masses --      1.1020                 1.1023                 1.1028
 Frc consts  --      6.2873                 6.2915                 6.3178
 IR Inten    --      4.7851                 4.5364                25.9438

                     79                     80                     81
                      A                      A                      A
 Frequencies --   3120.2970              3125.1702              3127.6407
 Red. masses --      1.1015                 1.1022                 1.1014
 Frc consts  --      6.3185                 6.3427                 6.3477
 IR Inten    --    102.4521                18.1141                44.6864

                     82                     83                     84
                      A                      A                      A
 Frequencies --   3191.9598              3202.4122              3213.4692
 Red. masses --      1.0870                 1.0887                 1.0941
 Frc consts  --      6.5252                 6.5784                 6.6565
 IR Inten    --     16.0994                 6.8094                14.5695

                     85                     86                     87
                      A                      A                      A
 Frequencies --   3226.2406              3461.2153              3552.5483
 Red. masses --      1.0921                 1.0495                 1.0928
 Frc consts  --      6.6972                 7.4078                 8.1259
 IR Inten    --     12.6942                 7.4170                 1.4825

 - Thermochemistry -
 -------------------
 Temperature   298.150 Kelvin.  Pressure   1.00000 Atm.
 Atom     1 has atomic number  6 and mass  12.00000

 Molecular mass:   187.13610 amu.
 Principal axes and moments of inertia in atomic units:
                           1         2         3
     Eigenvalues --   798.934947578.144727885.30820
           X            1.00000   0.00192   0.00094
           Y           -0.00193   0.99998   0.00629
           Z           -0.00093  -0.00629   0.99998
 This molecule is an asymmetric top.
 Rotational symmetry number  1.
 Warning -- assumption of classical behavior for rotation
           may cause significant error
 Rotational temperatures (Kelvin)      0.10841     0.01143     0.01098
 Rotational constants (GHZ):           2.25893     0.23815     0.22887
 Zero-point vibrational energy     708127.1 (Joules/Mol)
                                  169.24645 (Kcal/Mol)
 Warning -- explicit consideration of  24 degrees of freedom as
           vibrations may cause significant error
 Vibrational temperatures:     20.14    61.05    77.99    90.49   162.24
          (Kelvin)            251.24   299.63   337.51   352.12   383.38
                              405.00   425.23   472.06   481.63   489.79
                              552.56   598.96   615.62   656.29   693.56
                              745.63   793.78   836.13   885.05   955.10
                             1083.92  1090.86  1223.69  1230.26  1230.74
                             1256.02  1353.63  1371.25  1375.46  1387.11
                             1397.72  1406.63  1465.93  1499.06  1521.02
                             1530.66  1567.09  1648.10  1659.17  1722.34
                             1766.42  1788.36  1793.91  1879.11  1882.06
                             1891.74  1921.61  1942.29  2051.07  2052.96
                             2074.80  2094.85  2099.17  2176.45  2182.42
                             2187.76  2197.50  2206.33  2213.46  2230.59
                             2249.68  2311.70  2405.10  2430.54  3385.44
                             4238.24  4378.75  4381.87  4382.05  4393.12
                             4477.14  4478.08  4486.41  4489.41  4496.42
                             4499.98  4592.52  4607.56  4623.47  4641.84
                             4979.92  5111.32

 Zero-point correction=                           0.269711 (Hartree/Particle)
 Thermal correction to Energy=                    0.284593
 Thermal correction to Enthalpy=                  0.285537
 Thermal correction to Gibbs Free Energy=         0.226462
 Sum of electronic and zero-point Energies=           -560.097922
 Sum of electronic and thermal Energies=              -560.083041
 Sum of electronic and thermal Enthalpies=            -560.082097
 Sum of electronic and thermal Free Energies=         -560.141172

                     E (Thermal)             CV                S
                      KCal/Mol        Cal/Mol-Kelvin    Cal/Mol-Kelvin
 Total                  178.585             56.207            124.334
 Electronic               0.000              0.000              0.000
 Translational            0.889              2.981             41.586
 Rotational               0.889              2.981             32.235
 Vibrational            176.807             50.245             50.513
 Vibration     1          0.593              1.986              7.343
 Vibration     2          0.595              1.980              5.142
 Vibration     3          0.596              1.976              4.658
 Vibration     4          0.597              1.972              4.364
 Vibration     5          0.607              1.939              3.221
 Vibration     6          0.627              1.874              2.385
 Vibration     7          0.642              1.828              2.059
 Vibration     8          0.654              1.788              1.844
 Vibration     9          0.660              1.771              1.768
 Vibration    10          0.672              1.735              1.619
 Vibration    11          0.681              1.708              1.525
 Vibration    12          0.690              1.682              1.442
 Vibration    13          0.711              1.619              1.269
 Vibration    14          0.716              1.606              1.237
 Vibration    15          0.720              1.595              1.210
 Vibration    16          0.753              1.504              1.023
 Vibration    17          0.780              1.435              0.905
 Vibration    18          0.789              1.410              0.866
 Vibration    19          0.814              1.347              0.777
 Vibration    20          0.838              1.290              0.705
 Vibration    21          0.873              1.210              0.614
 Vibration    22          0.907              1.136              0.541
 Vibration    23          0.938              1.072              0.483
 Vibration    24          0.975              1.000              0.424

 Optimization completed.
    -- Stationary point found.
 Normal termination of Gaussian 16 at Thu Dec 10 10:32:16 2020.

 ----------------------------------------------------------------------
 # B3LYP/6-311++G(d,p) empiricaldispersion=gd3bj scf=xqc pop=npa geom=c
 heck
 ----------------------------------------------------------------------

 --------------------------------------
 CID_58890794_JID_4812_Energie_neutraal
 --------------------------------------
 Structure from the checkpoint file:  "JID_4812.chk"
 Charge =  0 Multiplicity = 1

 SCF Done:  E(RB3LYP) =  -560.525627684     A.U. after   15 cycles
 Normal termination of Gaussian 16 at Thu Dec 10 10:36:30 2020.

 ----------------------------------------------------------------------
 # B3LYP/6-311++G(d,p) empiricaldispersion=gd3bj scf=xqc pop=npa geom=c
 heck
 ----------------------------------------------------------------------

 ------------------------------------
 CID_58890794_JID_4812_Energie_kation
 ------------------------------------
 Structure from the checkpoint file:  "JID_4812.chk"
 Charge =  1 Multiplicity = 2

 SCF Done:  E(UB3LYP) =  -560.237428691     A.U. after   22 cycles
 Normal termination of Gaussian 16 at Thu Dec 10 10:45:47 2020.
 Gaussian 16:  ES64L-G16RevA.03 25-Dec-2016

 ----------------------------------------------------------------------
 # B3LYP/6-311++G(d,p) empiricaldispersion=gd3bj scf=xqc pop=npa geom=c
 heck
 ----------------------------------------------------------------------

 -----------------------------------
 CID_58890794_JID_4812_Energie_anion
 -----------------------------------
 Structure from the checkpoint file:  "JID_4812.chk"
 Charge = -1 Multiplicity = 2

                         Standard orientation:
 ---------------------------------------------------------------------
 Center     Atomic      Atomic             Coordinates (Angstroms)
 Number     Number       Type             X           Y           Z
 ---------------------------------------------------------------------
      1          6           0       -3.753169   -0.690150   -1.257800
      2          6           0       -3.232338   -0.071865    0.058126
      3          6           0       -3.909873    1.294948    0.248665
      4          6           0       -3.630370   -0.978004    1.243729
      5          6           0       -1.703836    0.038650   -0.004239
      6          6           0       -1.023372    1.258051    0.102656
      7          6           0        0.366805    1.324611    0.043266
      8          6           0        1.134074    0.162258   -0.130099
      9          6           0        0.459121   -1.067926   -0.239514
     10          6           0       -0.926571   -1.119500   -0.175769
     11          6           0        2.558394    0.221251   -0.192630
     12          6           0        3.767893    0.256099   -0.260027
     13          6           0        5.229095    0.315246   -0.291475
     14          7           0        5.822021   -0.730275    0.559698
     15          1           0       -4.845441   -0.782095   -1.228986
     16          1           0       -3.337430   -1.687995   -1.429471
     17          1           0       -3.484448   -0.063104   -2.114963
     18          1           0       -4.996765    1.164582    0.286859
     19          1           0       -3.600039    1.774567    1.183653
     20          1           0       -3.686285    1.977450   -0.578626
     21          1           0       -3.211505   -1.984231    1.143590
     22          1           0       -3.272725   -0.558794    2.190572
     23          1           0       -4.721280   -1.072790    1.300809
     24          1           0       -1.576666    2.180339    0.236077
     25          1           0        0.869547    2.282811    0.130179
     26          1           0        1.036606   -1.977019   -0.374070
     27          1           0       -1.413689   -2.086139   -0.263244
     28          1           0        5.578901    0.142881   -1.318595
     29          1           0        5.540969    1.343553   -0.030370
     30          1           0        6.835247   -0.618060    0.558678
     31          1           0        5.515733   -0.586058    1.520693
 ---------------------------------------------------------------------

 SCF Done:  E(UB3LYP) =  -560.517474089     A.U. after   33 cycles
 SCF Done:  E(UB3LYP) =  -560.517474089     a.u. after    1 cycles

 The electronic state is 2-A.
 Alpha  occ. eigenvalues --  -14.18807 -10.10775 -10.09550 -10.07711 -10.06834
 Alpha  occ. eigenvalues --  -10.06792 -10.06755 -10.06612 -10.06597 -10.06514
 Alpha  occ. eigenvalues --  -10.06476 -10.06409 -10.04891 -10.04671  -0.78004
 Alpha  occ. eigenvalues --   -0.76033  -0.72302  -0.66265  -0.64147  -0.62542
 Alpha  occ. eigenvalues --   -0.59628  -0.59495  -0.56653  -0.51575  -0.49879
 Alpha  occ. eigenvalues --   -0.45185  -0.43038  -0.39869  -0.37406  -0.36399
 Alpha  occ. eigenvalues --   -0.35364  -0.35026  -0.34350  -0.32998  -0.32757
 Alpha  occ. eigenvalues --   -0.31662  -0.30507  -0.29690  -0.28999  -0.28443
 Alpha  occ. eigenvalues --   -0.27735  -0.26695  -0.25605  -0.24360  -0.22805
 Alpha  occ. eigenvalues --   -0.22314  -0.18928  -0.15670  -0.15106  -0.14010
 Alpha  occ. eigenvalues --   -0.11626   0.04178
 Alpha virt. eigenvalues --    0.05469   0.06833   0.07656   0.08031   0.08421
 Alpha virt. eigenvalues --    0.09111   0.09262   0.09604   0.10058   0.10567
 Alpha virt. eigenvalues --    0.10757   0.10862   0.12072   0.12123   0.12990

  Beta  occ. eigenvalues --  -14.18732 -10.10764 -10.09561 -10.07603 -10.06818
  Beta  occ. eigenvalues --  -10.06775 -10.06593 -10.06578 -10.06562 -10.06527
  Beta  occ. eigenvalues --  -10.06477 -10.06341 -10.04844 -10.04614  -0.77863
  Beta  occ. eigenvalues --   -0.75870  -0.72194  -0.66076  -0.64033  -0.62338
  Beta  occ. eigenvalues --   -0.59585  -0.59441  -0.56512  -0.51370  -0.49827
  Beta  occ. eigenvalues --   -0.45082  -0.42944  -0.39761  -0.37332  -0.36328
  Beta  occ. eigenvalues --   -0.35276  -0.34960  -0.34262  -0.32936  -0.32652
  Beta  occ. eigenvalues --   -0.31632  -0.30409  -0.29578  -0.28936  -0.28384
  Beta  occ. eigenvalues --   -0.27710  -0.26307  -0.25558  -0.24239  -0.22723
  Beta  occ. eigenvalues --   -0.22261  -0.18433  -0.15596  -0.14783  -0.13911
  Beta  occ. eigenvalues --   -0.11015
  Beta virt. eigenvalues --    0.05972   0.06953   0.07761   0.08005   0.08418
  Beta virt. eigenvalues --    0.08481   0.09216   0.09569   0.09866   0.10156
  Beta virt. eigenvalues --    0.10635   0.10827   0.10938   0.12267   0.12446

 Mulliken charges and spin densities:
               1          2
     1  C    0.052826  -0.713986
     2  C   -1.345296   1.761921
     3  C   -0.117342  -0.367669
     4  C   -0.248814  -0.411892
     5  C    2.435699  -1.381053
     6  C   -1.035784   0.353819
     7  C   -0.536335  -0.177914
     8  C    0.254223   0.207479
     9  C   -0.315521  -0.216934
    10  C   -0.641007   0.181305
    11  C    0.272668   0.146217
    12  C   -1.199947   1.484301
    13  C    2.120586  -2.672930
    14  N   -0.355308  -0.010793
    15  H   -0.238712   0.387772
    16  H    0.048222   0.086125
    17  H    0.070634   0.068541
    18  H   -0.224401   0.385585
    19  H    0.042625   0.087792
    20  H    0.083910   0.045960
    21  H    0.055143   0.081225
    22  H    0.091476   0.046667
    23  H   -0.011183   0.152530
    24  H    0.010318   0.109679
    25  H    0.074433   0.043309
    26  H    0.120966   0.007201
    27  H    0.020645   0.085272
    28  H   -0.131728   0.292369
    29  H   -0.134817   0.278983
    30  H   -0.236091   0.467725
    31  H    0.017911   0.191392
 Sum of Mulliken charges =  -1.00000   1.00000

 Dipole moment (field-independent basis, Debye):
    X=             -7.0154    Y=              1.1156    Z=             -0.2122  Tot=              7.1068
 Quadrupole moment (field-independent basis, Debye-Ang):
   XX=           -225.6500   YY=           -106.4384   ZZ=           -106.9920
   XY=              6.2262   XZ=             -6.7068   YZ=             -0.1804

 Summary of Natural Population Analysis:

                                       Natural Population
                Natural  -----------------------------------------------
    Atom  No    Charge         Core      Valence    Rydberg      Total
 -----------------------------------------------------------------------
      C    1   -0.27918      0.99963     2.27238    0.00717     3.27918
      C    2   -0.05399      0.99956     2.04406    0.01037     3.05399
      C    3   -0.28682      0.99964     2.27946    0.00772     3.28682
      C    4   -0.27688      0.99963     2.27168    0.00557     3.27688
      C    5    0.01762      0.99948     1.97137    0.01154     2.98238
      C    6   -0.11473      0.99951     2.10706    0.00815     3.11473
      C    7   -0.06848      0.99954     2.05948    0.00945     3.06848
      C    8   -0.06164      0.99950     2.05056    0.01158     3.06164
      C    9   -0.07420      0.99954     2.06509    0.00957     3.07420
      C   10   -0.10824      0.99952     2.10092    0.00780     3.10824
      C   11    0.02570      0.99926     1.96494    0.01010     2.97430
      C   12   -0.00877      0.99933     1.99823    0.01121     3.00877
      C   13   -0.12481      0.99959     2.11252    0.01271     3.12481
      N   14   -0.41361      0.99978     2.90217    0.01167     3.91361
      H   15    0.09746      0.00000     0.40142    0.00112     0.40254
      H   16    0.09885      0.00000     0.40033    0.00082     0.40115
      H   17    0.10079      0.00000     0.39852    0.00069     0.39921
      H   18    0.10002      0.00000     0.39916    0.00082     0.39998
      H   19    0.10011      0.00000     0.39902    0.00087     0.39989
      H   20    0.10034      0.00000     0.39880    0.00086     0.39966
      H   21    0.09930      0.00000     0.39982    0.00088     0.40070
      H   22    0.10029      0.00000     0.39893    0.00078     0.39971
      H   23    0.09551      0.00000     0.40364    0.00086     0.40449
      H   24    0.09926      0.00000     0.39968    0.00105     0.40074
      H   25    0.09914      0.00000     0.39998    0.00088     0.40086
      H   26    0.10123      0.00000     0.39790    0.00087     0.39877
      H   27    0.09598      0.00000     0.40268    0.00134     0.40402
      H   28    0.10188      0.00000     0.39629    0.00183     0.39812
      H   29    0.09025      0.00000     0.40784    0.00191     0.40975
      H   30    0.17558      0.00000     0.31787    0.00655     0.32442
      H   31    0.17357      0.00000     0.32423    0.00220     0.32643
 =======================================================================
   * Total *    0.00153     13.99351    36.84602    0.15894    50.99847

 Normal termination of Gaussian 16 at Thu Dec 10 10:59:23 2020.
