 Gaussian 16, Revision A.03,

 -----------------------------------------------------------
 # opt freq B3LYP/6-31G(d) empiricaldispersion=gd3bj scf=xqc
 -----------------------------------------------------------

 -------------------------------
 CID_149621956_JID_4256_neutraal
 -------------------------------
 Symbolic Z-matrix:
 Charge =  0 Multiplicity = 1

 SCF Done:  E(RB3LYP) =  -664.050277525     A.U. after   17 cycles
 SCF Done:  E(RB3LYP) =  -664.057730086     A.U. after   14 cycles
 SCF Done:  E(RB3LYP) =  -664.059715323     A.U. after   14 cycles
 SCF Done:  E(RB3LYP) =  -664.060170738     A.U. after   14 cycles
 SCF Done:  E(RB3LYP) =  -664.060363734     A.U. after   15 cycles
 SCF Done:  E(RB3LYP) =  -664.060487386     A.U. after   15 cycles
 SCF Done:  E(RB3LYP) =  -664.060767191     A.U. after   13 cycles
 SCF Done:  E(RB3LYP) =  -664.061636889     A.U. after   17 cycles
 SCF Done:  E(RB3LYP) =  -664.061855279     A.U. after   16 cycles
 SCF Done:  E(RB3LYP) =  -664.061581302     A.U. after   15 cycles
 SCF Done:  E(RB3LYP) =  -664.063080772     A.U. after   11 cycles
 SCF Done:  E(RB3LYP) =  -664.063081449     A.U. after   10 cycles
 SCF Done:  E(RB3LYP) =  -664.063081614     A.U. after    8 cycles
 SCF Done:  E(RB3LYP) =  -664.063081705     A.U. after    8 cycles
 SCF Done:  E(RB3LYP) =  -664.063081734     A.U. after    8 cycles
 Optimization completed.
    -- Stationary point found.
 Normal termination of Gaussian 16 at Thu Dec 10 09:27:38 2020.

 --------------------------------------------------------------------
 #N Geom=AllCheck Guess=TCheck SCRF=Check GenChk RB3LYP/6-31G(d) Freq
 --------------------------------------------------------------------

 Structure from the checkpoint file:  "JID_4256.chk"
 -------------------------------
 CID_149621956_JID_4256_neutraal
 -------------------------------
 Charge =  0 Multiplicity = 1

 SCF Done:  E(RB3LYP) =  -664.063081734     A.U. after    1 cycles

  Exact polarizability: 135.728   5.034 106.060 -13.437  -7.135 102.574
 Approx polarizability: 183.725   8.478 160.998 -38.272 -21.659 188.526

                      1                      2                      3
                      A                      A                      A
 Frequencies --     15.1375                39.5399                66.7594
 Red. masses --      8.5068                 6.0275                11.5512
 Frc consts  --      0.0011                 0.0056                 0.0303
 IR Inten    --      0.7162                 0.2667                 1.9706

                      4                      5                      6
                      A                      A                      A
 Frequencies --     93.1523               102.7705               147.2774
 Red. masses --      7.0575                 4.5943                 3.3355
 Frc consts  --      0.0361                 0.0286                 0.0426
 IR Inten    --      1.3258                 1.0506                 0.5808

                      7                      8                      9
                      A                      A                      A
 Frequencies --    158.7202               175.8255               202.7881
 Red. masses --      2.4853                 3.2975                 4.1592
 Frc consts  --      0.0369                 0.0601                 0.1008
 IR Inten    --      0.0828                 1.4696                 1.8985

                     10                     11                     12
                      A                      A                      A
 Frequencies --    219.9110               267.6703               309.9796
 Red. masses --      2.7671                 6.4739                 5.5257
 Frc consts  --      0.0788                 0.2733                 0.3128
 IR Inten    --      0.8634                 1.0227                 7.6232

                     13                     14                     15
                      A                      A                      A
 Frequencies --    386.7744               423.3670               446.2722
 Red. masses --      2.7428                 4.0683                 5.2785
 Frc consts  --      0.2417                 0.4296                 0.6194
 IR Inten    --      0.4374                23.7075                 0.3977

                     16                     17                     18
                      A                      A                      A
 Frequencies --    479.1959               532.9258               534.1891
 Red. masses --      3.5585                 3.4506                 6.0558
 Frc consts  --      0.4814                 0.5774                 1.0182
 IR Inten    --      0.9699                18.5947                 3.4257

                     19                     20                     21
                      A                      A                      A
 Frequencies --    602.5010               612.3106               661.1958
 Red. masses --      3.3158                 3.5814                10.8682
 Frc consts  --      0.7092                 0.7911                 2.7994
 IR Inten    --      0.2164                 2.5604                 1.9307

                     22                     23                     24
                      A                      A                      A
 Frequencies --    738.9710               794.5540               799.3045
 Red. masses --      3.9679                 1.0408                 1.0427
 Frc consts  --      1.2766                 0.3871                 0.3925
 IR Inten    --      2.6510                 0.8071                 0.2445

                     25                     26                     27
                      A                      A                      A
 Frequencies --    842.5624               866.0007               916.5600
 Red. masses --      3.4989                 8.3258                 1.4860
 Frc consts  --      1.4635                 3.6788                 0.7355
 IR Inten    --      5.3426                12.7002                 3.1018

                     28                     29                     30
                      A                      A                      A
 Frequencies --    918.9666               929.0418               935.2674
 Red. masses --      3.5483                 2.0390                 1.9802
 Frc consts  --      1.7655                 1.0369                 1.0206
 IR Inten    --     16.0823                12.2378                 5.5458

                     31                     32                     33
                      A                      A                      A
 Frequencies --    976.3869              1005.9734              1011.3143
 Red. masses --      3.6782                 2.9797                 1.8519
 Frc consts  --      2.0660                 1.7766                 1.1159
 IR Inten    --     24.2735                28.9475                 4.3091

                     34                     35                     36
                      A                      A                      A
 Frequencies --   1035.6328              1052.1416              1061.9719
 Red. masses --      2.3954                 1.4396                 1.7698
 Frc consts  --      1.5137                 0.9390                 1.1760
 IR Inten    --      5.5089                 0.7858                 8.3741

                     37                     38                     39
                      A                      A                      A
 Frequencies --   1071.9072              1088.8738              1090.2616
 Red. masses --      1.8010                 1.4125                 1.4459
 Frc consts  --      1.2192                 0.9867                 1.0126
 IR Inten    --      3.7112                 0.2610                 3.6832

                     40                     41                     42
                      A                      A                      A
 Frequencies --   1124.5538              1149.5027              1171.3475
 Red. masses --      1.8339                 1.6445                 9.3411
 Frc consts  --      1.3664                 1.2803                 7.5512
 IR Inten    --      0.0840                 0.6683                62.0260

                     43                     44                     45
                      A                      A                      A
 Frequencies --   1188.3057              1189.6563              1195.4102
 Red. masses --      1.3266                 1.3472                 1.7636
 Frc consts  --      1.1037                 1.1234                 1.4849
 IR Inten    --      1.7909                 7.0240                35.7748

                     46                     47                     48
                      A                      A                      A
 Frequencies --   1244.0871              1302.0930              1319.6332
 Red. masses --      2.4218                 1.2289                 1.6477
 Frc consts  --      2.2085                 1.2276                 1.6905
 IR Inten    --     63.8031                21.5660                27.8160

                     49                     50                     51
                      A                      A                      A
 Frequencies --   1324.6760              1396.7761              1487.2429
 Red. masses --      3.1172                 1.4421                 1.0903
 Frc consts  --      3.2228                 1.6577                 1.4209
 IR Inten    --      0.7680                12.0810                 0.0487

                     52                     53                     54
                      A                      A                      A
 Frequencies --   1489.9795              1491.8883              1502.5588
 Red. masses --      1.0937                 1.0907                 1.1648
 Frc consts  --      1.4305                 1.4303                 1.5495
 IR Inten    --      0.5315                 8.0019                 0.3273

                     55                     56                     57
                      A                      A                      A
 Frequencies --   1525.2649              1647.2859              1784.8886
 Red. masses --      1.3618                 8.4168                11.2062
 Frc consts  --      1.8666                13.4566                21.0345
 IR Inten    --      0.3461                 1.7754               179.4068

                     58                     59                     60
                      A                      A                      A
 Frequencies --   2200.1580              3090.3555              3135.6384
 Red. masses --     13.9920                 1.0623                 1.0520
 Frc consts  --     39.9059                 5.9772                 6.0943
 IR Inten    --    283.9561                13.5541                13.1206

                     61                     62                     63
                      A                      A                      A
 Frequencies --   3139.4964              3140.6035              3144.2996
 Red. masses --      1.0524                 1.0552                 1.0567
 Frc consts  --      6.1116                 6.1322                 6.1552
 IR Inten    --     16.1917                19.5331                11.7846

                     64                     65                     66
                      A                      A                      A
 Frequencies --   3170.1552              3174.1583              3211.6766
 Red. masses --      1.0885                 1.1035                 1.1196
 Frc consts  --      6.4453                 6.5505                 6.8042
 IR Inten    --      5.6875                 8.1477                 0.6598

                     67                     68                     69
                      A                      A                      A
 Frequencies --   3217.6299              3225.5936              3232.5366
 Red. masses --      1.1190                 1.1167                 1.1157
 Frc consts  --      6.8257                 6.8457                 6.8688
 IR Inten    --      1.8601                13.3492                 9.9098

 - Thermochemistry -
 -------------------
 Temperature   298.150 Kelvin.  Pressure   1.00000 Atm.
 Atom     1 has atomic number  6 and mass  12.00000

 Molecular mass:   193.08513 amu.
 Principal axes and moments of inertia in atomic units:
                           1         2         3
     Eigenvalues --  1412.821104127.915824500.39096
           X            1.00000  -0.00090   0.00068
           Y            0.00092   0.99943  -0.03384
           Z           -0.00065   0.03384   0.99943
 This molecule is an asymmetric top.
 Rotational symmetry number  1.
 Warning -- assumption of classical behavior for rotation
           may cause significant error
 Rotational temperatures (Kelvin)      0.06131     0.02098     0.01925
 Rotational constants (GHZ):           1.27740     0.43720     0.40102
 Zero-point vibrational energy     509797.0 (Joules/Mol)
                                  121.84441 (Kcal/Mol)
 Warning -- explicit consideration of  20 degrees of freedom as
           vibrations may cause significant error
 Vibrational temperatures:     21.78    56.89    96.05   134.03   147.86
          (Kelvin)            211.90   228.36   252.97   291.77   316.40
                              385.12   445.99   556.48   609.13   642.09
                              689.46   766.76   768.58   866.86   880.98
                              951.31  1063.21  1143.19  1150.02  1212.26
                             1245.98  1318.73  1322.19  1336.68  1345.64
                             1404.80  1447.37  1455.06  1490.04  1513.80
                             1527.94  1542.24  1566.65  1568.64  1617.98
                             1653.88  1685.31  1709.71  1711.65  1719.93
                             1789.96  1873.42  1898.66  1905.91  2009.65
                             2139.81  2143.75  2146.49  2161.85  2194.52
                             2370.08  2568.06  3165.54  4446.33  4511.48
                             4517.04  4518.63  4523.95  4561.15  4566.91
                             4620.89  4629.45  4640.91  4650.90

 Zero-point correction=                           0.194171 (Hartree/Particle)
 Thermal correction to Energy=                    0.207900
 Thermal correction to Enthalpy=                  0.208844
 Thermal correction to Gibbs Free Energy=         0.151717
 Sum of electronic and zero-point Energies=           -663.868910
 Sum of electronic and thermal Energies=              -663.855182
 Sum of electronic and thermal Enthalpies=            -663.854238
 Sum of electronic and thermal Free Energies=         -663.911365

                     E (Thermal)             CV                S
                      KCal/Mol        Cal/Mol-Kelvin    Cal/Mol-Kelvin
 Total                  130.459             49.961            120.234
 Electronic               0.000              0.000              0.000
 Translational            0.889              2.981             41.679
 Rotational               0.889              2.981             31.640
 Vibrational            128.682             43.999             46.915
 Vibration     1          0.593              1.986              7.187
 Vibration     2          0.594              1.981              5.282
 Vibration     3          0.598              1.970              4.247
 Vibration     4          0.602              1.954              3.593
 Vibration     5          0.605              1.947              3.401
 Vibration     6          0.617              1.906              2.707
 Vibration     7          0.621              1.893              2.565
 Vibration     8          0.628              1.872              2.372
 Vibration     9          0.639              1.836              2.108
 Vibration    10          0.647              1.811              1.960
 Vibration    11          0.673              1.733              1.611
 Vibration    12          0.699              1.655              1.362
 Vibration    13          0.755              1.498              1.013
 Vibration    14          0.786              1.419              0.881
 Vibration    15          0.806              1.369              0.807
 Vibration    16          0.836              1.296              0.712
 Vibration    17          0.888              1.177              0.581
 Vibration    18          0.889              1.174              0.578
 Vibration    19          0.961              1.026              0.445
 Vibration    20          0.972              1.006              0.429

 Optimization completed.
    -- Stationary point found.
 Normal termination of Gaussian 16 at Thu Dec 10 09:34:09 2020.

 ----------------------------------------------------------------------
 # B3LYP/6-311++G(d,p) empiricaldispersion=gd3bj scf=xqc pop=npa geom=c
 heck
 ----------------------------------------------------------------------

 ---------------------------------------
 CID_149621956_JID_4256_Energie_neutraal
 ---------------------------------------
 Structure from the checkpoint file:  "JID_4256.chk"
 Charge =  0 Multiplicity = 1

 SCF Done:  E(RB3LYP) =  -664.246325557     A.U. after   16 cycles
 Normal termination of Gaussian 16 at Thu Dec 10 09:37:15 2020.

 ----------------------------------------------------------------------
 # B3LYP/6-311++G(d,p) empiricaldispersion=gd3bj scf=xqc pop=npa geom=c
 heck
 ----------------------------------------------------------------------

 -------------------------------------
 CID_149621956_JID_4256_Energie_kation
 -------------------------------------
 Structure from the checkpoint file:  "JID_4256.chk"
 Charge =  1 Multiplicity = 2

 SCF Done:  E(UB3LYP) =  -663.926659017     A.U. after   28 cycles
 Normal termination of Gaussian 16 at Thu Dec 10 09:44:56 2020.
 Gaussian 16:  ES64L-G16RevA.03 25-Dec-2016

 ----------------------------------------------------------------------
 # B3LYP/6-311++G(d,p) empiricaldispersion=gd3bj scf=xqc pop=npa geom=c
 heck
 ----------------------------------------------------------------------

 ------------------------------------
 CID_149621956_JID_4256_Energie_anion
 ------------------------------------
 Structure from the checkpoint file:  "JID_4256.chk"
 Charge = -1 Multiplicity = 2

                         Standard orientation:
 ---------------------------------------------------------------------
 Center     Atomic      Atomic             Coordinates (Angstroms)
 Number     Number       Type             X           Y           Z
 ---------------------------------------------------------------------
      1          6           0       -3.536920   -0.881723   -0.394463
      2          6           0       -2.728611   -1.318635    0.825035
      3          6           0       -2.177863   -0.340095   -0.150951
      4          6           0       -0.913410   -0.200016   -0.980489
      5          6           0       -1.494458    0.936029   -0.156700
      6          6           0       -0.968627    1.938393    0.807185
      7          6           0       -1.784381    2.369693   -0.408016
      8          6           0        0.351236   -0.856390   -0.559990
      9          8           0        1.155001   -1.274045   -1.378061
     10          6           0        0.688439   -0.942325    0.934866
     11          8           0        1.686450    0.041229    1.262223
     12          7           0        2.992694   -0.443890    0.879346
     13          7           0        3.370866    0.220994   -0.118629
     14          7           0        3.866409    0.764988   -0.988321
     15          1           0       -3.671783   -1.604273   -1.195286
     16          1           0       -4.385365   -0.220584   -0.234319
     17          1           0       -3.036551   -0.951236    1.801369
     18          1           0       -2.334281   -2.332058    0.830384
     19          1           0       -1.030138   -0.147932   -2.060974
     20          1           0        0.098980    2.137824    0.810051
     21          1           0       -1.440602    1.999937    1.785245
     22          1           0       -1.260202    2.867557   -1.219772
     23          1           0       -2.800278    2.721367   -0.243437
     24          1           0       -0.155262   -0.688963    1.576725
     25          1           0        1.061672   -1.943345    1.171070
 ---------------------------------------------------------------------

 SCF Done:  E(UB3LYP) =  -664.257543273     A.U. after   33 cycles
 SCF Done:  E(UB3LYP) =  -664.257654887     a.u. after    6 cycles

 The electronic state is 2-A.
 Alpha  occ. eigenvalues --  -18.99999 -18.95333 -14.27128 -14.21417 -14.18882
 Alpha  occ. eigenvalues --  -10.09896 -10.09197 -10.08691 -10.08478 -10.08431
 Alpha  occ. eigenvalues --  -10.07556 -10.07545 -10.07062 -10.07050  -0.96767
 Alpha  occ. eigenvalues --   -0.90104  -0.88520  -0.80049  -0.74989  -0.74585
 Alpha  occ. eigenvalues --   -0.68101  -0.57434  -0.51675  -0.50310  -0.50185
 Alpha  occ. eigenvalues --   -0.43427  -0.42140  -0.40688  -0.39610  -0.38103
 Alpha  occ. eigenvalues --   -0.37359  -0.34984  -0.33651  -0.32247  -0.29201
 Alpha  occ. eigenvalues --   -0.28303  -0.28073  -0.27992  -0.27247  -0.26713
 Alpha  occ. eigenvalues --   -0.25065  -0.23407  -0.22878  -0.22181  -0.19443
 Alpha  occ. eigenvalues --   -0.18456  -0.17430  -0.16307  -0.13209  -0.10405
 Alpha  occ. eigenvalues --   -0.07021   0.04946
 Alpha virt. eigenvalues --    0.06498   0.08065   0.08612   0.09234   0.10053
 Alpha virt. eigenvalues --    0.10831   0.11432   0.11902   0.12728   0.13325
 Alpha virt. eigenvalues --    0.14164   0.14761   0.15009   0.15718   0.16498

  Beta  occ. eigenvalues --  -18.99632 -18.95028 -14.26786 -14.21427 -14.18203
  Beta  occ. eigenvalues --  -10.09699 -10.09158 -10.08651 -10.08474 -10.08423
  Beta  occ. eigenvalues --  -10.07542 -10.07539 -10.07090 -10.07049  -0.95966
  Beta  occ. eigenvalues --   -0.89368  -0.87874  -0.79983  -0.74576  -0.74326
  Beta  occ. eigenvalues --   -0.68035  -0.56969  -0.51643  -0.50207  -0.50076
  Beta  occ. eigenvalues --   -0.43361  -0.41717  -0.40498  -0.39474  -0.37954
  Beta  occ. eigenvalues --   -0.37291  -0.34636  -0.32574  -0.31436  -0.28516
  Beta  occ. eigenvalues --   -0.28113  -0.27819  -0.27426  -0.26701  -0.26326
  Beta  occ. eigenvalues --   -0.24583  -0.23183  -0.22744  -0.21343  -0.18854
  Beta  occ. eigenvalues --   -0.17599  -0.17385  -0.15896  -0.12778  -0.10126
  Beta  occ. eigenvalues --   -0.06726
  Beta virt. eigenvalues --    0.06590   0.08178   0.08481   0.09548   0.10387
  Beta virt. eigenvalues --    0.10710   0.11378   0.11706   0.12815   0.13262
  Beta virt. eigenvalues --    0.13640   0.14039   0.14682   0.14946   0.15598

 Mulliken charges and spin densities:
               1          2
     1  C   -0.177485  -0.150061
     2  C   -0.343110  -0.044215
     3  C    0.242896   0.153586
     4  C    0.472085  -0.150881
     5  C   -0.264987   0.155321
     6  C   -0.525677   0.104413
     7  C   -0.012323  -0.372232
     8  C   -0.589197   0.136355
     9  O   -0.277009   0.098521
    10  C   -0.282330   0.044118
    11  O    0.036266   0.001866
    12  N   -0.437140   0.074779
    13  N    0.445850   0.068404
    14  N   -0.472782   0.368064
    15  H    0.082480   0.055551
    16  H    0.071989   0.053884
    17  H    0.126479   0.004417
    18  H    0.086078   0.070757
    19  H    0.217797   0.019336
    20  H    0.168584   0.003780
    21  H    0.120171   0.011753
    22  H    0.124147   0.015232
    23  H   -0.106488   0.233735
    24  H    0.163324  -0.005861
    25  H    0.130380   0.049379
 Sum of Mulliken charges =  -1.00000   1.00000

 Dipole moment (field-independent basis, Debye):
    X=             -9.0947    Y=              0.1705    Z=              1.7229  Tot=              9.2581
 Quadrupole moment (field-independent basis, Debye-Ang):
   XX=           -134.7884   YY=            -98.5757   ZZ=            -98.4980
   XY=              2.5891   XZ=              3.4649   YZ=             -1.4466

 Summary of Natural Population Analysis:

                                       Natural Population
                Natural  -----------------------------------------------
    Atom  No    Charge         Core      Valence    Rydberg      Total
 -----------------------------------------------------------------------
      C    1   -0.18756      0.99960     2.18206    0.00590     3.18756
      C    2   -0.18765      0.99961     2.18214    0.00590     3.18765
      C    3   -0.03592      0.99950     2.02261    0.01380     3.03592
      C    4   -0.12830      0.99951     2.11826    0.01053     3.12830
      C    5   -0.03437      0.99950     2.02175    0.01312     3.03437
      C    6   -0.18692      0.99960     2.17987    0.00744     3.18692
      C    7   -0.19068      0.99960     2.18439    0.00669     3.19068
      C    8    0.28498      0.99964     1.69123    0.02415     2.71502
      O    9   -0.25505      0.99988     3.24826    0.00691     4.25505
      C   10   -0.05362      0.99956     2.04046    0.01361     3.05362
      O   11   -0.20147      0.99990     3.19173    0.00983     4.20147
      N   12   -0.09576      0.99973     2.57922    0.01681     3.59576
      N   13    0.12222      0.99971     2.36161    0.01646     3.37778
      N   14    0.04717      0.99982     2.43998    0.01303     3.45283
      H   15    0.10056      0.00000     0.39833    0.00111     0.39944
      H   16    0.09831      0.00000     0.40060    0.00109     0.40169
      H   17    0.09919      0.00000     0.39976    0.00105     0.40081
      H   18    0.10322      0.00000     0.39536    0.00141     0.39678
      H   19    0.10701      0.00000     0.39109    0.00190     0.39299
      H   20    0.11668      0.00000     0.38206    0.00126     0.38332
      H   21    0.09756      0.00000     0.40155    0.00089     0.40244
      H   22    0.10222      0.00000     0.39696    0.00081     0.39778
      H   23    0.09825      0.00000     0.40033    0.00143     0.40175
      H   24    0.08816      0.00000     0.41093    0.00092     0.41184
      H   25    0.09175      0.00000     0.40649    0.00176     0.40825
 =======================================================================
   * Total *   -0.00000     13.99518    36.82705    0.17778    51.00000

 Normal termination of Gaussian 16 at Thu Dec 10 10:38:27 2020.
