 Gaussian 16, Revision A.03,

 -----------------------------------------------------------
 # opt freq B3LYP/6-31G(d) empiricaldispersion=gd3bj scf=xqc
 -----------------------------------------------------------

 -------------------------------
 CID_140900653_JID_4261_neutraal
 -------------------------------
 Symbolic Z-matrix:
 Charge =  0 Multiplicity = 1

 SCF Done:  E(RB3LYP) =  -685.138815974     A.U. after   14 cycles
 SCF Done:  E(RB3LYP) =  -685.144081876     A.U. after   12 cycles
 SCF Done:  E(RB3LYP) =  -685.144616262     A.U. after   12 cycles
 SCF Done:  E(RB3LYP) =  -685.144719294     A.U. after   12 cycles
 SCF Done:  E(RB3LYP) =  -685.145240689     A.U. after   12 cycles
 SCF Done:  E(RB3LYP) =  -685.145457632     A.U. after   11 cycles
 SCF Done:  E(RB3LYP) =  -685.145511276     A.U. after   11 cycles
 SCF Done:  E(RB3LYP) =  -685.145527712     A.U. after   10 cycles
 SCF Done:  E(RB3LYP) =  -685.145531172     A.U. after    8 cycles
 SCF Done:  E(RB3LYP) =  -685.145532180     A.U. after    8 cycles
 SCF Done:  E(RB3LYP) =  -685.145532485     A.U. after    7 cycles
 SCF Done:  E(RB3LYP) =  -685.145532635     A.U. after    7 cycles
 SCF Done:  E(RB3LYP) =  -685.145532689     A.U. after    7 cycles
 Optimization completed.
    -- Stationary point found.
 Normal termination of Gaussian 16 at Thu Dec 10 09:21:44 2020.

 --------------------------------------------------------------------
 #N Geom=AllCheck Guess=TCheck SCRF=Check GenChk RB3LYP/6-31G(d) Freq
 --------------------------------------------------------------------

 Structure from the checkpoint file:  "JID_4261.chk"
 -------------------------------
 CID_140900653_JID_4261_neutraal
 -------------------------------
 Charge =  0 Multiplicity = 1

 SCF Done:  E(RB3LYP) =  -685.145532689     A.U. after    1 cycles

  Exact polarizability: 145.327  -5.594 106.526 -10.438   0.866 101.978
 Approx polarizability: 180.179 -11.072 164.076  -9.651   0.080 151.615

                      1                      2                      3
                      A                      A                      A
 Frequencies --     24.4752                26.6409                36.4740
 Red. masses --      4.9068                 5.7017                 5.7022
 Frc consts  --      0.0017                 0.0024                 0.0045
 IR Inten    --      0.1648                 0.7909                 1.2321

                      4                      5                      6
                      A                      A                      A
 Frequencies --     47.9948                85.5148                96.0887
 Red. masses --      8.7419                 3.3818                 3.3297
 Frc consts  --      0.0119                 0.0146                 0.0181
 IR Inten    --      1.2197                 0.0247                 0.1382

                      7                      8                      9
                      A                      A                      A
 Frequencies --    110.3118               132.1935               169.8640
 Red. masses --      3.0613                 2.5566                 3.7329
 Frc consts  --      0.0219                 0.0263                 0.0635
 IR Inten    --      2.3976                 0.5543                 0.4744

                     10                     11                     12
                      A                      A                      A
 Frequencies --    212.7890               242.8787               245.8684
 Red. masses --      2.8874                 1.9202                 1.9434
 Frc consts  --      0.0770                 0.0667                 0.0692
 IR Inten    --      0.5612                 8.2594                 3.3376

                     13                     14                     15
                      A                      A                      A
 Frequencies --    259.6857               288.9873               303.7257
 Red. masses --      1.9505                 2.2350                 1.7530
 Frc consts  --      0.0775                 0.1100                 0.0953
 IR Inten    --     28.6957                12.7980                19.2189

                     16                     17                     18
                      A                      A                      A
 Frequencies --    327.2771               352.8351               379.2086
 Red. masses --      2.1253                 2.5992                 2.3189
 Frc consts  --      0.1341                 0.1906                 0.1965
 IR Inten    --      7.3929                 1.8174                40.1118

                     19                     20                     21
                      A                      A                      A
 Frequencies --    404.1486               460.2133               524.8738
 Red. masses --      2.6082                 2.6763                 2.8533
 Frc consts  --      0.2510                 0.3340                 0.4631
 IR Inten    --      7.8981                 4.0106                15.1258

                     22                     23                     24
                      A                      A                      A
 Frequencies --    563.1273               601.1213               631.6514
 Red. masses --      1.3673                 2.6119                 1.4647
 Frc consts  --      0.2555                 0.5561                 0.3443
 IR Inten    --    129.7408                87.9151                59.1203

                     25                     26                     27
                      A                      A                      A
 Frequencies --    646.1583               667.3451               756.2380
 Red. masses --      2.5536                 4.6692                 1.8823
 Frc consts  --      0.6282                 1.2252                 0.6342
 IR Inten    --     40.7831                 1.6762                23.9171

                     28                     29                     30
                      A                      A                      A
 Frequencies --    772.6955               782.1088               816.0171
 Red. masses --      1.8116                 2.2442                 2.5786
 Frc consts  --      0.6373                 0.8088                 1.0117
 IR Inten    --     20.6292                14.9595                 9.4043

                     31                     32                     33
                      A                      A                      A
 Frequencies --    897.7283               903.4678               925.9143
 Red. masses --      2.3224                 1.7774                 1.8517
 Frc consts  --      1.1028                 0.8548                 0.9353
 IR Inten    --     31.2931                39.0119                66.2098

                     34                     35                     36
                      A                      A                      A
 Frequencies --    932.4002               954.4374               960.8681
 Red. masses --      1.8964                 1.7772                 1.4511
 Frc consts  --      0.9714                 0.9539                 0.7893
 IR Inten    --     71.3232                60.1479                 3.2826

                     37                     38                     39
                      A                      A                      A
 Frequencies --   1001.6167              1013.1462              1054.3218
 Red. masses --      1.8864                 1.7951                 3.1280
 Frc consts  --      1.1150                 1.0856                 2.0486
 IR Inten    --     11.6650                40.0170                 3.1424

                     40                     41                     42
                      A                      A                      A
 Frequencies --   1093.9749              1106.2055              1136.6425
 Red. masses --      1.9568                 2.2195                 1.8994
 Frc consts  --      1.3798                 1.6002                 1.4458
 IR Inten    --      2.1770                 2.3515                26.6397

                     43                     44                     45
                      A                      A                      A
 Frequencies --   1150.1864              1162.7081              1188.1072
 Red. masses --      2.2511                 2.5288                 1.5977
 Frc consts  --      1.7546                 2.0142                 1.3288
 IR Inten    --      2.9826               206.4732                 3.9767

                     46                     47                     48
                      A                      A                      A
 Frequencies --   1201.2372              1224.5760              1237.9640
 Red. masses --      1.6514                 1.9650                 2.7506
 Frc consts  --      1.4040                 1.7362                 2.4837
 IR Inten    --      6.7844                20.7470                73.1119

                     49                     50                     51
                      A                      A                      A
 Frequencies --   1277.4948              1280.5000              1303.9516
 Red. masses --      1.3492                 1.2955                 1.3645
 Frc consts  --      1.2973                 1.2515                 1.3669
 IR Inten    --     18.9951                 2.4998                 1.7824

                     52                     53                     54
                      A                      A                      A
 Frequencies --   1326.4942              1343.4901              1348.6708
 Red. masses --      1.3004                 1.1694                 1.1472
 Frc consts  --      1.3481                 1.2436                 1.2295
 IR Inten    --      3.2585                14.4020                 1.9819

                     55                     56                     57
                      A                      A                      A
 Frequencies --   1367.2574              1386.8924              1393.1304
 Red. masses --      1.2328                 1.4430                 1.4028
 Frc consts  --      1.3578                 1.6353                 1.6040
 IR Inten    --      3.3861                30.9252                11.8011

                     58                     59                     60
                      A                      A                      A
 Frequencies --   1397.7418              1413.1392              1416.5716
 Red. masses --      1.3850                 1.4008                 1.1846
 Frc consts  --      1.5943                 1.6481                 1.4005
 IR Inten    --      5.5254                 7.1363                 0.3549

                     61                     62                     63
                      A                      A                      A
 Frequencies --   1431.1728              1442.0297              1487.5876
 Red. masses --      1.4598                 1.5007                 1.2811
 Frc consts  --      1.7617                 1.8386                 1.6704
 IR Inten    --      0.6433                 3.4036                 0.8510

                     64                     65                     66
                      A                      A                      A
 Frequencies --   1508.5067              1515.9923              1522.6237
 Red. masses --      1.0918                 1.0820                 1.0901
 Frc consts  --      1.4638                 1.4651                 1.4891
 IR Inten    --      2.7040                 9.5420                 2.6269

                     67                     68                     69
                      A                      A                      A
 Frequencies --   1527.9500              1559.0526              1706.5427
 Red. masses --      1.0974                 1.0854                 1.0887
 Frc consts  --      1.5094                 1.5545                 1.8680
 IR Inten    --      3.0836                 9.9425                26.0104

                     70                     71                     72
                      A                      A                      A
 Frequencies --   1722.0751              1752.9013              1839.0409
 Red. masses --      1.1133                 5.4752                 9.5069
 Frc consts  --      1.9453                 9.9122                18.9440
 IR Inten    --     49.9915               254.3099               258.2377

                     73                     74                     75
                      A                      A                      A
 Frequencies --   2972.7870              3005.7511              3036.6375
 Red. masses --      1.0713                 1.0681                 1.0651
 Frc consts  --      5.5784                 5.6857                 5.7868
 IR Inten    --     54.2734                36.0399                14.5326

                     76                     77                     78
                      A                      A                      A
 Frequencies --   3046.0167              3049.1990              3064.9185
 Red. masses --      1.0647                 1.0629                 1.0873
 Frc consts  --      5.8203                 5.8224                 6.0175
 IR Inten    --     15.0880                39.8720                33.8589

                     79                     80                     81
                      A                      A                      A
 Frequencies --   3069.4768              3081.0983              3092.5417
 Red. masses --      1.0880                 1.1021                 1.0988
 Frc consts  --      6.0393                 6.1641                 6.1913
 IR Inten    --     54.3155                17.1916                19.2708

                     82                     83                     84
                      A                      A                      A
 Frequencies --   3099.7980              3102.5870              3136.8248
 Red. masses --      1.1029                 1.0879                 1.0853
 Frc consts  --      6.2436                 6.1697                 6.2917
 IR Inten    --     49.9102                41.5522                16.8097

                     85                     86                     87
                      A                      A                      A
 Frequencies --   3436.9998              3456.4353              3538.0247
 Red. masses --      1.0486                 1.0500                 1.0946
 Frc consts  --      7.2982                 7.3907                 8.0728
 IR Inten    --     14.0359                 0.8918                 0.3241

                     88                     89                     90
                      A                      A                      A
 Frequencies --   3538.7866              3622.8729              3666.1960
 Red. masses --      1.0915                 1.0761                 1.0639
 Frc consts  --      8.0532                 8.3218                 8.4253
 IR Inten    --      1.1716                15.2596                39.7477

 - Thermochemistry -
 -------------------
 Temperature   298.150 Kelvin.  Pressure   1.00000 Atm.
 Atom     1 has atomic number  6 and mass  12.00000

 Molecular mass:   202.14298 amu.
 Principal axes and moments of inertia in atomic units:
                           1         2         3
     Eigenvalues --  1271.748157513.150427761.79386
           X            0.99997   0.00111  -0.00783
           Y           -0.00075   0.99892   0.04639
           Z            0.00787  -0.04638   0.99889
 This molecule is an asymmetric top.
 Rotational symmetry number  1.
 Warning -- assumption of classical behavior for rotation
           may cause significant error
 Rotational temperatures (Kelvin)      0.06811     0.01153     0.01116
 Rotational constants (GHZ):           1.41910     0.24021     0.23252
 Zero-point vibrational energy     738106.5 (Joules/Mol)
                                  176.41170 (Kcal/Mol)
 Warning -- explicit consideration of  23 degrees of freedom as
           vibrations may cause significant error
 Vibrational temperatures:     35.21    38.33    52.48    69.05   123.04
          (Kelvin)            138.25   158.71   190.20   244.40   306.16
                              349.45   353.75   373.63   415.79   436.99
                              470.88   507.65   545.60   581.48   662.14
                              755.18   810.21   864.88   908.81   929.68
                              960.16  1088.06  1111.74  1125.28  1174.07
                             1291.63  1299.89  1332.18  1341.52  1373.22
                             1382.47  1441.10  1457.69  1516.93  1573.99
                             1591.58  1635.38  1654.86  1672.88  1709.42
                             1728.31  1761.89  1781.15  1838.03  1842.35
                             1876.10  1908.53  1932.98  1940.44  1967.18
                             1995.43  2004.40  2011.04  2033.19  2038.13
                             2059.14  2074.76  2140.31  2170.40  2181.17
                             2190.72  2198.38  2243.13  2455.33  2477.68
                             2522.03  2645.97  4277.18  4324.61  4369.04
                             4382.54  4387.12  4409.73  4416.29  4433.01
                             4449.48  4459.92  4463.93  4513.19  4945.08
                             4973.04  5090.43  5091.52  5212.51  5274.84

 Zero-point correction=                           0.281130 (Hartree/Particle)
 Thermal correction to Energy=                    0.297446
 Thermal correction to Enthalpy=                  0.298390
 Thermal correction to Gibbs Free Energy=         0.234857
 Sum of electronic and zero-point Energies=           -684.864403
 Sum of electronic and thermal Energies=              -684.848087
 Sum of electronic and thermal Enthalpies=            -684.847143
 Sum of electronic and thermal Free Energies=         -684.910675

                     E (Thermal)             CV                S
                      KCal/Mol        Cal/Mol-Kelvin    Cal/Mol-Kelvin
 Total                  186.650             58.508            133.716
 Electronic               0.000              0.000              0.000
 Translational            0.889              2.981             41.816
 Rotational               0.889              2.981             32.672
 Vibrational            184.873             52.546             59.227
 Vibration     1          0.593              1.985              6.233
 Vibration     2          0.593              1.984              6.065
 Vibration     3          0.594              1.982              5.442
 Vibration     4          0.595              1.978              4.898
 Vibration     5          0.601              1.959              3.760
 Vibration     6          0.603              1.952              3.532
 Vibration     7          0.606              1.941              3.263
 Vibration     8          0.612              1.921              2.914
 Vibration     9          0.625              1.880              2.437
 Vibration    10          0.644              1.821              2.020
 Vibration    11          0.659              1.775              1.782
 Vibration    12          0.660              1.770              1.760
 Vibration    13          0.668              1.746              1.664
 Vibration    14          0.686              1.694              1.480
 Vibration    15          0.695              1.667              1.396
 Vibration    16          0.711              1.621              1.273
 Vibration    17          0.729              1.569              1.154
 Vibration    18          0.749              1.514              1.042
 Vibration    19          0.769              1.461              0.948
 Vibration    20          0.818              1.338              0.765
 Vibration    21          0.880              1.195              0.599
 Vibration    22          0.919              1.111              0.518
 Vibration    23          0.959              1.029              0.448

                           ! Non-Optimized Parameters !
 Normal termination of Gaussian 16 at Thu Dec 10 09:30:03 2020.

 ----------------------------------------------------------------------
 # B3LYP/6-311++G(d,p) empiricaldispersion=gd3bj scf=xqc pop=npa geom=c
 heck
 ----------------------------------------------------------------------

 ---------------------------------------
 CID_140900653_JID_4261_Energie_neutraal
 ---------------------------------------
 Structure from the checkpoint file:  "JID_4261.chk"
 Charge =  0 Multiplicity = 1

 SCF Done:  E(RB3LYP) =  -685.371787025     A.U. after   14 cycles
 Normal termination of Gaussian 16 at Thu Dec 10 09:33:56 2020.

 ----------------------------------------------------------------------
 # B3LYP/6-311++G(d,p) empiricaldispersion=gd3bj scf=xqc pop=npa geom=c
 heck
 ----------------------------------------------------------------------

 -------------------------------------
 CID_140900653_JID_4261_Energie_kation
 -------------------------------------
 Structure from the checkpoint file:  "JID_4261.chk"
 Charge =  1 Multiplicity = 2

 SCF Done:  E(UB3LYP) =  -685.064495124     A.U. after   33 cycles
 SCF Done:  E(UB3LYP) =  -685.064495124     a.u. after    1 cycles
 Normal termination of Gaussian 16 at Thu Dec 10 09:47:21 2020.
 Gaussian 16:  ES64L-G16RevA.03 25-Dec-2016

 ----------------------------------------------------------------------
 # B3LYP/6-311++G(d,p) empiricaldispersion=gd3bj scf=xqc pop=npa geom=c
 heck
 ----------------------------------------------------------------------

 ------------------------------------
 CID_140900653_JID_4261_Energie_anion
 ------------------------------------
 Structure from the checkpoint file:  "JID_4261.chk"
 Charge = -1 Multiplicity = 2

                         Standard orientation:
 ---------------------------------------------------------------------
 Center     Atomic      Atomic             Coordinates (Angstroms)
 Number     Number       Type             X           Y           Z
 ---------------------------------------------------------------------
      1          6           0        0.643844   -0.679008   -0.102254
      2          6           0       -0.656337   -1.068059   -0.822959
      3          6           0       -1.849324   -1.430135    0.078979
      4          6           0       -2.704103   -0.265573    0.626391
      5          6           0       -3.290465    0.523279   -0.540981
      6          8           0       -4.297781    0.216443   -1.142210
      7          8           0       -2.555919    1.617716   -0.860020
      8          7           0       -3.745354   -0.819521    1.491298
      9          6           0        0.583642    0.590887    0.753101
     10          6           0        1.962266    1.056434    1.248599
     11          7           0        2.795658    1.527878    0.149851
     12          6           0        3.745060    0.799711   -0.289735
     13          7           0        4.179420   -0.448236    0.134988
     14          7           0        5.056182   -1.218713   -0.661266
     15          1           0        1.416904   -0.542570   -0.868803
     16          1           0        0.969273   -1.522803    0.526356
     17          1           0       -0.934996   -0.264233   -1.515431
     18          1           0       -0.437914   -1.941364   -1.450408
     19          1           0       -2.534858   -2.081494   -0.479473
     20          1           0       -1.511742   -2.006398    0.948347
     21          1           0       -2.085024    0.410404    1.218606
     22          1           0       -2.993393    2.028252   -1.630865
     23          1           0       -4.268069   -0.058699    1.924143
     24          1           0       -4.418592   -1.307800    0.899433
     25          1           0        0.125576    1.403435    0.176412
     26          1           0       -0.047036    0.422180    1.634573
     27          1           0        1.816494    1.904879    1.928269
     28          1           0        2.424166    0.257259    1.853984
     29          1           0        4.365274    1.190671   -1.103451
     30          1           0        3.522416   -1.029915    0.635138
     31          1           0        4.811042   -1.129762   -1.648348
     32          1           0        6.001230   -0.860390   -0.541594
 ---------------------------------------------------------------------

 SCF Done:  E(UB3LYP) =  -685.361722203     A.U. after   32 cycles

 The electronic state is 2-A.
 Alpha  occ. eigenvalues --  -19.08429 -19.03187 -14.26047 -14.23886 -14.21629
 Alpha  occ. eigenvalues --  -14.19141 -10.21756 -10.13956 -10.12872 -10.10176
 Alpha  occ. eigenvalues --  -10.08808 -10.07865 -10.07556 -10.07400  -1.02434
 Alpha  occ. eigenvalues --   -0.93630  -0.90143  -0.81573  -0.81460  -0.71838
 Alpha  occ. eigenvalues --   -0.69336  -0.66811  -0.62879  -0.58714  -0.54867
 Alpha  occ. eigenvalues --   -0.51523  -0.48898  -0.47614  -0.43964  -0.42658
 Alpha  occ. eigenvalues --   -0.41371  -0.41145  -0.40420  -0.39612  -0.38055
 Alpha  occ. eigenvalues --   -0.37327  -0.35524  -0.34676  -0.33589  -0.32504
 Alpha  occ. eigenvalues --   -0.31900  -0.30398  -0.29116  -0.27534  -0.26546
 Alpha  occ. eigenvalues --   -0.25626  -0.24579  -0.23562  -0.23278  -0.22929
 Alpha  occ. eigenvalues --   -0.20406  -0.19375  -0.17251  -0.15377  -0.14145
 Alpha  occ. eigenvalues --    0.04022
 Alpha virt. eigenvalues --    0.05280   0.06465   0.07132   0.07339   0.08004
 Alpha virt. eigenvalues --    0.08723   0.09175   0.09877   0.10237   0.10784
 Alpha virt. eigenvalues --    0.11292   0.11422   0.12171   0.12757   0.13782

  Beta  occ. eigenvalues --  -19.08378 -19.03171 -14.26042 -14.23806 -14.21605
  Beta  occ. eigenvalues --  -14.19135 -10.21754 -10.13940 -10.12859 -10.10173
  Beta  occ. eigenvalues --  -10.08803 -10.07854 -10.07549 -10.07395  -1.02367
  Beta  occ. eigenvalues --   -0.93573  -0.90092  -0.81538  -0.81424  -0.71811
  Beta  occ. eigenvalues --   -0.69242  -0.66763  -0.62835  -0.58668  -0.54820
  Beta  occ. eigenvalues --   -0.51478  -0.48851  -0.47578  -0.43935  -0.42561
  Beta  occ. eigenvalues --   -0.41348  -0.41063  -0.40385  -0.39568  -0.38016
  Beta  occ. eigenvalues --   -0.37301  -0.35485  -0.34647  -0.33546  -0.32478
  Beta  occ. eigenvalues --   -0.31864  -0.30373  -0.29090  -0.27513  -0.26522
  Beta  occ. eigenvalues --   -0.25600  -0.24544  -0.23543  -0.23247  -0.22911
  Beta  occ. eigenvalues --   -0.20377  -0.19314  -0.17220  -0.15347  -0.14115
  Beta virt. eigenvalues --    0.06113   0.06798   0.07131   0.07533   0.07611
  Beta virt. eigenvalues --    0.08143   0.09267   0.09431   0.10099   0.10412
  Beta virt. eigenvalues --    0.10891   0.11359   0.11680   0.12414   0.12810

 Mulliken charges and spin densities:
               1          2
     1  C   -0.506157   0.195318
     2  C    0.033443  -0.067974
     3  C    0.008493  -0.264517
     4  C    0.579899  -1.059131
     5  C   -0.299766   0.155215
     6  O   -0.286877   0.024981
     7  O   -0.113217  -0.023998
     8  N   -0.307565   0.065646
     9  C    0.038824  -0.157725
    10  C   -0.319471  -0.450623
    11  N   -0.059646   0.045171
    12  C    0.496878  -0.723601
    13  N   -0.179199   0.108172
    14  N   -0.075411  -0.415814
    15  H   -0.055990   0.218689
    16  H    0.050933   0.065288
    17  H    0.004187   0.152301
    18  H   -0.058335   0.243242
    19  H    0.092703   0.082276
    20  H    0.199816  -0.006548
    21  H    0.150797   0.083019
    22  H   -0.360903   0.661083
    23  H   -0.097808   0.341348
    24  H    0.126634   0.115776
    25  H    0.249940  -0.021942
    26  H    0.067366   0.017442
    27  H    0.115033   0.068107
    28  H    0.031832   0.067656
    29  H   -0.463286   0.656132
    30  H    0.278443  -0.029267
    31  H   -0.198252   0.446782
    32  H   -0.143341   0.407496
 Sum of Mulliken charges =  -1.00000   1.00000

 Dipole moment (field-independent basis, Debye):
    X=             -3.9403    Y=             -1.5374    Z=              4.5320  Tot=              6.1991
 Quadrupole moment (field-independent basis, Debye-Ang):
   XX=           -205.3732   YY=           -122.1475   ZZ=           -121.1998
   XY=              8.9559   XZ=             11.3924   YZ=              2.6706

 Summary of Natural Population Analysis:

                                       Natural Population
                Natural  -----------------------------------------------
    Atom  No    Charge         Core      Valence    Rydberg      Total
 -----------------------------------------------------------------------
      C    1   -0.19162      0.99962     2.18284    0.00916     3.19162
      C    2   -0.19183      0.99962     2.18384    0.00838     3.19183
      C    3   -0.18852      0.99961     2.18045    0.00846     3.18852
      C    4   -0.06003      0.99955     2.04754    0.01294     3.06003
      C    5    0.40110      0.99969     1.57204    0.02718     2.59890
      O    6   -0.31163      0.99987     3.30507    0.00669     4.31163
      O    7   -0.34167      0.99988     3.33460    0.00719     4.34167
      N    8   -0.41460      0.99978     2.90495    0.00987     3.91460
      C    9   -0.19460      0.99961     2.18800    0.00698     3.19460
      C   10   -0.09828      0.99960     2.08806    0.01062     3.09828
      N   11   -0.27066      0.99969     2.75916    0.01181     3.77066
      C   12    0.14528      0.99961     1.83533    0.01978     2.85472
      N   13   -0.24482      0.99970     2.73145    0.01367     3.74482
      N   14   -0.31946      0.99978     2.80651    0.01316     3.81946
      H   15    0.10274      0.00000     0.39571    0.00155     0.39726
      H   16    0.08689      0.00000     0.41164    0.00147     0.41311
      H   17    0.10086      0.00000     0.39741    0.00173     0.39914
      H   18    0.09940      0.00000     0.39970    0.00090     0.40060
      H   19    0.09969      0.00000     0.39921    0.00110     0.40031
      H   20    0.10293      0.00000     0.39581    0.00126     0.39707
      H   21    0.10473      0.00000     0.39282    0.00244     0.39527
      H   22    0.24327      0.00000     0.24441    0.01232     0.25673
      H   23    0.17682      0.00000     0.32148    0.00171     0.32318
      H   24    0.17821      0.00000     0.31986    0.00193     0.32179
      H   25    0.10555      0.00000     0.39270    0.00175     0.39445
      H   26    0.09142      0.00000     0.40718    0.00140     0.40858
      H   27    0.09575      0.00000     0.40312    0.00113     0.40425
      H   28    0.07350      0.00000     0.42432    0.00218     0.42650
      H   29    0.08369      0.00000     0.41441    0.00190     0.41631
      H   30    0.18452      0.00000     0.31199    0.00349     0.31548
      H   31    0.17429      0.00000     0.31810    0.00762     0.32571
      H   32    0.17708      0.00000     0.31855    0.00437     0.32292
 =======================================================================
   * Total *    0.00000     13.99560    40.78826    0.21614    55.00000

 Normal termination of Gaussian 16 at Thu Dec 10 10:00:23 2020.
