 Gaussian 16, Revision A.03,

 -----------------------------------------------------------
 # opt freq B3LYP/6-31G(d) empiricaldispersion=gd3bj scf=xqc
 -----------------------------------------------------------

 ------------------------------
 CID_69780783_JID_1755_neutraal
 ------------------------------
 Symbolic Z-matrix:
 Charge =  0 Multiplicity = 1

 SCF Done:  E(RB3LYP) =  -448.505692373     A.U. after   12 cycles
 SCF Done:  E(RB3LYP) =  -448.508848432     A.U. after   10 cycles
 SCF Done:  E(RB3LYP) =  -448.509209558     A.U. after   10 cycles
 SCF Done:  E(RB3LYP) =  -448.509637890     A.U. after   10 cycles
 SCF Done:  E(RB3LYP) =  -448.509936601     A.U. after   10 cycles
 SCF Done:  E(RB3LYP) =  -448.510089393     A.U. after   10 cycles
 SCF Done:  E(RB3LYP) =  -448.510273729     A.U. after   10 cycles
 SCF Done:  E(RB3LYP) =  -448.510316103     A.U. after    8 cycles
 SCF Done:  E(RB3LYP) =  -448.510344543     A.U. after   10 cycles
 SCF Done:  E(RB3LYP) =  -448.510432085     A.U. after   10 cycles
 SCF Done:  E(RB3LYP) =  -448.510731976     A.U. after    7 cycles
 SCF Done:  E(RB3LYP) =  -448.510732381     A.U. after    7 cycles
 SCF Done:  E(RB3LYP) =  -448.510731544     A.U. after    7 cycles
 SCF Done:  E(RB3LYP) =  -448.510731276     A.U. after    7 cycles
 SCF Done:  E(RB3LYP) =  -448.510732358     A.U. after    8 cycles
 SCF Done:  E(RB3LYP) =  -448.510731386     A.U. after    8 cycles
 Optimization completed.
    -- Stationary point found.
 Normal termination of Gaussian 16 at Tue Dec  8 21:25:20 2020.

 --------------------------------------------------------------------
 #N Geom=AllCheck Guess=TCheck SCRF=Check GenChk RB3LYP/6-31G(d) Freq
 --------------------------------------------------------------------

 Structure from the checkpoint file:  "JID_1755.chk"
 ------------------------------
 CID_69780783_JID_1755_neutraal
 ------------------------------
 Charge =  0 Multiplicity = 1

 SCF Done:  E(RB3LYP) =  -448.510731386     A.U. after    1 cycles

  Exact polarizability: 118.856   0.045 106.738  -1.861   0.614 103.910
 Approx polarizability: 153.594  -0.747 146.617  -0.091   1.450 144.765

                      1                      2                      3
                      A                      A                      A
 Frequencies --     25.0902                27.5892                38.3101
 Red. masses --      3.0320                 3.0085                 3.0101
 Frc consts  --      0.0011                 0.0013                 0.0026
 IR Inten    --      0.0549                 0.1996                 0.1999

                      4                      5                      6
                      A                      A                      A
 Frequencies --     57.7839                64.6179                75.3808
 Red. masses --      3.2220                 2.6573                 3.4374
 Frc consts  --      0.0063                 0.0065                 0.0115
 IR Inten    --      0.0528                 0.0072                 0.0075

                      7                      8                      9
                      A                      A                      A
 Frequencies --     96.3749               248.3569               255.6763
 Red. masses --      1.6196                 1.9218                 1.7891
 Frc consts  --      0.0089                 0.0698                 0.0689
 IR Inten    --      0.0054                 1.1926                 0.4244

                     10                     11                     12
                      A                      A                      A
 Frequencies --    272.2082               406.6926               438.7052
 Red. masses --      1.6021                 1.6917                 3.1905
 Frc consts  --      0.0699                 0.1649                 0.3618
 IR Inten    --      0.0420                 1.3007                 8.1118

                     13                     14                     15
                      A                      A                      A
 Frequencies --    453.3129               551.5811               553.5641
 Red. masses --      2.9732                 1.4037                 1.7062
 Frc consts  --      0.3600                 0.2516                 0.3080
 IR Inten    --      0.9369                22.1579                 2.0760

                     16                     17                     18
                      A                      A                      A
 Frequencies --    620.7818               776.7431               784.3704
 Red. masses --      2.4772                 1.1710                 1.5688
 Frc consts  --      0.5625                 0.4162                 0.5687
 IR Inten    --      0.1881                 7.4228                92.5299

                     19                     20                     21
                      A                      A                      A
 Frequencies --    829.7895               830.5211               830.8676
 Red. masses --      1.6385                 1.4618                 3.3055
 Frc consts  --      0.6647                 0.5941                 1.3445
 IR Inten    --      0.2006                 0.5027                 0.5779

                     22                     23                     24
                      A                      A                      A
 Frequencies --    877.2240               882.7392               888.6609
 Red. masses --      2.0404                 1.6704                 2.3582
 Frc consts  --      0.9251                 0.7669                 1.0972
 IR Inten    --      0.4482                14.3979                 0.0561

                     25                     26                     27
                      A                      A                      A
 Frequencies --    891.9482               910.9052               917.6448
 Red. masses --      3.4721                 2.1397                 2.3724
 Frc consts  --      1.6275                 1.0461                 1.1770
 IR Inten    --      0.7865                 1.6007                 1.1778

                     28                     29                     30
                      A                      A                      A
 Frequencies --    921.1315               981.0743               992.6246
 Red. masses --      1.6449                 1.2334                 1.2770
 Frc consts  --      0.8223                 0.6994                 0.7413
 IR Inten    --      2.4867                 1.1161                 1.0289

                     31                     32                     33
                      A                      A                      A
 Frequencies --   1014.4714              1048.9809              1060.0066
 Red. masses --      1.2488                 1.7065                 1.9375
 Frc consts  --      0.7572                 1.1063                 1.2827
 IR Inten    --      0.7561                 0.0561                 3.1782

                     34                     35                     36
                      A                      A                      A
 Frequencies --   1063.6374              1072.5913              1076.4581
 Red. masses --      2.2637                 1.6743                 1.9754
 Frc consts  --      1.5089                 1.1349                 1.3487
 IR Inten    --      0.0160                 1.6850                12.3230

                     37                     38                     39
                      A                      A                      A
 Frequencies --   1146.1743              1182.1465              1182.5465
 Red. masses --      2.8045                 2.1894                 1.1773
 Frc consts  --      2.1707                 1.8027                 0.9700
 IR Inten    --     16.4751                10.3823                 3.1132

                     40                     41                     42
                      A                      A                      A
 Frequencies --   1193.1111              1196.2531              1220.9381
 Red. masses --      1.4515                 1.3127                 1.4612
 Frc consts  --      1.2174                 1.1068                 1.2834
 IR Inten    --      0.0819                 5.3882                 0.5468

                     43                     44                     45
                      A                      A                      A
 Frequencies --   1242.2721              1253.2046              1297.2154
 Red. masses --      1.3598                 1.4808                 1.1240
 Frc consts  --      1.2364                 1.3702                 1.1144
 IR Inten    --      0.4521                 0.0727                 0.9780

                     46                     47                     48
                      A                      A                      A
 Frequencies --   1303.4144              1309.6125              1322.3188
 Red. masses --      1.2508                 1.1955                 1.3424
 Frc consts  --      1.2520                 1.2080                 1.3829
 IR Inten    --      2.3683                 2.2321                 0.0487

                     49                     50                     51
                      A                      A                      A
 Frequencies --   1328.4928              1341.3215              1361.2100
 Red. masses --      1.2267                 1.1925                 1.2336
 Frc consts  --      1.2756                 1.2640                 1.3467
 IR Inten    --      2.1099                 0.4665                 0.5555

                     52                     53                     54
                      A                      A                      A
 Frequencies --   1365.1750              1369.4984              1371.1086
 Red. masses --      1.2980                 1.4950                 1.4914
 Frc consts  --      1.4253                 1.6520                 1.6519
 IR Inten    --     15.5884                 1.0657                 0.4340

                     55                     56                     57
                      A                      A                      A
 Frequencies --   1381.3979              1399.6954              1401.2937
 Red. masses --      1.3710                 1.4358                 1.4775
 Frc consts  --      1.5414                 1.6573                 1.7094
 IR Inten    --     17.2245                 1.0895                 0.5948

                     58                     59                     60
                      A                      A                      A
 Frequencies --   1447.2195              1498.3194              1507.3341
 Red. masses --      1.4789                 1.1777                 1.1630
 Frc consts  --      1.8250                 1.5578                 1.5568
 IR Inten    --      4.8603                 3.3353                 1.1663

                     61                     62                     63
                      A                      A                      A
 Frequencies --   1511.4653              1514.9197              1519.9849
 Red. masses --      1.0871                 1.0776                 1.1020
 Frc consts  --      1.4632                 1.4571                 1.5001
 IR Inten    --      8.8532                 0.2110                 4.0185

                     64                     65                     66
                      A                      A                      A
 Frequencies --   1521.7436              1526.3435              1528.2791
 Red. masses --      1.0889                 1.1153                 1.1080
 Frc consts  --      1.4856                 1.5309                 1.5248
 IR Inten    --      2.2514                 4.7498                 1.3694

                     67                     68                     69
                      A                      A                      A
 Frequencies --   1528.5378              1539.9149              1553.1495
 Red. masses --      1.0982                 1.0997                 1.1062
 Frc consts  --      1.5117                 1.5365                 1.5722
 IR Inten    --      0.6704                 1.9411                 3.9154

                     70                     71                     72
                      A                      A                      A
 Frequencies --   2905.7186              2924.0544              3037.1886
 Red. masses --      1.0738                 1.0723                 1.0699
 Frc consts  --      5.3416                 5.4016                 5.8146
 IR Inten    --     60.2581               136.2496                14.0390

                     73                     74                     75
                      A                      A                      A
 Frequencies --   3040.4174              3043.2467              3045.5927
 Red. masses --      1.0615                 1.0642                 1.0598
 Frc consts  --      5.7816                 5.8068                 5.7919
 IR Inten    --     61.0775                20.0453                22.9965

                     76                     77                     78
                      A                      A                      A
 Frequencies --   3046.7523              3051.9937              3053.9721
 Red. masses --      1.0646                 1.0634                 1.0653
 Frc consts  --      5.8223                 5.8358                 5.8541
 IR Inten    --     10.7043                27.7647                23.8377

                     79                     80                     81
                      A                      A                      A
 Frequencies --   3069.5290              3076.4452              3078.0772
 Red. masses --      1.0648                 1.0975                 1.0872
 Frc consts  --      5.9109                 6.1200                 6.0690
 IR Inten    --     51.8806                56.9749                84.3651

                     82                     83                     84
                      A                      A                      A
 Frequencies --   3080.3696              3087.6128              3089.9828
 Red. masses --      1.0884                 1.1052                 1.0964
 Frc consts  --      6.0849                 6.2079                 6.1678
 IR Inten    --     16.1364                13.5072                37.1087

                     85                     86                     87
                      A                      A                      A
 Frequencies --   3095.0550              3096.2145              3100.2820
 Red. masses --      1.1010                 1.0955                 1.1037
 Frc consts  --      6.2141                 6.1878                 6.2506
 IR Inten    --    130.7721                22.2912                27.0132

                     88                     89                     90
                      A                      A                      A
 Frequencies --   3103.2474              3117.8086              3499.4858
 Red. masses --      1.1016                 1.1053                 1.0746
 Frc consts  --      6.2502                 6.3304                 7.7536
 IR Inten    --     17.1693               116.7861                 2.1288

 - Thermochemistry -
 -------------------
 Temperature   298.150 Kelvin.  Pressure   1.00000 Atm.
 Atom     1 has atomic number  6 and mass  12.00000

 Molecular mass:   155.16740 amu.
 Principal axes and moments of inertia in atomic units:
                           1         2         3
     Eigenvalues --  1074.086093625.445913689.19389
           X            1.00000  -0.00279  -0.00067
           Y            0.00280   0.99985   0.01722
           Z            0.00062  -0.01722   0.99985
 This molecule is an asymmetric top.
 Rotational symmetry number  1.
 Warning -- assumption of classical behavior for rotation
           may cause significant error
 Rotational temperatures (Kelvin)      0.08064     0.02389     0.02348
 Rotational constants (GHZ):           1.68026     0.49780     0.48920
 Zero-point vibrational energy     794602.0 (Joules/Mol)
                                  189.91443 (Kcal/Mol)
 Warning -- explicit consideration of  16 degrees of freedom as
           vibrations may cause significant error
 Vibrational temperatures:     36.10    39.69    55.12    83.14    92.97
          (Kelvin)            108.46   138.66   357.33   367.86   391.65
                              585.14   631.20   652.22   793.60   796.46
                              893.17  1117.56  1128.53  1193.88  1194.93
                             1195.43  1262.13  1270.06  1278.58  1283.31
                             1310.59  1320.29  1325.30  1411.55  1428.17
                             1459.60  1509.25  1525.11  1530.34  1543.22
                             1548.78  1649.09  1700.85  1701.42  1716.62
                             1721.14  1756.66  1787.35  1803.08  1866.40
                             1875.32  1884.24  1902.52  1911.40  1929.86
                             1958.48  1964.18  1970.40  1972.72  1987.52
                             2013.85  2016.15  2082.23  2155.75  2168.72
                             2174.66  2179.63  2186.92  2189.45  2196.07
                             2198.85  2199.22  2215.59  2234.64  4180.68
                             4207.06  4369.84  4374.48  4378.55  4381.93
                             4383.60  4391.14  4393.98  4416.37  4426.32
                             4428.67  4431.96  4442.39  4445.80  4453.09
                             4454.76  4460.61  4464.88  4485.83  5034.98

 Zero-point correction=                           0.302648 (Hartree/Particle)
 Thermal correction to Energy=                    0.315369
 Thermal correction to Enthalpy=                  0.316313
 Thermal correction to Gibbs Free Energy=         0.260049
 Sum of electronic and zero-point Energies=           -448.208083
 Sum of electronic and thermal Energies=              -448.195363
 Sum of electronic and thermal Enthalpies=            -448.194418
 Sum of electronic and thermal Free Energies=         -448.250683

                     E (Thermal)             CV                S
                      KCal/Mol        Cal/Mol-Kelvin    Cal/Mol-Kelvin
 Total                  197.897             45.993            118.418
 Electronic               0.000              0.000              0.000
 Translational            0.889              2.981             41.028
 Rotational               0.889              2.981             31.041
 Vibrational            196.120             40.032             46.349
 Vibration     1          0.593              1.985              6.184
 Vibration     2          0.593              1.984              5.996
 Vibration     3          0.594              1.982              5.345
 Vibration     4          0.596              1.974              4.531
 Vibration     5          0.597              1.971              4.311
 Vibration     6          0.599              1.965              4.008
 Vibration     7          0.603              1.952              3.526
 Vibration     8          0.662              1.765              1.742
 Vibration     9          0.666              1.753              1.691
 Vibration    10          0.675              1.725              1.582
 Vibration    11          0.771              1.456              0.938
 Vibration    12          0.799              1.386              0.831
 Vibration    13          0.812              1.354              0.786
 Vibration    14          0.907              1.136              0.541
 Vibration    15          0.909              1.132              0.537
 Vibration    16          0.981              0.988              0.415

                           ! Non-Optimized Parameters !
 Normal termination of Gaussian 16 at Tue Dec  8 21:33:57 2020.

 ----------------------------------------------------------------------
 # B3LYP/6-311++G(d,p) empiricaldispersion=gd3bj scf=xqc pop=npa geom=c
 heck
 ----------------------------------------------------------------------

 --------------------------------------
 CID_69780783_JID_1755_Energie_neutraal
 --------------------------------------
 Structure from the checkpoint file:  "JID_1755.chk"
 Charge =  0 Multiplicity = 1

 SCF Done:  E(RB3LYP) =  -448.638650056     A.U. after   12 cycles
 Normal termination of Gaussian 16 at Tue Dec  8 21:37:34 2020.

 ----------------------------------------------------------------------
 # B3LYP/6-311++G(d,p) empiricaldispersion=gd3bj scf=xqc pop=npa geom=c
 heck
 ----------------------------------------------------------------------

 ------------------------------------
 CID_69780783_JID_1755_Energie_kation
 ------------------------------------
 Structure from the checkpoint file:  "JID_1755.chk"
 Charge =  1 Multiplicity = 2

 SCF Done:  E(UB3LYP) =  -448.325794361     A.U. after   17 cycles
 Normal termination of Gaussian 16 at Tue Dec  8 21:43:42 2020.
 Gaussian 16:  ES64L-G16RevA.03 25-Dec-2016

 ----------------------------------------------------------------------
 # B3LYP/6-311++G(d,p) empiricaldispersion=gd3bj scf=xqc pop=npa geom=c
 heck
 ----------------------------------------------------------------------

 -----------------------------------
 CID_69780783_JID_1755_Energie_anion
 -----------------------------------
 Structure from the checkpoint file:  "JID_1755.chk"
 Charge = -1 Multiplicity = 2

                         Standard orientation:
 ---------------------------------------------------------------------
 Center     Atomic      Atomic             Coordinates (Angstroms)
 Number     Number       Type             X           Y           Z
 ---------------------------------------------------------------------
      1          6           0       -2.064820    0.623126   -1.198324
      2          6           0       -3.063199   -0.539227   -1.098821
      3          6           0       -2.791387   -1.114248    0.302516
      4          6           0       -2.449898    0.117487    1.184007
      5          6           0       -2.133282    1.277295    0.195680
      6          6           0        1.213220   -0.933623    0.910853
      7          6           0        2.332778   -1.507309    0.031904
      8          6           0        2.634219   -0.560454   -1.132853
      9          7           0        2.992066    0.758761   -0.609916
     10          6           0        1.886860    1.366994    0.132423
     11          6           0        1.545648    0.499768    1.347317
     12          1           0       -2.290176    1.323645   -2.009785
     13          1           0       -1.056907    0.226428   -1.380393
     14          1           0       -4.089290   -0.151049   -1.155493
     15          1           0       -2.948520   -1.281150   -1.896644
     16          1           0       -1.929452   -1.791191    0.255438
     17          1           0       -3.632178   -1.695134    0.695645
     18          1           0       -1.601405   -0.094777    1.842223
     19          1           0       -3.291300    0.382768    1.832784
     20          1           0       -1.211369    1.808521    0.452647
     21          1           0       -2.942099    2.017368    0.214016
     22          1           0        0.277298   -0.925928    0.335991
     23          1           0        1.039725   -1.573164    1.785018
     24          1           0        3.245931   -1.628637    0.628077
     25          1           0        2.053867   -2.495781   -0.353391
     26          1           0        3.473720   -0.938747   -1.727159
     27          1           0        1.747870   -0.524124   -1.799872
     28          1           0        3.264077    1.368506   -1.377679
     29          1           0        0.976711    1.483243   -0.490103
     30          1           0        2.192517    2.369623    0.452603
     31          1           0        0.704538    0.941374    1.895567
     32          1           0        2.411145    0.488024    2.021714
 ---------------------------------------------------------------------

 SCF Done:  E(UB3LYP) =  -448.622748640     A.U. after   25 cycles

 The electronic state is 2-A.
 Alpha  occ. eigenvalues --  -14.19201 -10.08621 -10.08494 -10.06257 -10.06230
 Alpha  occ. eigenvalues --  -10.06100 -10.05984 -10.05930 -10.05927 -10.05896
 Alpha  occ. eigenvalues --  -10.05804  -0.80691  -0.72817  -0.68330  -0.64835
 Alpha  occ. eigenvalues --   -0.60353  -0.60321  -0.53289  -0.51685  -0.46672
 Alpha  occ. eigenvalues --   -0.45924  -0.45006  -0.40967  -0.37847  -0.37510
 Alpha  occ. eigenvalues --   -0.35104  -0.34907  -0.32318  -0.31326  -0.30984
 Alpha  occ. eigenvalues --   -0.30596  -0.29789  -0.28229  -0.24603  -0.23725
 Alpha  occ. eigenvalues --   -0.23662  -0.23388  -0.23321  -0.22998  -0.21739
 Alpha  occ. eigenvalues --   -0.21452  -0.21255  -0.21085  -0.12552   0.04525
 Alpha virt. eigenvalues --    0.06559   0.07247   0.07573   0.08586   0.08773
 Alpha virt. eigenvalues --    0.09410   0.09811   0.10008   0.11153   0.11573
 Alpha virt. eigenvalues --    0.11713   0.12106   0.12712   0.13212   0.13863

  Beta  occ. eigenvalues --  -14.19179 -10.08605 -10.08471 -10.06247 -10.06221
  Beta  occ. eigenvalues --  -10.06089 -10.05970 -10.05916 -10.05911 -10.05876
  Beta  occ. eigenvalues --  -10.05788  -0.80656  -0.72789  -0.68301  -0.64800
  Beta  occ. eigenvalues --   -0.60312  -0.60280  -0.53240  -0.51642  -0.46609
  Beta  occ. eigenvalues --   -0.45875  -0.44955  -0.40892  -0.37824  -0.37448
  Beta  occ. eigenvalues --   -0.35078  -0.34874  -0.32294  -0.31296  -0.30958
  Beta  occ. eigenvalues --   -0.30557  -0.29762  -0.28191  -0.24573  -0.23690
  Beta  occ. eigenvalues --   -0.23628  -0.23359  -0.23293  -0.22966  -0.21707
  Beta  occ. eigenvalues --   -0.21423  -0.21224  -0.21048  -0.12503
  Beta virt. eigenvalues --    0.06640   0.07439   0.07933   0.08089   0.09174
  Beta virt. eigenvalues --    0.09283   0.09651   0.10275   0.10396   0.11626
  Beta virt. eigenvalues --    0.11919   0.12076   0.12274   0.13040   0.13634

 Mulliken charges and spin densities:
               1          2
     1  C   -0.194483   0.094333
     2  C    0.362389  -0.926053
     3  C   -0.211296   0.008371
     4  C    0.369409  -0.690255
     5  C    0.032954  -0.245535
     6  C   -0.480863   0.417167
     7  C   -0.548483   0.086756
     8  C    0.963703  -1.260147
     9  N   -0.283066   0.146502
    10  C    0.025788  -0.447050
    11  C    0.213107  -0.478068
    12  H   -0.327228   0.485606
    13  H    0.408917  -0.307639
    14  H   -0.028919   0.159221
    15  H   -0.274189   0.426399
    16  H   -0.372476   0.512314
    17  H   -0.305071   0.459323
    18  H    0.002857   0.122526
    19  H   -0.226150   0.388235
    20  H    0.087236   0.030116
    21  H   -0.158644   0.318029
    22  H    1.662994  -1.556400
    23  H   -0.266726   0.419661
    24  H    0.016026   0.117242
    25  H   -0.231653   0.375603
    26  H   -0.374356   0.547682
    27  H   -0.439646   0.555230
    28  H   -0.130831   0.376273
    29  H   -0.285681   0.430780
    30  H   -0.178184   0.340656
    31  H    0.048876   0.080488
    32  H    0.123691   0.012632
 Sum of Mulliken charges =  -1.00000   1.00000

 Dipole moment (field-independent basis, Debye):
    X=              0.5425    Y=              0.2299    Z=              2.6334  Tot=              2.6985
 Quadrupole moment (field-independent basis, Debye-Ang):
   XX=           -146.2841   YY=           -113.4627   ZZ=           -112.2264
   XY=             -2.6844   XZ=              6.5164   YZ=              0.3878

 Summary of Natural Population Analysis:

                                       Natural Population
                Natural  -----------------------------------------------
    Atom  No    Charge         Core      Valence    Rydberg      Total
 -----------------------------------------------------------------------
      C    1   -0.19351      0.99964     2.18580    0.00807     3.19351
      C    2   -0.19015      0.99964     2.18324    0.00727     3.19015
      C    3   -0.19272      0.99964     2.18565    0.00742     3.19272
      C    4   -0.19547      0.99965     2.18825    0.00758     3.19547
      C    5   -0.19423      0.99964     2.18695    0.00763     3.19423
      C    6   -0.19431      0.99962     2.18682    0.00786     3.19431
      C    7   -0.19300      0.99963     2.18469    0.00868     3.19300
      C    8   -0.08760      0.99962     2.07632    0.01166     3.08760
      N    9   -0.34242      0.99974     2.83011    0.01256     3.84242
      C   10   -0.08902      0.99962     2.07820    0.01120     3.08902
      C   11   -0.19289      0.99962     2.18597    0.00730     3.19289
      H   12    0.09905      0.00000     0.39983    0.00112     0.40095
      H   13    0.09394      0.00000     0.40365    0.00241     0.40606
      H   14    0.09195      0.00000     0.40661    0.00144     0.40805
      H   15    0.09951      0.00000     0.39944    0.00105     0.40049
      H   16    0.09479      0.00000     0.40352    0.00169     0.40521
      H   17    0.09833      0.00000     0.40050    0.00116     0.40167
      H   18    0.09790      0.00000     0.40091    0.00120     0.40210
      H   19    0.09608      0.00000     0.40274    0.00118     0.40392
      H   20    0.09912      0.00000     0.39962    0.00126     0.40088
      H   21    0.09410      0.00000     0.40459    0.00131     0.40590
      H   22    0.09539      0.00000     0.40185    0.00276     0.40461
      H   23    0.09696      0.00000     0.40195    0.00109     0.40304
      H   24    0.09412      0.00000     0.40446    0.00142     0.40588
      H   25    0.09906      0.00000     0.39994    0.00100     0.40094
      H   26    0.09496      0.00000     0.40354    0.00150     0.40504
      H   27    0.07743      0.00000     0.42022    0.00235     0.42257
      H   28    0.17649      0.00000     0.32007    0.00344     0.32351
      H   29    0.07896      0.00000     0.41886    0.00218     0.42104
      H   30    0.09383      0.00000     0.40504    0.00114     0.40617
      H   31    0.09890      0.00000     0.40007    0.00103     0.40110
      H   32    0.09446      0.00000     0.40413    0.00141     0.40554
 =======================================================================
   * Total *   -0.00000     10.99607    32.87356    0.13037    44.00000

 Normal termination of Gaussian 16 at Tue Dec  8 21:51:43 2020.
