 Gaussian 16, Revision A.03,

 -----------------------------------------------------------
 # opt freq B3LYP/6-31G(d) empiricaldispersion=gd3bj scf=xqc
 -----------------------------------------------------------

 ------------------------------
 CID_141238708_JID_795_neutraal
 ------------------------------
 Symbolic Z-matrix:
 Charge =  0 Multiplicity = 1

 SCF Done:  E(RB3LYP) =  -582.530004700     A.U. after   15 cycles
 SCF Done:  E(RB3LYP) =  -582.535833664     A.U. after   13 cycles
 SCF Done:  E(RB3LYP) =  -582.539233154     A.U. after   12 cycles
 SCF Done:  E(RB3LYP) =  -582.539289721     A.U. after   11 cycles
 SCF Done:  E(RB3LYP) =  -582.539365400     A.U. after   11 cycles
 SCF Done:  E(RB3LYP) =  -582.539407120     A.U. after    9 cycles
 SCF Done:  E(RB3LYP) =  -582.539407869     A.U. after    7 cycles
 Optimization completed.
    -- Stationary point found.
 Normal termination of Gaussian 16 at Tue Dec  8 12:43:48 2020.

 --------------------------------------------------------------------
 #N Geom=AllCheck Guess=TCheck SCRF=Check GenChk RB3LYP/6-31G(d) Freq
 --------------------------------------------------------------------

 Structure from the checkpoint file:  "JID_795.chk"
 ------------------------------
 CID_141238708_JID_795_neutraal
 ------------------------------
 Charge =  0 Multiplicity = 1

 SCF Done:  E(RB3LYP) =  -582.539407869     A.U. after    1 cycles

  Exact polarizability:  89.167   2.508  73.526   0.000  -0.000  27.310
 Approx polarizability: 120.212   3.800 123.769   0.000  -0.000  40.232

                      1                      2                      3
                      A                      A                      A
 Frequencies --     47.3903                51.0984                90.1506
 Red. masses --      6.2287                 9.1927                 9.6956
 Frc consts  --      0.0082                 0.0141                 0.0464
 IR Inten    --      0.3939                 0.1784                 0.1923

                      4                      5                      6
                      A                      A                      A
 Frequencies --    128.1239               159.2398               287.2533
 Red. masses --      6.4454                 9.2537                 7.6378
 Frc consts  --      0.0623                 0.1383                 0.3713
 IR Inten    --      1.0484                 0.5624                 4.2868

                      7                      8                      9
                      A                      A                      A
 Frequencies --    343.4786               424.1877               491.9099
 Red. masses --      9.2122                 6.5623                 8.7584
 Frc consts  --      0.6403                 0.6957                 1.2487
 IR Inten    --      0.3924                 5.0899                15.5715

                     10                     11                     12
                      A                      A                      A
 Frequencies --    517.3432               557.9915               586.7828
 Red. masses --      1.1291                 1.1413                 5.1662
 Frc consts  --      0.1780                 0.2094                 1.0480
 IR Inten    --     91.8540                70.6451                96.7047

                     13                     14                     15
                      A                      A                      A
 Frequencies --    640.1418               653.6310               667.1618
 Red. masses --      1.3206                 3.9129                 1.6880
 Frc consts  --      0.3188                 0.9849                 0.4427
 IR Inten    --    134.3066                61.3334                43.6586

                     16                     17                     18
                      A                      A                      A
 Frequencies --    720.5843               731.1566               749.5016
 Red. masses --      1.8240                 4.2311                 7.5119
 Frc consts  --      0.5580                 1.3327                 2.4863
 IR Inten    --     39.8297                 4.9159                51.1759

                     19                     20                     21
                      A                      A                      A
 Frequencies --    765.7499               853.3194               897.1419
 Red. masses --      6.1487                 1.1751                 5.2959
 Frc consts  --      2.1243                 0.5041                 2.5114
 IR Inten    --    113.4135                55.9230                 5.5276

                     22                     23                     24
                      A                      A                      A
 Frequencies --    966.6373              1076.1020              1172.4659
 Red. masses --      6.2985                 3.2590                 1.9091
 Frc consts  --      3.4675                 2.2236                 1.5463
 IR Inten    --     86.8500                18.9395                12.9641

                     25                     26                     27
                      A                      A                      A
 Frequencies --   1225.0049              1229.5763              1351.5647
 Red. masses --      1.6103                 1.6437                 1.8394
 Frc consts  --      1.4238                 1.4642                 1.9797
 IR Inten    --    340.8352               296.4612                57.8164

                     28                     29                     30
                      A                      A                      A
 Frequencies --   1437.6055              1454.9371              1475.2592
 Red. masses --      2.5450                 2.1162                 3.6815
 Frc consts  --      3.0990                 2.6394                 4.7208
 IR Inten    --    138.8011               161.6870               210.2868

                     31                     32                     33
                      A                      A                      A
 Frequencies --   1581.4437              1761.2898              1854.7193
 Red. masses --      1.7920                 6.0505                 7.5488
 Frc consts  --      2.6406                11.0587                15.2997
 IR Inten    --    245.1140               362.5023               922.9122

                     34                     35                     36
                      A                      A                      A
 Frequencies --   1869.6266              3572.9763              3574.7541
 Red. masses --      7.9419                 1.0743                 1.0772
 Frc consts  --     16.3563                 8.0802                 8.1105
 IR Inten    --    290.2515               105.4172               169.0894

                     37                     38                     39
                      A                      A                      A
 Frequencies --   3619.0748              3719.8518              3732.5965
 Red. masses --      1.0764                 1.0645                 1.0649
 Frc consts  --      8.3068                 8.6789                 8.7411
 IR Inten    --     76.1737                90.8726               108.6327

 - Thermochemistry -
 -------------------
 Temperature   298.150 Kelvin.  Pressure   1.00000 Atm.
 Atom     1 has atomic number  6 and mass  12.00000

 Molecular mass:   147.02801 amu.
 Principal axes and moments of inertia in atomic units:
                           1         2         3
     Eigenvalues --   659.653652308.901402968.55504
           X            0.99992   0.01268   0.00000
           Y           -0.01268   0.99992   0.00000
           Z           -0.00000  -0.00000   1.00000
 This molecule is an asymmetric top.
 Rotational symmetry number  1.
 Warning -- assumption of classical behavior for rotation
           may cause significant error
 Rotational temperatures (Kelvin)      0.13130     0.03751     0.02918
 Rotational constants (GHZ):           2.73589     0.78164     0.60795
 Zero-point vibrational energy     281354.6 (Joules/Mol)
                                   67.24538 (Kcal/Mol)
 Warning -- explicit consideration of  12 degrees of freedom as
           vibrations may cause significant error
 Vibrational temperatures:     68.18    73.52   129.71   184.34   229.11
          (Kelvin)            413.29   494.19   610.31   707.75   744.34
                              802.83   844.25   921.02   940.43   959.90
                             1036.76  1051.97  1078.37  1101.74  1227.74
                             1290.79  1390.78  1548.27  1686.92  1762.51
                             1769.09  1944.60  2068.39  2093.33  2122.57
                             2275.34  2534.10  2668.53  2689.98  5140.72
                             5143.27  5207.04  5352.04  5370.37

 Zero-point correction=                           0.107162 (Hartree/Particle)
 Thermal correction to Energy=                    0.116674
 Thermal correction to Enthalpy=                  0.117618
 Thermal correction to Gibbs Free Energy=         0.070896
 Sum of electronic and zero-point Energies=           -582.432246
 Sum of electronic and thermal Energies=              -582.422734
 Sum of electronic and thermal Enthalpies=            -582.421789
 Sum of electronic and thermal Free Energies=         -582.468512

                     E (Thermal)             CV                S
                      KCal/Mol        Cal/Mol-Kelvin    Cal/Mol-Kelvin
 Total                   73.214             33.724             98.336
 Electronic               0.000              0.000              0.000
 Translational            0.889              2.981             40.867
 Rotational               0.889              2.981             29.893
 Vibrational             71.437             27.763             27.576
 Vibration     1          0.595              1.979              4.923
 Vibration     2          0.595              1.977              4.774
 Vibration     3          0.602              1.956              3.657
 Vibration     4          0.611              1.925              2.974
 Vibration     5          0.621              1.892              2.559
 Vibration     6          0.684              1.697              1.490
 Vibration     7          0.722              1.589              1.196
 Vibration     8          0.786              1.418              0.878
 Vibration     9          0.848              1.268              0.679
 Vibration    10          0.872              1.212              0.616
 Vibration    11          0.914              1.122              0.528
 Vibration    12          0.944              1.060              0.473

 Optimization completed.
    -- Stationary point found.
 Normal termination of Gaussian 16 at Tue Dec  8 12:51:45 2020.

 ----------------------------------------------------------------------
 # B3LYP/6-311++G(d,p) empiricaldispersion=gd3bj scf=xqc pop=npa geom=c
 heck
 ----------------------------------------------------------------------

 --------------------------------------
 CID_141238708_JID_795_Energie_neutraal
 --------------------------------------
 Structure from the checkpoint file:  "JID_795.chk"
 Charge =  0 Multiplicity = 1

 SCF Done:  E(RB3LYP) =  -582.743298006     A.U. after   13 cycles
 Normal termination of Gaussian 16 at Tue Dec  8 13:04:45 2020.

 ----------------------------------------------------------------------
 # B3LYP/6-311++G(d,p) empiricaldispersion=gd3bj scf=xqc pop=npa geom=c
 heck
 ----------------------------------------------------------------------

 ------------------------------------
 CID_141238708_JID_795_Energie_kation
 ------------------------------------
 Structure from the checkpoint file:  "JID_795.chk"
 Charge =  1 Multiplicity = 2

 SCF Done:  E(UB3LYP) =  -582.388547572     A.U. after   21 cycles
 Normal termination of Gaussian 16 at Tue Dec  8 13:08:44 2020.
 Gaussian 16:  ES64L-G16RevA.03 25-Dec-2016

 ----------------------------------------------------------------------
 # B3LYP/6-311++G(d,p) empiricaldispersion=gd3bj scf=xqc pop=npa geom=c
 heck
 ----------------------------------------------------------------------

 -----------------------------------
 CID_141238708_JID_795_Energie_anion
 -----------------------------------
 Structure from the checkpoint file:  "JID_795.chk"
 Charge = -1 Multiplicity = 2

                         Standard orientation:
 ---------------------------------------------------------------------
 Center     Atomic      Atomic             Coordinates (Angstroms)
 Number     Number       Type             X           Y           Z
 ---------------------------------------------------------------------
      1          6           0        0.032084    0.935766   -0.000002
      2          7           0        0.487164    2.122709   -0.000003
      3          7           0       -1.377587    0.826367    0.000004
      4          6           0       -2.283901   -0.202942    0.000007
      5          8           0       -3.484690   -0.042519    0.000001
      6          8           0       -1.704781   -1.439191   -0.000004
      7          7           0        0.709151   -0.290075   -0.000005
      8          6           0        2.062016   -0.547495   -0.000011
      9          8           0        2.518790   -1.670398    0.000006
     10          8           0        2.828414    0.571531    0.000005
     11          1           0        1.503294    2.136282   -0.000008
     12          1           0       -1.811525    1.741227    0.000004
     13          1           0       -2.442130   -2.074370   -0.000009
     14          1           0        0.148126   -1.134535   -0.000001
     15          1           0        3.748079    0.251039    0.000016
 ---------------------------------------------------------------------

 SCF Done:  E(UB3LYP) =  -582.736892432     A.U. after   23 cycles

 The electronic state is 2-A.
 Alpha  occ. eigenvalues --  -19.07967 -19.07579 -19.01640 -19.01166 -14.27091
 Alpha  occ. eigenvalues --  -14.26616 -14.18813 -10.24636 -10.24100 -10.20660
 Alpha  occ. eigenvalues --   -1.02903  -1.02439  -0.93445  -0.92986  -0.90754
 Alpha  occ. eigenvalues --   -0.83181  -0.78309  -0.60652  -0.57491  -0.52574
 Alpha  occ. eigenvalues --   -0.48960  -0.44118  -0.40670  -0.40534  -0.39170
 Alpha  occ. eigenvalues --   -0.38995  -0.37584  -0.37269  -0.32973  -0.31722
 Alpha  occ. eigenvalues --   -0.30795  -0.24556  -0.23568  -0.21073  -0.19968
 Alpha  occ. eigenvalues --   -0.19897  -0.19017  -0.16331   0.04417
 Alpha virt. eigenvalues --    0.06360   0.07698   0.09181   0.11611   0.11868
 Alpha virt. eigenvalues --    0.12599   0.12679   0.14359   0.15966   0.16148
 Alpha virt. eigenvalues --    0.16405   0.17490   0.18070   0.18670   0.19547

  Beta  occ. eigenvalues --  -19.07866 -19.07490 -19.01621 -19.01150 -14.27062
  Beta  occ. eigenvalues --  -14.26579 -14.18797 -10.24631 -10.24094 -10.20661
  Beta  occ. eigenvalues --   -1.02792  -1.02329  -0.93344  -0.92895  -0.90719
  Beta  occ. eigenvalues --   -0.83119  -0.78270  -0.60586  -0.57372  -0.52445
  Beta  occ. eigenvalues --   -0.48858  -0.44039  -0.40608  -0.40489  -0.39113
  Beta  occ. eigenvalues --   -0.38944  -0.37536  -0.37205  -0.32904  -0.31652
  Beta  occ. eigenvalues --   -0.30754  -0.24476  -0.23505  -0.21014  -0.19917
  Beta  occ. eigenvalues --   -0.19872  -0.18988  -0.16309
  Beta virt. eigenvalues --    0.07594   0.07724   0.08743   0.09893   0.12097
  Beta virt. eigenvalues --    0.12460   0.12643   0.12715   0.14551   0.15941
  Beta virt. eigenvalues --    0.16092   0.17025   0.17521   0.18254   0.19391

 Mulliken charges and spin densities:
               1          2
     1  C    0.060737   0.087788
     2  N   -0.309014  -0.071150
     3  N   -0.216794  -0.171404
     4  C    0.544907  -0.285730
     5  O   -0.314671  -0.001741
     6  O   -0.246740  -0.054705
     7  N   -0.192740  -0.311422
     8  C    0.591031  -0.294577
     9  O   -0.286528  -0.031662
    10  O   -0.264418  -0.000053
    11  H    0.090190   0.183095
    12  H    0.241825   0.116923
    13  H   -0.676470   1.049780
    14  H    0.633619  -0.218854
    15  H   -0.654934   1.003712
 Sum of Mulliken charges =  -1.00000   1.00000

 Dipole moment (field-independent basis, Debye):
    X=             -1.8177    Y=              2.8112    Z=             -0.0000  Tot=              3.3477
 Quadrupole moment (field-independent basis, Debye-Ang):
   XX=           -130.0770   YY=            -96.0919   ZZ=            -70.7913
   XY=            -10.5892   XZ=             -0.0003   YZ=             -0.0001

 Summary of Natural Population Analysis:

                                       Natural Population
                Natural  -----------------------------------------------
    Atom  No    Charge         Core      Valence    Rydberg      Total
 -----------------------------------------------------------------------
      C    1    0.30541      0.99965     1.67796    0.01698     2.69459
      N    2   -0.36316      0.99970     2.85547    0.00800     3.86316
      N    3   -0.32681      0.99963     2.81716    0.01002     3.82681
      C    4    0.46343      0.99973     1.51235    0.02449     2.53657
      O    5   -0.31825      0.99987     3.31188    0.00650     4.31825
      O    6   -0.36074      0.99987     3.35340    0.00747     4.36074
      N    7   -0.33985      0.99962     2.83089    0.00934     3.83985
      C    8    0.46653      0.99973     1.50952    0.02422     2.53347
      O    9   -0.31537      0.99987     3.30919    0.00631     4.31537
      O   10   -0.35300      0.99987     3.34565    0.00748     4.35300
      H   11    0.18684      0.00000     0.31042    0.00274     0.31316
      H   12    0.21119      0.00000     0.28653    0.00228     0.28881
      H   13    0.26213      0.00000     0.19081    0.04706     0.23787
      H   14    0.22457      0.00000     0.27210    0.00333     0.27543
      H   15    0.25707      0.00000     0.19894    0.04399     0.24293
 =======================================================================
   * Total *   -0.00000      9.99754    27.78226    0.22020    38.00000

 Normal termination of Gaussian 16 at Tue Dec  8 13:12:26 2020.
