 Gaussian 16, Revision A.03,

 -----------------------------------------------------------
 # opt freq B3LYP/6-31G(d) empiricaldispersion=gd3bj scf=xqc
 -----------------------------------------------------------

 ------------------------------
 CID_63910393_JID_8119_neutraal
 ------------------------------
 Symbolic Z-matrix:
 Charge =  0 Multiplicity = 1

 SCF Done:  E(RB3LYP) =  -1129.73271100     A.U. after   15 cycles
 SCF Done:  E(RB3LYP) =  -1129.73961675     A.U. after   13 cycles
 SCF Done:  E(RB3LYP) =  -1129.73951000     A.U. after   14 cycles
 SCF Done:  E(RB3LYP) =  -1129.74117044     A.U. after   12 cycles
 SCF Done:  E(RB3LYP) =  -1129.74172116     A.U. after   12 cycles
 SCF Done:  E(RB3LYP) =  -1129.74192099     A.U. after   12 cycles
 SCF Done:  E(RB3LYP) =  -1129.74186707     A.U. after   12 cycles
 SCF Done:  E(RB3LYP) =  -1129.74205580     A.U. after   12 cycles
 SCF Done:  E(RB3LYP) =  -1129.74208138     A.U. after   10 cycles
 SCF Done:  E(RB3LYP) =  -1129.74208523     A.U. after    9 cycles
 SCF Done:  E(RB3LYP) =  -1129.74208771     A.U. after    9 cycles
 SCF Done:  E(RB3LYP) =  -1129.74208850     A.U. after    9 cycles
 SCF Done:  E(RB3LYP) =  -1129.74208865     A.U. after    7 cycles
 SCF Done:  E(RB3LYP) =  -1129.74208872     A.U. after    7 cycles
 SCF Done:  E(RB3LYP) =  -1129.74208874     A.U. after    6 cycles
 Optimization completed.
    -- Stationary point found.
 Normal termination of Gaussian 16 at Fri Dec 11 18:55:54 2020.

 --------------------------------------------------------------------
 #N Geom=AllCheck Guess=TCheck SCRF=Check GenChk RB3LYP/6-31G(d) Freq
 --------------------------------------------------------------------

 Structure from the checkpoint file:  "JID_8119.chk"
 ------------------------------
 CID_63910393_JID_8119_neutraal
 ------------------------------
 Charge =  0 Multiplicity = 1

 SCF Done:  E(RB3LYP) =  -1129.74208874     A.U. after    1 cycles

  Exact polarizability: 176.682   4.445 172.393 -17.549   0.197 152.715
 Approx polarizability: 232.404   8.564 280.160 -38.919   6.415 254.784

                      1                      2                      3
                      A                      A                      A
 Frequencies --     21.9384                30.4301                59.3071
 Red. masses --      4.9970                 4.9957                 4.7667
 Frc consts  --      0.0014                 0.0027                 0.0099
 IR Inten    --      0.1606                 1.4317                 0.3864

                      4                      5                      6
                      A                      A                      A
 Frequencies --     70.3982                79.9200               113.3420
 Red. masses --      4.3427                 4.5264                 4.4029
 Frc consts  --      0.0127                 0.0170                 0.0333
 IR Inten    --      0.3553                 1.5602                 0.3728

                      7                      8                      9
                      A                      A                      A
 Frequencies --    141.6112               149.6099               168.9866
 Red. masses --      2.9273                 3.9099                 2.6782
 Frc consts  --      0.0346                 0.0516                 0.0451
 IR Inten    --      0.6197                 1.7651                 0.7461

                     10                     11                     12
                      A                      A                      A
 Frequencies --    191.7215               209.2396               257.1514
 Red. masses --      2.3021                 1.2547                 1.6833
 Frc consts  --      0.0499                 0.0324                 0.0656
 IR Inten    --      0.6397                 0.5522                 1.5265

                     13                     14                     15
                      A                      A                      A
 Frequencies --    260.5540               277.3904               294.3099
 Red. masses --      2.0702                 1.9496                 3.2235
 Frc consts  --      0.0828                 0.0884                 0.1645
 IR Inten    --      2.4361                 1.8141                 7.2174

                     16                     17                     18
                      A                      A                      A
 Frequencies --    321.8746               337.8356               352.3428
 Red. masses --      2.7328                 2.4343                 2.5818
 Frc consts  --      0.1668                 0.1637                 0.1888
 IR Inten    --      8.4564                 0.4254                 0.3095

                     19                     20                     21
                      A                      A                      A
 Frequencies --    376.8997               431.0908               435.2040
 Red. masses --      3.5566                 3.5870                 2.0341
 Frc consts  --      0.2977                 0.3928                 0.2270
 IR Inten    --      2.3819                 3.6918                 5.2938

                     22                     23                     24
                      A                      A                      A
 Frequencies --    493.4917               499.8069               509.1098
 Red. masses --      3.3419                 3.1601                 4.0893
 Frc consts  --      0.4795                 0.4651                 0.6245
 IR Inten    --      5.5624                 1.7482                 7.1591

                     25                     26                     27
                      A                      A                      A
 Frequencies --    562.7993               576.4514               595.9099
 Red. masses --      3.5740                 3.2418                 2.8223
 Frc consts  --      0.6670                 0.6347                 0.5905
 IR Inten    --     14.6544                12.1154                11.9531

                     28                     29                     30
                      A                      A                      A
 Frequencies --    599.4701               615.5803               653.1719
 Red. masses --      3.2500                 2.6977                 6.4399
 Frc consts  --      0.6881                 0.6023                 1.6188
 IR Inten    --      0.9826                 7.4724                 1.5618

                     31                     32                     33
                      A                      A                      A
 Frequencies --    702.0079               712.6311               733.4029
 Red. masses --      1.2329                 2.4562                 2.4058
 Frc consts  --      0.3580                 0.7349                 0.7624
 IR Inten    --     60.2111                13.9393                11.6024

                     34                     35                     36
                      A                      A                      A
 Frequencies --    751.0207               806.1786               837.8398
 Red. masses --      6.1051                 1.9572                 1.4949
 Frc consts  --      2.0288                 0.7495                 0.6183
 IR Inten    --      0.7008                 6.3597                18.8182

                     37                     38                     39
                      A                      A                      A
 Frequencies --    849.9844               861.6777               867.6407
 Red. masses --      2.0070                 3.2476                 2.1568
 Frc consts  --      0.8543                 1.4207                 0.9566
 IR Inten    --     24.1630                 5.6975                18.5298

                     40                     41                     42
                      A                      A                      A
 Frequencies --    887.7129               898.4107               906.8146
 Red. masses --      2.4945                 2.6055                 1.3985
 Frc consts  --      1.1582                 1.2391                 0.6775
 IR Inten    --     25.1979                26.9614                 2.7334

                     43                     44                     45
                      A                      A                      A
 Frequencies --    930.0629               944.7083               977.5299
 Red. masses --      2.0922                 1.5480                 2.1984
 Frc consts  --      1.0663                 0.8140                 1.2377
 IR Inten    --      2.1761                 0.3052                 1.1202

                     46                     47                     48
                      A                      A                      A
 Frequencies --    998.6745              1009.4594              1025.7719
 Red. masses --      1.7988                 1.9462                 2.0790
 Frc consts  --      1.0570                 1.1684                 1.2889
 IR Inten    --      1.7741                 8.4129                 5.0189

                     49                     50                     51
                      A                      A                      A
 Frequencies --   1030.7557              1068.0446              1079.5665
 Red. masses --      1.5032                 1.5963                 1.7918
 Frc consts  --      0.9409                 1.0729                 1.2304
 IR Inten    --      6.2047                 2.8844                 4.4757

                     52                     53                     54
                      A                      A                      A
 Frequencies --   1096.6380              1110.5320              1113.7811
 Red. masses --      2.2687                 1.5638                 1.5546
 Frc consts  --      1.6075                 1.1363                 1.1363
 IR Inten    --     19.3527                 2.9075                 8.8958

                     55                     56                     57
                      A                      A                      A
 Frequencies --   1131.2722              1152.4647              1159.4102
 Red. masses --      1.8885                 1.8402                 1.8037
 Frc consts  --      1.4240                 1.4400                 1.4285
 IR Inten    --      0.5183                22.7906                30.9699

                     58                     59                     60
                      A                      A                      A
 Frequencies --   1177.1320              1183.8681              1211.7200
 Red. masses --      2.0572                 1.9065                 2.2582
 Frc consts  --      1.6795                 1.5743                 1.9535
 IR Inten    --      8.0094                 1.1451                34.6649

                     61                     62                     63
                      A                      A                      A
 Frequencies --   1222.2311              1228.0996              1276.1063
 Red. masses --      1.4427                 1.4733                 1.4019
 Frc consts  --      1.2698                 1.3092                 1.3450
 IR Inten    --      5.9275                 2.3920                13.9860

                     64                     65                     66
                      A                      A                      A
 Frequencies --   1295.9989              1312.2226              1323.0008
 Red. masses --      1.6148                 1.3319                 1.5338
 Frc consts  --      1.5981                 1.3513                 1.5817
 IR Inten    --     21.9271                11.3734                 5.2380

                     67                     68                     69
                      A                      A                      A
 Frequencies --   1329.9547              1344.8686              1366.1134
 Red. masses --      1.4287                 1.4574                 1.4847
 Frc consts  --      1.4889                 1.5531                 1.6326
 IR Inten    --     48.3976                64.4099                28.6006

                     70                     71                     72
                      A                      A                      A
 Frequencies --   1379.8105              1385.1824              1397.6249
 Red. masses --      1.4608                 1.3465                 1.3919
 Frc consts  --      1.6386                 1.5222                 1.6019
 IR Inten    --     28.1328                16.5658                 2.7207

                     73                     74                     75
                      A                      A                      A
 Frequencies --   1403.4044              1408.8178              1418.9832
 Red. masses --      1.5145                 1.6360                 1.3407
 Frc consts  --      1.7574                 1.9131                 1.5906
 IR Inten    --      9.8980                 3.3763                10.9422

                     76                     77                     78
                      A                      A                      A
 Frequencies --   1431.3358              1433.5577              1455.6512
 Red. masses --      1.3582                 1.3105                 1.3926
 Frc consts  --      1.6394                 1.5867                 1.7386
 IR Inten    --      8.8794                12.3138                18.6318

                     79                     80                     81
                      A                      A                      A
 Frequencies --   1462.9220              1494.5916              1498.0354
 Red. masses --      2.0788                 1.2408                 1.1126
 Frc consts  --      2.6212                 1.6330                 1.4710
 IR Inten    --    123.3571                 4.3712                 6.1430

                     82                     83                     84
                      A                      A                      A
 Frequencies --   1505.3048              1510.3996              1511.9889
 Red. masses --      3.1272                 1.1458                 1.0682
 Frc consts  --      4.1750                 1.5400                 1.4387
 IR Inten    --      3.5095                12.9272                 0.8308

                     85                     86                     87
                      A                      A                      A
 Frequencies --   1519.7041              1520.4425              1523.3925
 Red. masses --      1.0928                 1.2182                 1.0815
 Frc consts  --      1.4870                 1.6593                 1.4787
 IR Inten    --      4.9550                12.3973                 0.6124

                     88                     89                     90
                      A                      A                      A
 Frequencies --   1527.6305              1535.3832              1546.3500
 Red. masses --      1.0904                 1.0885                 1.0637
 Frc consts  --      1.4993                 1.5119                 1.4986
 IR Inten    --      1.4368                 7.1919                 1.5318

                     91                     92                     93
                      A                      A                      A
 Frequencies --   1604.6016              1735.0128              2936.3111
 Red. masses --      5.4166                10.2668                 1.0739
 Frc consts  --      8.2170                18.2091                 5.4555
 IR Inten    --      1.7789               230.1093                32.9097

                     94                     95                     96
                      A                      A                      A
 Frequencies --   2942.6139              3039.6829              3046.8482
 Red. masses --      1.0724                 1.0685                 1.0697
 Frc consts  --      5.4710                 5.8166                 5.8508
 IR Inten    --    130.2658                10.0263                34.3334

                     97                     98                     99
                      A                      A                      A
 Frequencies --   3057.0952              3059.0695              3061.3615
 Red. masses --      1.0679                 1.0416                 1.0422
 Frc consts  --      5.8804                 5.7431                 5.7549
 IR Inten    --     49.1344                19.3793                14.8196

                    100                    101                    102
                      A                      A                      A
 Frequencies --   3094.0482              3095.0580              3101.1862
 Red. masses --      1.0885                 1.0894                 1.0919
 Frc consts  --      6.1396                 6.1487                 6.1871
 IR Inten    --     41.4421                25.8683                 6.2011

                    103                    104                    105
                      A                      A                      A
 Frequencies --   3107.8810              3119.6420              3121.2102
 Red. masses --      1.0893                 1.0914                 1.0876
 Frc consts  --      6.1990                 6.2583                 6.2426
 IR Inten    --     16.7161                20.5555                 3.1450

                    106                    107                    108
                      A                      A                      A
 Frequencies --   3132.0692              3135.9067              3139.8419
 Red. masses --      1.0936                 1.0938                 1.0936
 Frc consts  --      6.3206                 6.3372                 6.3519
 IR Inten    --     51.9737                16.4213                 5.6912

                    109                    110                    111
                      A                      A                      A
 Frequencies --   3158.5636              3166.9899              3215.7144
 Red. masses --      1.1031                 1.1018                 1.0883
 Frc consts  --      6.4841                 6.5110                 6.6307
 IR Inten    --      6.4430                17.3503                 6.6516

                    112                    113                    114
                      A                      A                      A
 Frequencies --   3229.5490              3270.7349              3510.3030
 Red. masses --      1.0952                 1.0971                 1.0749
 Frc consts  --      6.7302                 6.9146                 7.8041
 IR Inten    --      5.7813                 1.3628                 0.7136

 - Thermochemistry -
 -------------------
 Temperature   298.150 Kelvin.  Pressure   1.00000 Atm.
 Atom     1 has atomic number  6 and mass  12.00000

 Molecular mass:   266.14529 amu.
 Principal axes and moments of inertia in atomic units:
                           1         2         3
     Eigenvalues --  2742.346637164.939157909.90277
           X            0.99989   0.01482   0.00025
           Y           -0.01481   0.99971  -0.01916
           Z           -0.00053   0.01915   0.99982
 This molecule is an asymmetric top.
 Rotational symmetry number  1.
 Warning -- assumption of classical behavior for rotation
           may cause significant error
 Rotational temperatures (Kelvin)      0.03158     0.01209     0.01095
 Rotational constants (GHZ):           0.65810     0.25189     0.22816
 Zero-point vibrational energy     918457.3 (Joules/Mol)
                                  219.51656 (Kcal/Mol)
 Warning -- explicit consideration of  29 degrees of freedom as
           vibrations may cause significant error
 Vibrational temperatures:     31.56    43.78    85.33   101.29   114.99
          (Kelvin)            163.07   203.75   215.26   243.13   275.84
                              301.05   369.98   374.88   399.10   423.45
                              463.11   486.07   506.94   542.27   620.24
                              626.16   710.02   719.11   732.50   809.74
                              829.39   857.38   862.50   885.68   939.77
                             1010.03  1025.32  1055.20  1080.55  1159.91
                             1205.46  1222.94  1239.76  1248.34  1277.22
                             1292.61  1304.70  1338.15  1359.22  1406.45
                             1436.87  1452.39  1475.86  1483.03  1536.68
                             1553.26  1577.82  1597.81  1602.48  1627.65
                             1658.14  1668.13  1693.63  1703.32  1743.39
                             1758.52  1766.96  1836.03  1864.65  1888.00
                             1903.50  1913.51  1934.97  1965.53  1985.24
                             1992.97  2010.87  2019.19  2026.97  2041.60
                             2059.37  2062.57  2094.36  2104.82  2150.38
                             2155.34  2165.80  2173.13  2175.41  2186.52
                             2187.58  2191.82  2197.92  2209.07  2224.85
                             2308.66  2496.30  4224.70  4233.77  4373.43
                             4383.74  4398.48  4401.32  4404.62  4451.65
                             4453.10  4461.92  4471.55  4488.47  4490.73
                             4506.35  4511.87  4517.53  4544.47  4556.59
                             4626.70  4646.60  4705.86  5050.54

 Zero-point correction=                           0.349822 (Hartree/Particle)
 Thermal correction to Energy=                    0.367677
 Thermal correction to Enthalpy=                  0.368622
 Thermal correction to Gibbs Free Energy=         0.303106
 Sum of electronic and zero-point Energies=          -1129.392267
 Sum of electronic and thermal Energies=             -1129.374411
 Sum of electronic and thermal Enthalpies=           -1129.373467
 Sum of electronic and thermal Free Energies=        -1129.438983

                     E (Thermal)             CV                S
                      KCal/Mol        Cal/Mol-Kelvin    Cal/Mol-Kelvin
 Total                  230.721             69.379            137.889
 Electronic               0.000              0.000              0.000
 Translational            0.889              2.981             42.636
 Rotational               0.889              2.981             33.407
 Vibrational            228.944             63.418             61.846
 Vibration     1          0.593              1.985              6.451
 Vibration     2          0.594              1.984              5.801
 Vibration     3          0.597              1.974              4.480
 Vibration     4          0.598              1.968              4.142
 Vibration     5          0.600              1.963              3.893
 Vibration     6          0.607              1.938              3.211
 Vibration     7          0.615              1.912              2.782
 Vibration     8          0.618              1.903              2.677
 Vibration     9          0.625              1.881              2.447
 Vibration    10          0.634              1.851              2.211
 Vibration    11          0.642              1.827              2.050
 Vibration    12          0.667              1.751              1.681
 Vibration    13          0.669              1.745              1.658
 Vibration    14          0.678              1.715              1.550
 Vibration    15          0.689              1.684              1.449
 Vibration    16          0.707              1.632              1.301
 Vibration    17          0.718              1.600              1.222
 Vibration    18          0.729              1.570              1.156
 Vibration    19          0.747              1.519              1.052
 Vibration    20          0.792              1.403              0.855
 Vibration    21          0.796              1.393              0.842
 Vibration    22          0.849              1.264              0.675
 Vibration    23          0.855              1.250              0.659
 Vibration    24          0.864              1.230              0.636
 Vibration    25          0.919              1.112              0.518
 Vibration    26          0.933              1.082              0.492
 Vibration    27          0.954              1.040              0.457
 Vibration    28          0.958              1.033              0.451
 Vibration    29          0.975              0.999              0.424

 Optimization completed.
    -- Stationary point found.
 Normal termination of Gaussian 16 at Fri Dec 11 19:19:53 2020.

 ----------------------------------------------------------------------
 # B3LYP/6-311++G(d,p) empiricaldispersion=gd3bj scf=xqc pop=npa geom=c
 heck
 ----------------------------------------------------------------------

 --------------------------------------
 CID_63910393_JID_8119_Energie_neutraal
 --------------------------------------
 Structure from the checkpoint file:  "JID_8119.chk"
 Charge =  0 Multiplicity = 1

 SCF Done:  E(RB3LYP) =  -1129.97223667     A.U. after   16 cycles
 Normal termination of Gaussian 16 at Fri Dec 11 19:32:04 2020.

 ----------------------------------------------------------------------
 # B3LYP/6-311++G(d,p) empiricaldispersion=gd3bj scf=xqc pop=npa geom=c
 heck
 ----------------------------------------------------------------------

 ------------------------------------
 CID_63910393_JID_8119_Energie_kation
 ------------------------------------
 Structure from the checkpoint file:  "JID_8119.chk"
 Charge =  1 Multiplicity = 2

 SCF Done:  E(UB3LYP) =  -1129.68525320     A.U. after   32 cycles
 Normal termination of Gaussian 16 at Fri Dec 11 20:08:11 2020.
 Gaussian 16:  ES64L-G16RevA.03 25-Dec-2016

 ----------------------------------------------------------------------
 # B3LYP/6-311++G(d,p) empiricaldispersion=gd3bj scf=xqc pop=npa geom=c
 heck
 ----------------------------------------------------------------------

 -----------------------------------
 CID_63910393_JID_8119_Energie_anion
 -----------------------------------
 Structure from the checkpoint file:  "JID_8119.chk"
 Charge = -1 Multiplicity = 2

                         Standard orientation:
 ---------------------------------------------------------------------
 Center     Atomic      Atomic             Coordinates (Angstroms)
 Number     Number       Type             X           Y           Z
 ---------------------------------------------------------------------
      1          6           0       -0.929834   -1.797708   -0.819075
      2          6           0       -1.672273   -0.510573   -1.205894
      3          6           0       -3.142654   -0.781561   -1.552991
      4          7           0       -3.893119   -1.058378   -0.333547
      5          6           0       -3.940325    0.151944    0.483684
      6          6           0       -2.533587    0.505440    0.972338
      7          7           0       -1.598151    0.537340   -0.171085
      8          6           0       -0.561024    1.433693   -0.091376
      9          8           0       -0.473433    2.233780    0.841449
     10          6           0        0.474527    1.425198   -1.214623
     11          6           0        1.721012    2.250148   -0.884129
     12          6           0        2.469117    1.780567    0.383556
     13          6           0        2.631303    0.293250    0.482204
     14          6           0        2.049306   -0.555561    1.386539
     15          6           0        2.361791   -1.934542    1.167112
     16          6           0        3.175140   -2.125602    0.086395
     17         16           0        3.579293   -0.615621   -0.677359
     18          6           0       -2.049215   -0.416713    2.097613
     19          1           0       -1.485246   -2.348608   -0.057036
     20          1           0        0.070039   -1.580957   -0.434255
     21          1           0       -0.827666   -2.444924   -1.698320
     22          1           0       -1.213285   -0.100379   -2.107715
     23          1           0       -3.542948    0.092852   -2.101339
     24          1           0       -3.194165   -1.650403   -2.217370
     25          1           0       -4.835708   -1.360519   -0.566212
     26          1           0       -4.584904   -0.022643    1.351403
     27          1           0       -4.349551    1.014168   -0.076567
     28          1           0       -2.546520    1.526777    1.356125
     29          1           0        0.773525    0.398570   -1.443332
     30          1           0        0.005724    1.820435   -2.126472
     31          1           0        2.393910    2.196997   -1.749308
     32          1           0        1.447135    3.300970   -0.748778
     33          1           0        3.446471    2.278518    0.421275
     34          1           0        1.901420    2.105266    1.257838
     35          1           0        1.411479   -0.195458    2.186312
     36          1           0        1.992882   -2.743837    1.787691
     37          1           0        3.570689   -3.053782   -0.302719
     38          1           0       -1.008505   -0.190635    2.344078
     39          1           0       -2.654610   -0.253988    2.997086
     40          1           0       -2.132211   -1.469348    1.818079
 ---------------------------------------------------------------------

 SCF Done:  E(UB3LYP) =  -1129.96085914     A.U. after   33 cycles
 SCF Done:  E(UB3LYP) =  -1129.96085914     a.u. after    1 cycles

 The electronic state is 2-A.
 Alpha  occ. eigenvalues --  -88.78272 -18.98695 -14.23916 -14.20146 -10.17110
 Alpha  occ. eigenvalues --  -10.11456 -10.11170 -10.10839 -10.10702 -10.09620
 Alpha  occ. eigenvalues --  -10.09401 -10.08754 -10.08560 -10.08208 -10.08148
 Alpha  occ. eigenvalues --  -10.08083 -10.06338 -10.05862  -7.86906  -5.83185
 Alpha  occ. eigenvalues --   -5.82825  -5.82515  -0.93912  -0.85037  -0.79951
 Alpha  occ. eigenvalues --   -0.79139  -0.71425  -0.69895  -0.65947  -0.64358
 Alpha  occ. eigenvalues --   -0.64284  -0.60026  -0.59095  -0.56913  -0.53356
 Alpha  occ. eigenvalues --   -0.51647  -0.48360  -0.46952  -0.44358  -0.43678
 Alpha  occ. eigenvalues --   -0.41715  -0.39839  -0.38686  -0.38020  -0.37176
 Alpha  occ. eigenvalues --   -0.37048  -0.35340  -0.35055  -0.34003  -0.32526
 Alpha  occ. eigenvalues --   -0.32187  -0.31512  -0.30445  -0.30382  -0.29824
 Alpha  occ. eigenvalues --   -0.29184  -0.28317  -0.27985  -0.26951  -0.26644
 Alpha  occ. eigenvalues --   -0.26159  -0.25407  -0.24673  -0.24581  -0.24191
 Alpha  occ. eigenvalues --   -0.23553  -0.23479  -0.16571  -0.15827  -0.15050
 Alpha  occ. eigenvalues --   -0.14394  -0.13327   0.04123
 Alpha virt. eigenvalues --    0.05682   0.06236   0.06695   0.07338   0.08046
 Alpha virt. eigenvalues --    0.08075   0.08818   0.08956   0.09779   0.09867
 Alpha virt. eigenvalues --    0.10559   0.10868   0.11096   0.11413   0.11719

  Beta  occ. eigenvalues --  -88.78263 -18.98692 -14.23915 -14.20114 -10.17108
  Beta  occ. eigenvalues --  -10.11452 -10.11132 -10.10837 -10.10656 -10.09599
  Beta  occ. eigenvalues --  -10.09367 -10.08745 -10.08560 -10.08202 -10.08131
  Beta  occ. eigenvalues --  -10.08072 -10.06331 -10.05848  -7.86897  -5.83180
  Beta  occ. eigenvalues --   -5.82820  -5.82490  -0.93905  -0.85017  -0.79915
  Beta  occ. eigenvalues --   -0.79089  -0.71394  -0.69870  -0.65906  -0.64315
  Beta  occ. eigenvalues --   -0.64246  -0.59983  -0.59053  -0.56867  -0.53323
  Beta  occ. eigenvalues --   -0.51605  -0.48303  -0.46899  -0.44308  -0.43628
  Beta  occ. eigenvalues --   -0.41683  -0.39800  -0.38628  -0.37989  -0.37142
  Beta  occ. eigenvalues --   -0.37021  -0.35294  -0.35031  -0.33973  -0.32502
  Beta  occ. eigenvalues --   -0.32163  -0.31491  -0.30413  -0.30354  -0.29771
  Beta  occ. eigenvalues --   -0.29154  -0.28284  -0.27932  -0.26917  -0.26605
  Beta  occ. eigenvalues --   -0.26123  -0.25367  -0.24650  -0.24555  -0.24167
  Beta  occ. eigenvalues --   -0.23525  -0.23447  -0.16464  -0.15817  -0.15024
  Beta  occ. eigenvalues --   -0.14192  -0.13282
  Beta virt. eigenvalues --    0.06046   0.06371   0.06887   0.07209   0.07721
  Beta virt. eigenvalues --    0.08418   0.08649   0.09115   0.09175   0.09848
  Beta virt. eigenvalues --    0.10134   0.10730   0.11160   0.11376   0.11520

 Mulliken charges and spin densities:
               1          2
     1  C    0.056641  -0.602480
     2  C   -1.075201   1.193454
     3  C    1.217444  -1.772208
     4  N   -0.403011   0.239549
     5  C    0.388930  -0.899553
     6  C   -0.270887   0.503987
     7  N    0.207727  -0.000335
     8  C    0.471301  -0.947679
     9  O   -0.274724  -0.001420
    10  C   -0.364021   0.707713
    11  C    0.215953  -0.934596
    12  C    0.294462  -0.668763
    13  C    0.170115   0.008238
    14  C   -1.077054   0.839253
    15  C    0.650269  -0.911178
    16  C   -0.886824   0.540966
    17  S    0.540593  -0.403665
    18  C   -0.109341  -0.393313
    19  H    0.176518  -0.019100
    20  H    0.513976  -0.442308
    21  H   -0.229299   0.375996
    22  H    0.099280   0.092108
    23  H   -0.421038   0.561695
    24  H   -0.417531   0.601447
    25  H   -0.248347   0.522057
    26  H   -0.119233   0.288875
    27  H   -0.177667   0.302065
    28  H    0.181642   0.044263
    29  H   -0.361759   0.479417
    30  H   -0.262318   0.501072
    31  H    0.025256   0.145725
    32  H    0.091553   0.069001
    33  H   -0.009490   0.182246
    34  H    0.246806  -0.024807
    35  H    0.058062   0.119838
    36  H    0.017291   0.135585
    37  H   -0.230585   0.468885
    38  H    0.116426   0.000976
    39  H    0.057663   0.069840
    40  H    0.140419   0.027153
 Sum of Mulliken charges =  -1.00000   1.00000

 Dipole moment (field-independent basis, Debye):
    X=              5.9010    Y=              0.7017    Z=              3.5637  Tot=              6.9292
 Quadrupole moment (field-independent basis, Debye-Ang):
   XX=           -206.2133   YY=           -162.8602   ZZ=           -158.4062
   XY=             -5.7576   XZ=            -12.2892   YZ=             -4.3041

 Summary of Natural Population Analysis:

                                       Natural Population
                Natural  -----------------------------------------------
    Atom  No    Charge         Core      Valence    Rydberg      Total
 -----------------------------------------------------------------------
      C    1   -0.29318      0.99962     2.28758    0.00597     3.29318
      C    2   -0.01017      0.99957     1.99703    0.01357     3.01017
      C    3   -0.08676      0.99959     2.07448    0.01268     3.08676
      N    4   -0.34379      0.99974     2.83090    0.01316     3.84379
      C    5   -0.08783      0.99959     2.07640    0.01183     3.08783
      C    6   -0.01302      0.99958     2.00071    0.01273     3.01302
      N    7   -0.26083      0.99962     2.74815    0.01306     3.76083
      C    8    0.35409      0.99964     1.62323    0.02304     2.64591
      O    9   -0.33814      0.99988     3.33346    0.00480     4.33814
      C   10   -0.24060      0.99958     2.23249    0.00852     3.24060
      C   11   -0.18215      0.99963     2.17334    0.00919     3.18215
      C   12   -0.21116      0.99957     2.20217    0.00942     3.21116
      C   13   -0.08802      0.99949     2.07463    0.01390     3.08802
      C   14   -0.13431      0.99945     2.12497    0.00989     3.13431
      C   15   -0.12832      0.99953     2.11781    0.01097     3.12832
      C   16   -0.18902      0.99954     2.17924    0.01025     3.18902
      S   17    0.19645      4.99939     2.78464    0.01952     7.80355
      C   18   -0.28834      0.99963     2.28415    0.00456     3.28834
      H   19    0.10337      0.00000     0.39515    0.00149     0.39663
      H   20    0.10461      0.00000     0.39363    0.00175     0.39539
      H   21    0.10007      0.00000     0.39890    0.00103     0.39993
      H   22    0.10234      0.00000     0.39528    0.00238     0.39766
      H   23    0.08388      0.00000     0.41345    0.00267     0.41612
      H   24    0.10164      0.00000     0.39628    0.00209     0.39836
      H   25    0.18143      0.00000     0.31344    0.00514     0.31857
      H   26    0.09772      0.00000     0.40120    0.00108     0.40228
      H   27    0.08355      0.00000     0.41459    0.00186     0.41645
      H   28    0.11266      0.00000     0.38570    0.00164     0.38734
      H   29    0.11041      0.00000     0.38747    0.00213     0.38959
      H   30    0.11394      0.00000     0.38482    0.00124     0.38606
      H   31    0.09626      0.00000     0.40271    0.00104     0.40374
      H   32    0.10477      0.00000     0.39422    0.00100     0.39523
      H   33    0.10331      0.00000     0.39568    0.00101     0.39669
      H   34    0.11917      0.00000     0.37955    0.00128     0.38083
      H   35    0.10938      0.00000     0.38945    0.00117     0.39062
      H   36    0.10673      0.00000     0.39238    0.00089     0.39327
      H   37    0.10907      0.00000     0.38999    0.00094     0.39093
      H   38    0.10218      0.00000     0.39688    0.00094     0.39782
      H   39    0.09635      0.00000     0.40290    0.00075     0.40365
      H   40    0.10226      0.00000     0.39651    0.00123     0.39774
 =======================================================================
   * Total *    0.00000     21.99264    49.76556    0.24181    72.00000

 Normal termination of Gaussian 16 at Fri Dec 11 20:45:47 2020.
