 Gaussian 16, Revision A.03,

 -----------------------------------------------------------
 # opt freq B3LYP/6-31G(d) empiricaldispersion=gd3bj scf=xqc
 -----------------------------------------------------------

 -------------------------------
 CID_148954612_JID_4985_neutraal
 -------------------------------
 Symbolic Z-matrix:
 Charge =  0 Multiplicity = 1

 SCF Done:  E(RB3LYP) =  -633.445624553     A.U. after   14 cycles
 SCF Done:  E(RB3LYP) =  -633.450279162     A.U. after   12 cycles
 SCF Done:  E(RB3LYP) =  -633.450960451     A.U. after   11 cycles
 SCF Done:  E(RB3LYP) =  -633.451404806     A.U. after   11 cycles
 SCF Done:  E(RB3LYP) =  -633.451797104     A.U. after   12 cycles
 SCF Done:  E(RB3LYP) =  -633.452009635     A.U. after   11 cycles
 SCF Done:  E(RB3LYP) =  -633.452120200     A.U. after   11 cycles
 SCF Done:  E(RB3LYP) =  -633.452196002     A.U. after   10 cycles
 SCF Done:  E(RB3LYP) =  -633.452200382     A.U. after    8 cycles
 SCF Done:  E(RB3LYP) =  -633.452202732     A.U. after   10 cycles
 SCF Done:  E(RB3LYP) =  -633.452204326     A.U. after    8 cycles
 SCF Done:  E(RB3LYP) =  -633.452204511     A.U. after    7 cycles
 Optimization completed.
    -- Stationary point found.
 Normal termination of Gaussian 16 at Thu Dec 10 11:01:41 2020.

 --------------------------------------------------------------------
 #N Geom=AllCheck Guess=TCheck SCRF=Check GenChk RB3LYP/6-31G(d) Freq
 --------------------------------------------------------------------

 Structure from the checkpoint file:  "JID_4985.chk"
 -------------------------------
 CID_148954612_JID_4985_neutraal
 -------------------------------
 Charge =  0 Multiplicity = 1

 SCF Done:  E(RB3LYP) =  -633.452204511     A.U. after    1 cycles

  Exact polarizability: 145.680   3.549 143.400  -5.276  -7.249  79.318
 Approx polarizability: 221.252  11.217 220.263 -12.399 -16.716 119.937

                      1                      2                      3
                      A                      A                      A
 Frequencies --     54.2632               103.7690               127.7398
 Red. masses --      4.0630                 3.2599                 4.5925
 Frc consts  --      0.0070                 0.0207                 0.0442
 IR Inten    --      1.5552                 0.2170                 0.5365

                      4                      5                      6
                      A                      A                      A
 Frequencies --    153.8926               200.9117               224.9898
 Red. masses --      3.3826                 1.6117                 1.2986
 Frc consts  --      0.0472                 0.0383                 0.0387
 IR Inten    --      4.5841                 1.1172                 0.7385

                      7                      8                      9
                      A                      A                      A
 Frequencies --    251.0403               262.8664               282.8303
 Red. masses --      1.6769                 1.2595                 1.7064
 Frc consts  --      0.0623                 0.0513                 0.0804
 IR Inten    --      0.4469                 1.2411                 0.2103

                     10                     11                     12
                      A                      A                      A
 Frequencies --    317.3102               320.8833               336.1475
 Red. masses --      2.9872                 2.9939                 2.2216
 Frc consts  --      0.1772                 0.1816                 0.1479
 IR Inten    --      1.1222                 1.0258                 1.1023

                     13                     14                     15
                      A                      A                      A
 Frequencies --    369.3164               396.8664               437.9555
 Red. masses --      1.7665                 1.8238                 4.2436
 Frc consts  --      0.1420                 0.1692                 0.4796
 IR Inten    --     29.1785                48.5649                 9.3143

                     16                     17                     18
                      A                      A                      A
 Frequencies --    473.8277               496.2826               527.9771
 Red. masses --      3.7681                 4.0388                 3.1730
 Frc consts  --      0.4984                 0.5861                 0.5211
 IR Inten    --      4.2730                 9.2385                 2.4933

                     19                     20                     21
                      A                      A                      A
 Frequencies --    536.3680               567.6732               593.6090
 Red. masses --      5.3646                 4.0176                 5.2261
 Frc consts  --      0.9093                 0.7628                 1.0850
 IR Inten    --      3.1764                 0.4965                22.4612

                     22                     23                     24
                      A                      A                      A
 Frequencies --    603.7272               696.9622               748.3754
 Red. masses --      4.2547                 5.9142                 4.5739
 Frc consts  --      0.9137                 1.6926                 1.5093
 IR Inten    --     13.9682                 3.4347                 1.4402

                     25                     26                     27
                      A                      A                      A
 Frequencies --    760.0022               766.6872               803.7347
 Red. masses --      2.6079                 1.6015                 4.4560
 Frc consts  --      0.8875                 0.5546                 1.6960
 IR Inten    --      2.1633                48.3249                 7.2528

                     28                     29                     30
                      A                      A                      A
 Frequencies --    857.6912               860.4741               937.0360
 Red. masses --      2.5673                 1.4903                 1.3601
 Frc consts  --      1.1127                 0.6501                 0.7036
 IR Inten    --     10.4501                 1.7215                 1.0569

                     31                     32                     33
                      A                      A                      A
 Frequencies --    942.9063               959.2395               970.0867
 Red. masses --      1.5210                 2.3926                 1.2417
 Frc consts  --      0.7967                 1.2971                 0.6885
 IR Inten    --      0.2819                 8.2632                 0.1395

                     34                     35                     36
                      A                      A                      A
 Frequencies --    997.8365              1028.5209              1036.6298
 Red. masses --      2.7830                 4.5956                 1.3083
 Frc consts  --      1.6326                 2.8643                 0.8283
 IR Inten    --     84.1837               187.6500                 0.4556

                     37                     38                     39
                      A                      A                      A
 Frequencies --   1080.8314              1098.9624              1129.3521
 Red. masses --      2.5990                 3.1259                 3.7609
 Frc consts  --      1.7889                 2.2243                 2.8262
 IR Inten    --     12.3724                13.7780                62.8382

                     40                     41                     42
                      A                      A                      A
 Frequencies --   1153.6295              1161.0950              1166.9912
 Red. masses --      2.2731                 1.4218                 1.9630
 Frc consts  --      1.7824                 1.1293                 1.5751
 IR Inten    --     63.7289                25.1006                37.6938

                     43                     44                     45
                      A                      A                      A
 Frequencies --   1201.3889              1208.0501              1215.6246
 Red. masses --      1.1042                 2.0677                 3.0521
 Frc consts  --      0.9390                 1.7779                 2.6574
 IR Inten    --      0.7388                11.7542                22.1198

                     46                     47                     48
                      A                      A                      A
 Frequencies --   1251.6404              1276.7223              1302.5572
 Red. masses --      1.9627                 1.7066                 2.8817
 Frc consts  --      1.8116                 1.6390                 2.8807
 IR Inten    --     48.6129                12.5244                30.1490

                     49                     50                     51
                      A                      A                      A
 Frequencies --   1338.4701              1358.1406              1377.8597
 Red. masses --      1.5976                 6.1122                 2.6652
 Frc consts  --      1.6863                 6.6426                 2.9812
 IR Inten    --      4.1969                38.6130               147.4617

                     52                     53                     54
                      A                      A                      A
 Frequencies --   1424.0402              1428.6665              1439.9026
 Red. masses --      1.2520                 1.4060                 1.1783
 Frc consts  --      1.4959                 1.6908                 1.4393
 IR Inten    --     13.8229                19.8536                43.2857

                     55                     56                     57
                      A                      A                      A
 Frequencies --   1446.4638              1489.2089              1503.8967
 Red. masses --      1.2003                 1.3891                 1.0631
 Frc consts  --      1.4796                 1.8151                 1.4167
 IR Inten    --     17.2597                32.4463                 2.0706

                     58                     59                     60
                      A                      A                      A
 Frequencies --   1505.7219              1514.2744              1519.0570
 Red. masses --      1.6213                 1.0519                 1.1197
 Frc consts  --      2.1658                 1.4212                 1.5223
 IR Inten    --     14.1081                 3.8600                 8.6847

                     61                     62                     63
                      A                      A                      A
 Frequencies --   1524.3451              1534.6233              1543.3704
 Red. masses --      1.0729                 1.0987                 1.1228
 Frc consts  --      1.4688                 1.5245                 1.5757
 IR Inten    --      2.9966                 0.3762                71.1335

                     64                     65                     66
                      A                      A                      A
 Frequencies --   1552.0090              1637.7166              1667.2563
 Red. masses --      2.1889                 6.3466                 5.6717
 Frc consts  --      3.1065                10.0292                 9.2890
 IR Inten    --     56.6064                 9.9322                49.3556

                     67                     68                     69
                      A                      A                      A
 Frequencies --   3010.5989              3061.7860              3068.9871
 Red. masses --      1.0514                 1.0342                 1.0353
 Frc consts  --      5.6146                 5.7121                 5.7452
 IR Inten    --     65.5759                15.6353                17.7221

                     70                     71                     72
                      A                      A                      A
 Frequencies --   3100.9408              3133.4926              3138.7425
 Red. masses --      1.0849                 1.1033                 1.0944
 Frc consts  --      6.1463                 6.3828                 6.3523
 IR Inten    --     28.5463                 0.6871                16.5490

                     73                     74                     75
                      A                      A                      A
 Frequencies --   3140.4990              3145.5327              3146.7694
 Red. masses --      1.1025                 1.0978                 1.1035
 Frc consts  --      6.4067                 6.3995                 6.4379
 IR Inten    --     39.2784                50.3417                16.8783

                     76                     77                     78
                      A                      A                      A
 Frequencies --   3152.5019              3186.4357              3193.9264
 Red. masses --      1.1020                 1.0853                 1.0898
 Frc consts  --      6.4529                 6.4926                 6.5501
 IR Inten    --     22.3944                 1.8655                20.4568

                     79                     80                     81
                      A                      A                      A
 Frequencies --   3212.3821              3231.3757              3713.4814
 Red. masses --      1.0955                 1.0917                 1.0653
 Frc consts  --      6.6604                 6.7162                 8.6556
 IR Inten    --     27.8376                12.0087                12.2053

 - Thermochemistry -
 -------------------
 Temperature   298.150 Kelvin.  Pressure   1.00000 Atm.
 Atom     1 has atomic number  6 and mass  12.00000

 Molecular mass:   193.11028 amu.
 Principal axes and moments of inertia in atomic units:
                           1         2         3
     Eigenvalues --  2013.397882310.795293566.57698
           X            0.98801  -0.15439  -0.00316
           Y            0.15436   0.98798  -0.00791
           Z            0.00434   0.00733   0.99996
 This molecule is an asymmetric top.
 Rotational symmetry number  1.
 Warning -- assumption of classical behavior for rotation
           may cause significant error
 Rotational temperatures (Kelvin)      0.04302     0.03748     0.02428
 Rotational constants (GHZ):           0.89637     0.78100     0.50601
 Zero-point vibrational energy     650145.0 (Joules/Mol)
                                  155.38838 (Kcal/Mol)
 Warning -- explicit consideration of  22 degrees of freedom as
           vibrations may cause significant error
 Vibrational temperatures:     78.07   149.30   183.79   221.42   289.07
          (Kelvin)            323.71   361.19   378.21   406.93   456.54
                              461.68   483.64   531.36   571.00   630.12
                              681.73   714.04   759.64   771.71   816.76
                              854.07   868.63  1002.77  1076.75  1093.47
                             1103.09  1156.39  1234.03  1238.03  1348.19
                             1356.63  1380.13  1395.74  1435.66  1479.81
                             1491.48  1555.08  1581.16  1624.89  1659.82
                             1670.56  1679.04  1728.53  1738.11  1749.01
                             1800.83  1836.92  1874.09  1925.76  1954.06
                             1982.43  2048.88  2055.53  2071.70  2081.14
                             2142.64  2163.77  2166.40  2178.70  2185.58
                             2193.19  2207.98  2220.57  2232.99  2356.31
                             2398.81  4331.58  4405.23  4415.59  4461.56
                             4508.40  4515.95  4518.48  4525.72  4527.50
                             4535.75  4584.57  4595.35  4621.90  4649.23
                             5342.87

 Zero-point correction=                           0.247627 (Hartree/Particle)
 Thermal correction to Energy=                    0.260469
 Thermal correction to Enthalpy=                  0.261413
 Thermal correction to Gibbs Free Energy=         0.209520
 Sum of electronic and zero-point Energies=           -633.204577
 Sum of electronic and thermal Energies=              -633.191735
 Sum of electronic and thermal Enthalpies=            -633.190791
 Sum of electronic and thermal Free Energies=         -633.242684

                     E (Thermal)             CV                S
                      KCal/Mol        Cal/Mol-Kelvin    Cal/Mol-Kelvin
 Total                  163.447             51.553            109.218
 Electronic               0.000              0.000              0.000
 Translational            0.889              2.981             41.680
 Rotational               0.889              2.981             31.185
 Vibrational            161.669             45.592             36.354
 Vibration     1          0.596              1.976              4.656
 Vibration     2          0.605              1.946              3.382
 Vibration     3          0.611              1.925              2.980
 Vibration     4          0.619              1.898              2.624
 Vibration     5          0.638              1.839              2.125
 Vibration     6          0.650              1.803              1.919
 Vibration     7          0.663              1.761              1.723
 Vibration     8          0.670              1.741              1.643
 Vibration     9          0.682              1.705              1.516
 Vibration    10          0.704              1.641              1.324
 Vibration    11          0.706              1.634              1.306
 Vibration    12          0.717              1.603              1.230
 Vibration    13          0.742              1.535              1.083
 Vibration    14          0.763              1.477              0.974
 Vibration    15          0.798              1.387              0.833
 Vibration    16          0.831              1.308              0.727
 Vibration    17          0.852              1.258              0.667
 Vibration    18          0.883              1.188              0.592
 Vibration    19          0.891              1.170              0.573
 Vibration    20          0.924              1.101              0.509
 Vibration    21          0.951              1.045              0.461
 Vibration    22          0.962              1.024              0.443

                           ! Non-Optimized Parameters !
 Normal termination of Gaussian 16 at Thu Dec 10 11:10:54 2020.

 ----------------------------------------------------------------------
 # B3LYP/6-311++G(d,p) empiricaldispersion=gd3bj scf=xqc pop=npa geom=c
 heck
 ----------------------------------------------------------------------

 ---------------------------------------
 CID_148954612_JID_4985_Energie_neutraal
 ---------------------------------------
 Structure from the checkpoint file:  "JID_4985.chk"
 Charge =  0 Multiplicity = 1

 SCF Done:  E(RB3LYP) =  -633.632424321     A.U. after   16 cycles
 Normal termination of Gaussian 16 at Thu Dec 10 11:14:31 2020.

 ----------------------------------------------------------------------
 # B3LYP/6-311++G(d,p) empiricaldispersion=gd3bj scf=xqc pop=npa geom=c
 heck
 ----------------------------------------------------------------------

 -------------------------------------
 CID_148954612_JID_4985_Energie_kation
 -------------------------------------
 Structure from the checkpoint file:  "JID_4985.chk"
 Charge =  1 Multiplicity = 2

 SCF Done:  E(UB3LYP) =  -633.354606942     A.U. after   21 cycles
 Normal termination of Gaussian 16 at Thu Dec 10 11:21:00 2020.
 Gaussian 16:  ES64L-G16RevA.03 25-Dec-2016

 ----------------------------------------------------------------------
 # B3LYP/6-311++G(d,p) empiricaldispersion=gd3bj scf=xqc pop=npa geom=c
 heck
 ----------------------------------------------------------------------

 ------------------------------------
 CID_148954612_JID_4985_Energie_anion
 ------------------------------------
 Structure from the checkpoint file:  "JID_4985.chk"
 Charge = -1 Multiplicity = 2

                         Standard orientation:
 ---------------------------------------------------------------------
 Center     Atomic      Atomic             Coordinates (Angstroms)
 Number     Number       Type             X           Y           Z
 ---------------------------------------------------------------------
      1          6           0        1.718466   -1.801131    1.044301
      2          6           0        1.143782   -1.100094   -0.197089
      3          6           0       -0.332643   -0.757531   -0.038687
      4          6           0       -1.258973   -1.760940    0.250684
      5          6           0       -2.624582   -1.496080    0.340425
      6          6           0       -3.074612   -0.192685    0.139661
      7          6           0       -2.171574    0.830940   -0.134366
      8          6           0       -0.794556    0.564800   -0.235406
      9          7           0        0.140197    1.572172   -0.512951
     10          6           0        1.462567    1.302131    0.022656
     11          8           0        1.938914    0.082702   -0.447751
     12          8           0        1.501308    1.429139    1.433522
     13          6           0       -0.282409    2.960053   -0.431655
     14          6           0        1.350652   -1.961478   -1.449521
     15          1           0        1.613847   -1.172567    1.931766
     16          1           0        2.784691   -1.990223    0.887547
     17          1           0        1.218539   -2.756619    1.230797
     18          1           0       -0.904565   -2.777070    0.398790
     19          1           0       -3.323333   -2.296572    0.562401
     20          1           0       -4.134173    0.037946    0.206476
     21          1           0       -2.539129    1.840827   -0.269641
     22          1           0        2.159532    2.052960   -0.351150
     23          1           0        0.736001    0.947498    1.790842
     24          1           0       -1.045807    3.165095   -1.187814
     25          1           0       -0.680302    3.234166    0.557524
     26          1           0        0.579822    3.597034   -0.643397
     27          1           0        2.420050   -2.140249   -1.600635
     28          1           0        0.842052   -2.924998   -1.347747
     29          1           0        0.952920   -1.445066   -2.327287
 ---------------------------------------------------------------------

 SCF Done:  E(UB3LYP) =  -633.617687174     A.U. after   33 cycles
 SCF Done:  E(UB3LYP) =  -633.617687174     a.u. after    1 cycles

 The electronic state is 2-A.
 Alpha  occ. eigenvalues --  -19.03869 -19.03678 -14.23528 -10.20825 -10.14883
 Alpha  occ. eigenvalues --  -10.12069 -10.10090 -10.08499 -10.07728 -10.07525
 Alpha  occ. eigenvalues --  -10.07234 -10.06873 -10.06768 -10.06763  -0.99231
 Alpha  occ. eigenvalues --   -0.92049  -0.84692  -0.76021  -0.70719  -0.65241
 Alpha  occ. eigenvalues --   -0.64894  -0.60204  -0.60075  -0.56990  -0.53483
 Alpha  occ. eigenvalues --   -0.49266  -0.47250  -0.45292  -0.42566  -0.41090
 Alpha  occ. eigenvalues --   -0.38578  -0.36532  -0.36351  -0.35041  -0.34320
 Alpha  occ. eigenvalues --   -0.33374  -0.32790  -0.30806  -0.30537  -0.29635
 Alpha  occ. eigenvalues --   -0.29299  -0.28246  -0.27567  -0.27077  -0.26339
 Alpha  occ. eigenvalues --   -0.24792  -0.24037  -0.20831  -0.20270  -0.18444
 Alpha  occ. eigenvalues --   -0.15359  -0.11063   0.04421
 Alpha virt. eigenvalues --    0.06238   0.07032   0.07904   0.08274   0.08490
 Alpha virt. eigenvalues --    0.08752   0.09349   0.09750   0.10336   0.10573
 Alpha virt. eigenvalues --    0.11300   0.12508   0.12672   0.13185   0.13828

  Beta  occ. eigenvalues --  -19.03855 -19.03675 -14.23526 -10.20816 -10.14882
  Beta  occ. eigenvalues --  -10.12066 -10.10047 -10.08499 -10.07707 -10.07509
  Beta  occ. eigenvalues --  -10.07213 -10.06856 -10.06749 -10.06742  -0.99218
  Beta  occ. eigenvalues --   -0.92029  -0.84678  -0.75997  -0.70697  -0.65204
  Beta  occ. eigenvalues --   -0.64858  -0.60157  -0.60033  -0.56952  -0.53451
  Beta  occ. eigenvalues --   -0.49212  -0.47219  -0.45264  -0.42526  -0.41054
  Beta  occ. eigenvalues --   -0.38535  -0.36502  -0.36311  -0.35010  -0.34279
  Beta  occ. eigenvalues --   -0.33344  -0.32757  -0.30782  -0.30503  -0.29596
  Beta  occ. eigenvalues --   -0.29273  -0.28212  -0.27536  -0.27056  -0.26315
  Beta  occ. eigenvalues --   -0.24763  -0.24018  -0.20816  -0.20247  -0.18430
  Beta  occ. eigenvalues --   -0.15327  -0.11043
  Beta virt. eigenvalues --    0.06622   0.07357   0.07790   0.07931   0.08589
  Beta virt. eigenvalues --    0.09110   0.09433   0.09556   0.09898   0.10694
  Beta virt. eigenvalues --    0.11241   0.11935   0.12774   0.12877   0.13322

 Mulliken charges and spin densities:
               1          2
     1  C    0.164475  -0.580665
     2  C    0.806538  -0.907105
     3  C   -0.746530   1.361723
     4  C   -1.019431   0.639946
     5  C    1.379964  -1.938272
     6  C    1.591922  -1.784424
     7  C   -0.021348  -0.241392
     8  C   -1.103318   1.110121
     9  N   -0.030780   0.163394
    10  C   -0.401002   0.196290
    11  O    0.020841   0.009678
    12  O   -0.166717  -0.018345
    13  C    1.050466  -1.355971
    14  C    0.286677  -0.994990
    15  H   -0.000878   0.123532
    16  H    0.058642   0.104133
    17  H   -0.296221   0.454330
    18  H   -0.168242   0.313101
    19  H   -0.695823   0.862871
    20  H   -0.572388   0.749614
    21  H   -0.352376   0.513494
    22  H   -0.020723   0.231592
    23  H    0.295304  -0.012541
    24  H   -0.398585   0.557573
    25  H   -0.215124   0.397113
    26  H   -0.344091   0.470309
    27  H    0.072019   0.068828
    28  H   -0.248705   0.405365
    29  H    0.075432   0.100696
 Sum of Mulliken charges =  -1.00000   1.00000

 Dipole moment (field-independent basis, Debye):
    X=              4.7156    Y=             -0.5342    Z=             -0.0722  Tot=              4.7463
 Quadrupole moment (field-independent basis, Debye-Ang):
   XX=           -144.1093   YY=           -148.2958   ZZ=           -115.8097
   XY=             -0.7784   XZ=             -0.1393   YZ=              3.7462

 Summary of Natural Population Analysis:

                                       Natural Population
                Natural  -----------------------------------------------
    Atom  No    Charge         Core      Valence    Rydberg      Total
 -----------------------------------------------------------------------
      C    1   -0.29047      0.99961     2.28352    0.00734     3.29047
      C    2    0.12986      0.99949     1.85410    0.01655     2.87014
      C    3   -0.05593      0.99944     2.04362    0.01287     3.05593
      C    4   -0.08924      0.99952     2.07928    0.01045     3.08924
      C    5   -0.11304      0.99956     2.10277    0.01071     3.11304
      C    6   -0.08910      0.99956     2.07921    0.01032     3.08910
      C    7   -0.12277      0.99952     2.11309    0.01016     3.12277
      C    8    0.08505      0.99944     1.90240    0.01311     2.91495
      N    9   -0.26264      0.99964     2.75152    0.01148     3.76264
      C   10    0.30406      0.99962     1.67382    0.02250     2.69594
      O   11   -0.30449      0.99986     3.29559    0.00904     4.30449
      O   12   -0.37169      0.99989     3.36649    0.00531     4.37169
      C   13   -0.17910      0.99964     2.17032    0.00914     3.17910
      C   14   -0.28401      0.99961     2.27704    0.00736     3.28401
      H   15    0.10275      0.00000     0.39618    0.00107     0.39725
      H   16    0.10251      0.00000     0.39651    0.00098     0.39749
      H   17    0.10172      0.00000     0.39714    0.00114     0.39828
      H   18    0.10293      0.00000     0.39521    0.00186     0.39707
      H   19    0.10315      0.00000     0.39506    0.00179     0.39685
      H   20    0.10279      0.00000     0.39545    0.00176     0.39721
      H   21    0.10783      0.00000     0.39026    0.00191     0.39217
      H   22    0.08586      0.00000     0.41292    0.00122     0.41414
      H   23    0.23222      0.00000     0.26501    0.00277     0.26778
      H   24    0.10076      0.00000     0.39745    0.00179     0.39924
      H   25    0.09211      0.00000     0.40607    0.00182     0.40789
      H   26    0.10013      0.00000     0.39851    0.00136     0.39987
      H   27    0.10102      0.00000     0.39801    0.00097     0.39898
      H   28    0.10207      0.00000     0.39690    0.00102     0.39793
      H   29    0.10566      0.00000     0.39330    0.00104     0.39434
 =======================================================================
   * Total *    0.00000     13.99441    37.82675    0.17884    52.00000

 Normal termination of Gaussian 16 at Thu Dec 10 11:30:38 2020.
