 Gaussian 16, Revision A.03,

 -----------------------------------------------------------
 # opt freq B3LYP/6-31G(d) empiricaldispersion=gd3bj scf=xqc
 -----------------------------------------------------------

 -------------------------------
 CID_132264316_JID_2332_neutraal
 -------------------------------
 Symbolic Z-matrix:
 Charge =  0 Multiplicity = 1

 SCF Done:  E(RB3LYP) =  -554.546818957     A.U. after   23 cycles
 SCF Done:  E(RB3LYP) =  -554.587647136     A.U. after   15 cycles
 SCF Done:  E(RB3LYP) =  -554.614766686     A.U. after   16 cycles
 SCF Done:  E(RB3LYP) =  -554.614614711     A.U. after   15 cycles
 SCF Done:  E(RB3LYP) =  -554.619967048     A.U. after   14 cycles
 SCF Done:  E(RB3LYP) =  -554.619942848     A.U. after   13 cycles
 SCF Done:  E(RB3LYP) =  -554.618727662     A.U. after   13 cycles
 SCF Done:  E(RB3LYP) =  -554.620228112     A.U. after   14 cycles
 SCF Done:  E(RB3LYP) =  -554.620369540     A.U. after   13 cycles
 SCF Done:  E(RB3LYP) =  -554.620386629     A.U. after   12 cycles
 SCF Done:  E(RB3LYP) =  -554.620395758     A.U. after   10 cycles
 SCF Done:  E(RB3LYP) =  -554.620395925     A.U. after    8 cycles
 SCF Done:  E(RB3LYP) =  -554.620395992     A.U. after    8 cycles
 SCF Done:  E(RB3LYP) =  -554.620396018     A.U. after    7 cycles
 SCF Done:  E(RB3LYP) =  -554.620396043     A.U. after    7 cycles
 SCF Done:  E(RB3LYP) =  -554.620396054     A.U. after    7 cycles
 Optimization completed.
    -- Stationary point found.
 Normal termination of Gaussian 16 at Wed Dec  9 17:11:02 2020.

 --------------------------------------------------------------------
 #N Geom=AllCheck Guess=TCheck SCRF=Check GenChk RB3LYP/6-31G(d) Freq
 --------------------------------------------------------------------

 Structure from the checkpoint file:  "JID_2332.chk"
 -------------------------------
 CID_132264316_JID_2332_neutraal
 -------------------------------
 Charge =  0 Multiplicity = 1

 SCF Done:  E(RB3LYP) =  -554.620396054     A.U. after    1 cycles

  Exact polarizability: 205.682  37.910  90.080   5.946   7.931  71.663
 Approx polarizability: 302.778  71.005 139.324  25.083  13.719 111.686

                      1                      2                      3
                      A                      A                      A
 Frequencies --     29.0614                36.6953                57.2669
 Red. masses --      4.6256                 3.9192                 6.6201
 Frc consts  --      0.0023                 0.0031                 0.0128
 IR Inten    --      0.6409                 1.1219                 0.0059

                      4                      5                      6
                      A                      A                      A
 Frequencies --     77.0559               119.2946               134.9344
 Red. masses --      3.4480                 1.6284                 3.1543
 Frc consts  --      0.0121                 0.0137                 0.0338
 IR Inten    --      0.8618                 0.3430                 0.4193

                      7                      8                      9
                      A                      A                      A
 Frequencies --    138.0092               181.7898               232.2469
 Red. masses --      2.1308                 4.0711                 4.1138
 Frc consts  --      0.0239                 0.0793                 0.1307
 IR Inten    --      0.5768                 0.3900                 1.2436

                     10                     11                     12
                      A                      A                      A
 Frequencies --    285.3505               327.8496               352.8992
 Red. masses --      3.0132                 2.9371                 2.6551
 Frc consts  --      0.1446                 0.1860                 0.1948
 IR Inten    --      0.8722                 3.0663                 0.6047

                     13                     14                     15
                      A                      A                      A
 Frequencies --    449.3621               468.7744               500.1944
 Red. masses --      3.5117                 4.3781                 2.9129
 Frc consts  --      0.4178                 0.5668                 0.4294
 IR Inten    --      0.6764                 2.6813                 1.7376

                     16                     17                     18
                      A                      A                      A
 Frequencies --    511.4483               534.3632               580.9258
 Red. masses --      3.2511                 3.5745                 1.5291
 Frc consts  --      0.5011                 0.6014                 0.3040
 IR Inten    --     10.4000                 4.4498                16.2655

                     19                     20                     21
                      A                      A                      A
 Frequencies --    638.9836               657.3943               745.1405
 Red. masses --      3.1585                 2.0073                 1.6592
 Frc consts  --      0.7598                 0.5111                 0.5428
 IR Inten    --      2.2349                 1.8735                68.6351

                     22                     23                     24
                      A                      A                      A
 Frequencies --    785.5657               818.2812               857.0404
 Red. masses --      4.7754                 1.7300                 5.1407
 Frc consts  --      1.7363                 0.6825                 2.2247
 IR Inten    --     18.3991                 8.6934                 8.2960

                     25                     26                     27
                      A                      A                      A
 Frequencies --    894.6931               916.1268               932.0536
 Red. masses --      1.3276                 2.3028                 3.1280
 Frc consts  --      0.6261                 1.1387                 1.6010
 IR Inten    --     50.0150                33.6431                 1.0843

                     28                     29                     30
                      A                      A                      A
 Frequencies --    976.1439               986.9557              1017.7644
 Red. masses --      1.9712                 1.4022                 1.5362
 Frc consts  --      1.1067                 0.8047                 0.9375
 IR Inten    --      6.3440                 2.4345                 0.3016

                     31                     32                     33
                      A                      A                      A
 Frequencies --   1020.6226              1051.6313              1070.6109
 Red. masses --      1.1904                 2.2012                 1.5158
 Frc consts  --      0.7306                 1.4343                 1.0236
 IR Inten    --      2.8506                 3.9961                 0.4162

                     34                     35                     36
                      A                      A                      A
 Frequencies --   1098.7038              1170.1625              1241.1046
 Red. masses --      2.4784                 2.2500                 1.4541
 Frc consts  --      1.7627                 1.8152                 1.3196
 IR Inten    --      2.4849                 3.1769                 4.3149

                     37                     38                     39
                      A                      A                      A
 Frequencies --   1286.5756              1309.9084              1328.0095
 Red. masses --      1.1839                 1.3660                 1.2118
 Frc consts  --      1.1546                 1.3810                 1.2591
 IR Inten    --      6.1726                13.8244                 3.3154

                     40                     41                     42
                      A                      A                      A
 Frequencies --   1348.0898              1388.1324              1401.1073
 Red. masses --      1.7394                 9.8173                 1.2864
 Frc consts  --      1.8625                11.1456                 1.4879
 IR Inten    --      3.1743               184.7683                 7.0323

                     43                     44                     45
                      A                      A                      A
 Frequencies --   1445.5837              1486.2963              1494.3020
 Red. masses --      1.2456                 1.4661                 1.4883
 Frc consts  --      1.5337                 1.9082                 1.9581
 IR Inten    --      3.3745                 2.2325                18.9043

                     46                     47                     48
                      A                      A                      A
 Frequencies --   1495.0132              1510.5306              1519.1729
 Red. masses --      1.2224                 1.0453                 1.0907
 Frc consts  --      1.6098                 1.4053                 1.4831
 IR Inten    --      9.0596                 5.9488                12.1421

                     49                     50                     51
                      A                      A                      A
 Frequencies --   1646.2536              1687.9619              1735.4289
 Red. masses --     13.6253                 6.1211                 5.6054
 Frc consts  --     21.7566                10.2756                 9.9465
 IR Inten    --    238.0973                 4.6738                18.6698

                     52                     53                     54
                      A                      A                      A
 Frequencies --   2072.9882              3035.4189              3066.2304
 Red. masses --     10.4328                 1.0407                 1.0682
 Frc consts  --     26.4147                 5.6496                 5.9173
 IR Inten    --     51.5206                36.8248                15.8228

                     55                     56                     57
                      A                      A                      A
 Frequencies --   3077.1950              3135.3343              3141.1841
 Red. masses --      1.0996                 1.0942                 1.0931
 Frc consts  --      6.1349                 6.3375                 6.3549
 IR Inten    --     22.2567                 4.9416                 1.4798

                     58                     59                     60
                      A                      A                      A
 Frequencies --   3150.8532              3158.7765              3161.1028
 Red. masses --      1.0591                 1.0876                 1.0868
 Frc consts  --      6.1950                 6.3937                 6.3987
 IR Inten    --      0.1005                28.5687                 1.4859

                     61                     62                     63
                      A                      A                      A
 Frequencies --   3182.7477              3208.0876              3223.5708
 Red. masses --      1.0923                 1.0901                 1.1155
 Frc consts  --      6.5193                 6.6099                 6.8293
 IR Inten    --     25.0066                17.6476                 0.0794

 - Thermochemistry -
 -------------------
 Temperature   298.150 Kelvin.  Pressure   1.00000 Atm.
 Atom     1 has atomic number  6 and mass  12.00000

 Molecular mass:   165.07898 amu.
 Principal axes and moments of inertia in atomic units:
                           1         2         3
     Eigenvalues --   906.532494208.418254788.79128
           X            0.99988   0.01450  -0.00599
           Y           -0.01435   0.99959   0.02471
           Z            0.00634  -0.02462   0.99968
 This molecule is an asymmetric top.
 Rotational symmetry number  1.
 Warning -- assumption of classical behavior for rotation
           may cause significant error
 Rotational temperatures (Kelvin)      0.09554     0.02058     0.01809
 Rotational constants (GHZ):           1.99082     0.42884     0.37687
 Zero-point vibrational energy     482049.3 (Joules/Mol)
                                  115.21256 (Kcal/Mol)
 Warning -- explicit consideration of  18 degrees of freedom as
           vibrations may cause significant error
 Vibrational temperatures:     41.81    52.80    82.39   110.87   171.64
          (Kelvin)            194.14   198.56   261.55   334.15   410.56
                              471.70   507.74   646.53   674.46   719.67
                              735.86   768.83   835.82   919.35   945.84
                             1072.09  1130.25  1177.32  1233.09  1287.26
                             1318.10  1341.02  1404.45  1420.01  1464.34
                             1468.45  1513.06  1540.37  1580.79  1683.60
                             1785.67  1851.10  1884.67  1910.71  1939.60
                             1997.21  2015.88  2079.87  2138.45  2149.97
                             2150.99  2173.32  2185.75  2368.59  2428.60
                             2496.90  2982.57  4367.29  4411.62  4427.40
                             4511.05  4519.46  4533.38  4544.77  4548.12
                             4579.26  4615.72  4638.00

 Zero-point correction=                           0.183603 (Hartree/Particle)
 Thermal correction to Energy=                    0.196516
 Thermal correction to Enthalpy=                  0.197460
 Thermal correction to Gibbs Free Energy=         0.142343
 Sum of electronic and zero-point Energies=           -554.436793
 Sum of electronic and thermal Energies=              -554.423880
 Sum of electronic and thermal Enthalpies=            -554.422936
 Sum of electronic and thermal Free Energies=         -554.478053

                     E (Thermal)             CV                S
                      KCal/Mol        Cal/Mol-Kelvin    Cal/Mol-Kelvin
 Total                  123.316             45.680            116.004
 Electronic               0.000              0.000              0.000
 Translational            0.889              2.981             41.212
 Rotational               0.889              2.981             31.280
 Vibrational            121.538             39.719             43.511
 Vibration     1          0.593              1.984              5.892
 Vibration     2          0.594              1.982              5.430
 Vibration     3          0.596              1.975              4.549
 Vibration     4          0.599              1.964              3.964
 Vibration     5          0.609              1.933              3.112
 Vibration     6          0.613              1.918              2.874
 Vibration     7          0.614              1.915              2.831
 Vibration     8          0.630              1.865              2.310
 Vibration     9          0.653              1.792              1.862
 Vibration    10          0.683              1.701              1.501
 Vibration    11          0.711              1.620              1.271
 Vibration    12          0.729              1.569              1.153
 Vibration    13          0.808              1.362              0.798
 Vibration    14          0.826              1.319              0.741
 Vibration    15          0.856              1.250              0.658
 Vibration    16          0.867              1.225              0.630
 Vibration    17          0.889              1.174              0.578
 Vibration    18          0.938              1.073              0.484

 Optimization completed.
    -- Stationary point found.
 Normal termination of Gaussian 16 at Wed Dec  9 17:15:14 2020.

 ----------------------------------------------------------------------
 # B3LYP/6-311++G(d,p) empiricaldispersion=gd3bj scf=xqc pop=npa geom=c
 heck
 ----------------------------------------------------------------------

 ---------------------------------------
 CID_132264316_JID_2332_Energie_neutraal
 ---------------------------------------
 Structure from the checkpoint file:  "JID_2332.chk"
 Charge =  0 Multiplicity = 1

 SCF Done:  E(RB3LYP) =  -554.783162442     A.U. after   16 cycles
 Normal termination of Gaussian 16 at Wed Dec  9 17:17:01 2020.

 ----------------------------------------------------------------------
 # B3LYP/6-311++G(d,p) empiricaldispersion=gd3bj scf=xqc pop=npa geom=c
 heck
 ----------------------------------------------------------------------

 -------------------------------------
 CID_132264316_JID_2332_Energie_kation
 -------------------------------------
 Structure from the checkpoint file:  "JID_2332.chk"
 Charge =  1 Multiplicity = 2

 SCF Done:  E(UB3LYP) =  -554.483993114     A.U. after   21 cycles
 Normal termination of Gaussian 16 at Wed Dec  9 17:20:23 2020.
 Gaussian 16:  ES64L-G16RevA.03 25-Dec-2016

 ----------------------------------------------------------------------
 # B3LYP/6-311++G(d,p) empiricaldispersion=gd3bj scf=xqc pop=npa geom=c
 heck
 ----------------------------------------------------------------------

 ------------------------------------
 CID_132264316_JID_2332_Energie_anion
 ------------------------------------
 Structure from the checkpoint file:  "JID_2332.chk"
 Charge = -1 Multiplicity = 2

                         Standard orientation:
 ---------------------------------------------------------------------
 Center     Atomic      Atomic             Coordinates (Angstroms)
 Number     Number       Type             X           Y           Z
 ---------------------------------------------------------------------
      1          6           0        4.665126   -0.112860   -0.605319
      2          6           0        3.644573    0.403411    0.364888
      3          6           0        2.352406    0.042653    0.477868
      4          6           0        1.667106   -0.935078   -0.351562
      5          6           0        0.401739   -1.368436   -0.207831
      6          6           0       -0.587119   -0.960882    0.857087
      7          6           0       -1.744172   -0.187675    0.269910
      8          6           0       -2.935027   -0.661732   -0.007496
      9          6           0       -4.105298   -1.173276   -0.256699
     10          7           0       -1.491121    1.236528   -0.055407
     11          8           0       -0.444382    1.722545    0.371796
     12          8           0       -2.335053    1.841915   -0.709654
     13          1           0        4.269595   -0.873746   -1.282507
     14          1           0        5.519295   -0.551125   -0.071553
     15          1           0        5.066880    0.706500   -1.216444
     16          1           0        4.010184    1.164662    1.053341
     17          1           0        1.757739    0.541814    1.236617
     18          1           0        2.235528   -1.359899   -1.176013
     19          1           0        0.016270   -2.087842   -0.928515
     20          1           0       -1.003625   -1.855798    1.333809
     21          1           0       -0.117849   -0.358855    1.637003
     22          1           0       -4.326201   -1.640532   -1.214392
     23          1           0       -4.910496   -1.133301    0.474280
 ---------------------------------------------------------------------

 SCF Done:  E(UB3LYP) =  -554.810338713     A.U. after   27 cycles

 The electronic state is 2-A.
 Alpha  occ. eigenvalues --  -18.93802 -18.93483 -14.31387 -10.07021 -10.06290
 Alpha  occ. eigenvalues --  -10.05511 -10.05360 -10.05185 -10.04977 -10.04820
 Alpha  occ. eigenvalues --  -10.03995 -10.03051  -1.01718  -0.84658  -0.70336
 Alpha  occ. eigenvalues --   -0.68463  -0.64897  -0.60905  -0.58082  -0.54549
 Alpha  occ. eigenvalues --   -0.47696  -0.46358  -0.40151  -0.37808  -0.36697
 Alpha  occ. eigenvalues --   -0.34606  -0.34373  -0.32819  -0.31807  -0.31726
 Alpha  occ. eigenvalues --   -0.31086  -0.30752  -0.28835  -0.26535  -0.26438
 Alpha  occ. eigenvalues --   -0.24888  -0.21243  -0.19322  -0.14713  -0.13191
 Alpha  occ. eigenvalues --   -0.12330  -0.11216  -0.10186  -0.09127   0.03878
 Alpha virt. eigenvalues --    0.07331   0.08601   0.09238   0.09751   0.10566
 Alpha virt. eigenvalues --    0.10938   0.11173   0.11918   0.12380   0.13183
 Alpha virt. eigenvalues --    0.14418   0.14805   0.15736   0.16484   0.16716

  Beta  occ. eigenvalues --  -18.93319 -18.93068 -14.30727 -10.07028 -10.06352
  Beta  occ. eigenvalues --  -10.05420 -10.05364 -10.05144 -10.04989 -10.04791
  Beta  occ. eigenvalues --  -10.04091 -10.02551  -1.00685  -0.83809  -0.70186
  Beta  occ. eigenvalues --   -0.68178  -0.64585  -0.60567  -0.57888  -0.54270
  Beta  occ. eigenvalues --   -0.46893  -0.46166  -0.40069  -0.37641  -0.36019
  Beta  occ. eigenvalues --   -0.34233  -0.32931  -0.32382  -0.31641  -0.30910
  Beta  occ. eigenvalues --   -0.30602  -0.29944  -0.28284  -0.26493  -0.26334
  Beta  occ. eigenvalues --   -0.24800  -0.21185  -0.19097  -0.14435  -0.11696
  Beta  occ. eigenvalues --   -0.10700  -0.09897  -0.09291  -0.08682
  Beta virt. eigenvalues --    0.07310   0.08706   0.09228   0.09731   0.10524
  Beta virt. eigenvalues --    0.10909   0.11179   0.11709   0.12079   0.12957
  Beta virt. eigenvalues --    0.13346   0.14444   0.14768   0.15718   0.16541

 Mulliken charges and spin densities:
               1          2
     1  C   -0.663282  -0.004136
     2  C   -0.389913   0.075137
     3  C    0.351328  -0.000227
     4  C   -0.660425  -0.003679
     5  C    0.024731   0.051906
     6  C    0.315092  -0.026005
     7  C   -0.617240  -0.048214
     8  C    0.640823   0.307043
     9  C   -0.723739  -0.056435
    10  N   -0.206503   0.216043
    11  O   -0.201178   0.181963
    12  O   -0.185451   0.163976
    13  H    0.124275  -0.000551
    14  H    0.114949   0.002991
    15  H    0.120426   0.003723
    16  H    0.134130  -0.004259
    17  H    0.197522   0.003727
    18  H    0.057333  -0.001020
    19  H    0.150960  -0.001900
    20  H    0.146714   0.025993
    21  H    0.112444   0.025813
    22  H    0.059773   0.059765
    23  H    0.097230   0.028345
 Sum of Mulliken charges =  -1.00000   1.00000

 Dipole moment (field-independent basis, Debye):
    X=              5.3771    Y=             -5.0915    Z=              0.8401  Tot=              7.4527
 Quadrupole moment (field-independent basis, Debye-Ang):
   XX=           -106.6530   YY=            -93.8665   ZZ=            -78.1209
   XY=              7.7698   XZ=             -5.2120   YZ=              3.9220

 Summary of Natural Population Analysis:

                                       Natural Population
                Natural  -----------------------------------------------
    Atom  No    Charge         Core      Valence    Rydberg      Total
 -----------------------------------------------------------------------
      C    1   -0.30317      0.99966     2.29873    0.00478     3.30317
      C    2   -0.07943      0.99957     2.07084    0.00902     3.07943
      C    3   -0.10737      0.99951     2.09830    0.00956     3.10737
      C    4   -0.11473      0.99951     2.10570    0.00952     3.11473
      C    5   -0.05596      0.99955     2.04711    0.00930     3.05596
      C    6   -0.21842      0.99958     2.21015    0.00870     3.21842
      C    7   -0.01468      0.99933     2.00237    0.01298     3.01468
      C    8    0.15365      0.99946     1.83854    0.00835     2.84635
      C    9   -0.25721      0.99953     2.25213    0.00555     3.25721
      N   10    0.31323      0.99973     2.15962    0.02742     3.18677
      O   11   -0.19629      0.99990     3.18789    0.00850     4.19629
      O   12   -0.20047      0.99990     3.19247    0.00810     4.20047
      H   13    0.09803      0.00000     0.40109    0.00088     0.40197
      H   14    0.09602      0.00000     0.40286    0.00112     0.40398
      H   15    0.09810      0.00000     0.40082    0.00107     0.40190
      H   16    0.08538      0.00000     0.41356    0.00106     0.41462
      H   17    0.10884      0.00000     0.38975    0.00141     0.39116
      H   18    0.08753      0.00000     0.41084    0.00163     0.41247
      H   19    0.08835      0.00000     0.41060    0.00105     0.41165
      H   20    0.10257      0.00000     0.39578    0.00165     0.39743
      H   21    0.11232      0.00000     0.38573    0.00195     0.38768
      H   22    0.10228      0.00000     0.39605    0.00167     0.39772
      H   23    0.10145      0.00000     0.39698    0.00157     0.39855
 =======================================================================
   * Total *   -0.00000     11.99524    31.86791    0.13686    44.00000

 Normal termination of Gaussian 16 at Wed Dec  9 17:24:07 2020.
