 Gaussian 16, Revision A.03,

 -----------------------------------------------------------
 # opt freq B3LYP/6-31G(d) empiricaldispersion=gd3bj scf=xqc
 -----------------------------------------------------------

 ------------------------------
 CID_124014371_JID_710_neutraal
 ------------------------------
 Symbolic Z-matrix:
 Charge =  0 Multiplicity = 1

 SCF Done:  E(RB3LYP) =  -420.340878319     A.U. after   14 cycles
 SCF Done:  E(RB3LYP) =  -420.345965595     A.U. after   13 cycles
 SCF Done:  E(RB3LYP) =  -420.347185558     A.U. after   12 cycles
 SCF Done:  E(RB3LYP) =  -420.347698987     A.U. after   13 cycles
 SCF Done:  E(RB3LYP) =  -420.347781963     A.U. after   12 cycles
 SCF Done:  E(RB3LYP) =  -420.347848857     A.U. after   11 cycles
 SCF Done:  E(RB3LYP) =  -420.347886196     A.U. after   12 cycles
 SCF Done:  E(RB3LYP) =  -420.347891532     A.U. after   10 cycles
 SCF Done:  E(RB3LYP) =  -420.347893040     A.U. after    8 cycles
 Optimization completed.
    -- Stationary point found.

 1\1\GINC-NODE204\FOpt\RB3LYP\6-31G(d)\C8H10N2\VSC10255\08-Dec-2020\0\\
 # opt freq B3LYP/6-31G(d) empiricaldispersion=gd3bj scf=xqc\\CID_12401
 4371_JID_710_neutraal\\0,1\C,1.1475811734,0.1411220664,0.11790439\C,0.
 3922772706,0.0023430503,1.4248632108\N,-0.7372889002,0.5631342156,1.66
 11910712\C,0.976144067,-0.8437232743,2.5006174767\C,2.216343297,-1.406
 8688365,2.3612550905\C,2.9117861046,-2.1921343276,3.3516760582\C,2.294
 0846258,-2.9429231253,4.2885835513\C,0.8001992706,-3.0782489893,4.2999
 214509\N,0.2022277188,-1.7882672255,4.6696483311\C,0.2541182484,-0.862

 Normal termination of Gaussian 16 at Tue Dec  8 12:24:53 2020.

 --------------------------------------------------------------------
 #N Geom=AllCheck Guess=TCheck SCRF=Check GenChk RB3LYP/6-31G(d) Freq
 --------------------------------------------------------------------

 Structure from the checkpoint file:  "JID_710.chk"
 ------------------------------
 CID_124014371_JID_710_neutraal
 ------------------------------
 Charge =  0 Multiplicity = 1

 SCF Done:  E(RB3LYP) =  -420.347893040     A.U. after    1 cycles

  Exact polarizability: 135.680  -9.995  99.023  -2.891  -1.710  52.229
 Approx polarizability: 208.851 -24.057 178.085  -8.267  -1.632  79.228

                      1                      2                      3
                      A                      A                      A
 Frequencies --     51.6346               117.7426               202.3339
 Red. masses --      4.0627                 3.4393                 1.1017
 Frc consts  --      0.0064                 0.0281                 0.0266
 IR Inten    --      1.0946                 0.5114                 0.1593

                      4                      5                      6
                      A                      A                      A
 Frequencies --    216.5736               261.8871               309.0055
 Red. masses --      3.0302                 2.5575                 4.9703
 Frc consts  --      0.0837                 0.1033                 0.2796
 IR Inten    --      3.2191                 1.0335                 0.7874

                      7                      8                      9
                      A                      A                      A
 Frequencies --    355.7318               402.8731               440.6812
 Red. masses --      4.4495                 3.0774                 3.9572
 Frc consts  --      0.3317                 0.2943                 0.4528
 IR Inten    --      0.9779                 0.9887                 0.4417

                     10                     11                     12
                      A                      A                      A
 Frequencies --    474.6385               508.9773               578.5581
 Red. masses --      2.8060                 4.6906                 3.1216
 Frc consts  --      0.3725                 0.7159                 0.6156
 IR Inten    --      2.6777                17.7249                 4.2460

                     13                     14                     15
                      A                      A                      A
 Frequencies --    633.2641               659.0304               725.7509
 Red. masses --      3.2186                 2.5775                 1.8850
 Frc consts  --      0.7605                 0.6596                 0.5850
 IR Inten    --     16.9094                16.3704                19.0534

                     16                     17                     18
                      A                      A                      A
 Frequencies --    764.0841               871.9403               914.1660
 Red. masses --      1.8644                 1.3081                 2.2351
 Frc consts  --      0.6413                 0.5860                 1.1005
 IR Inten    --     24.1208                20.9748                 2.9601

                     19                     20                     21
                      A                      A                      A
 Frequencies --    941.8448               947.9298               963.4280
 Red. masses --      3.4786                 1.5190                 2.3565
 Frc consts  --      1.8181                 0.8042                 1.2887
 IR Inten    --     12.6180                28.8912                13.7285

                     22                     23                     24
                      A                      A                      A
 Frequencies --    968.4307               990.6642               994.4844
 Red. masses --      2.1927                 1.5735                 2.7974
 Frc consts  --      1.2116                 0.9098                 1.6301
 IR Inten    --      6.1283                 4.7458                10.8486

                     25                     26                     27
                      A                      A                      A
 Frequencies --   1054.0319              1083.7651              1086.3467
 Red. masses --      1.8106                 1.9341                 1.6017
 Frc consts  --      1.1852                 1.3385                 1.1137
 IR Inten    --      7.9327                 4.1053                 9.7856

                     28                     29                     30
                      A                      A                      A
 Frequencies --   1120.2721              1177.9846              1240.4955
 Red. masses --      1.8541                 1.7682                 1.1914
 Frc consts  --      1.3710                 1.4456                 1.0802
 IR Inten    --      1.3697                87.1356                 5.4309

                     31                     32                     33
                      A                      A                      A
 Frequencies --   1277.9127              1364.0625              1378.8844
 Red. masses --      1.1078                 1.3133                 1.4245
 Frc consts  --      1.0659                 1.4397                 1.5958
 IR Inten    --      0.3695                 3.3457                10.2061

                     34                     35                     36
                      A                      A                      A
 Frequencies --   1398.0521              1421.0954              1439.3846
 Red. masses --      1.3273                 1.3562                 1.6257
 Frc consts  --      1.5285                 1.6137                 1.9845
 IR Inten    --     21.5508                 3.2232                17.7036

                     37                     38                     39
                      A                      A                      A
 Frequencies --   1456.3307              1507.4064              1519.6953
 Red. masses --      1.9757                 1.0461                 1.0830
 Frc consts  --      2.4689                 1.4005                 1.4736
 IR Inten    --     34.4143                 8.3936                15.9391

                     40                     41                     42
                      A                      A                      A
 Frequencies --   1526.1159              1600.4146              1681.2563
 Red. masses --      1.0994                 7.3381                 5.4900
 Frc consts  --      1.5086                11.0738                 9.1431
 IR Inten    --      5.4703                 7.8583                27.3906

                     43                     44                     45
                      A                      A                      A
 Frequencies --   1699.8589              1706.2243              2994.1653
 Red. masses --      7.2708                 7.5652                 1.0705
 Frc consts  --     12.3783                12.9760                 5.6544
 IR Inten    --     49.1044                36.9484                39.3767

                     46                     47                     48
                      A                      A                      A
 Frequencies --   3051.6092              3113.2337              3114.9707
 Red. masses --      1.0366                 1.1005                 1.0925
 Frc consts  --      5.6875                 6.2844                 6.2458
 IR Inten    --      6.2096                11.2823                38.9418

                     49                     50                     51
                      A                      A                      A
 Frequencies --   3137.1714              3165.7752              3166.5497
 Red. masses --      1.1026                 1.0849                 1.0874
 Frc consts  --      6.3938                 6.4060                 6.4238
 IR Inten    --     20.7659                 4.4443                 6.4877

                     52                     53                     54
                      A                      A                      A
 Frequencies --   3184.6048              3196.0707              3430.2017
 Red. masses --      1.0878                 1.0958                 1.0749
 Frc consts  --      6.4998                 6.5949                 7.4517
 IR Inten    --     19.5282                26.5511                 5.3787

 - Thermochemistry -
 -------------------
 Temperature   298.150 Kelvin.  Pressure   1.00000 Atm.
 Atom     1 has atomic number  6 and mass  12.00000

 Molecular mass:   134.08440 amu.
 Principal axes and moments of inertia in atomic units:
                           1         2         3
     Eigenvalues --   677.952631805.281952344.25551
           X            0.99989   0.01451  -0.00135
           Y           -0.01452   0.99988  -0.00568
           Z            0.00127   0.00570   0.99998
 This molecule is an asymmetric top.
 Rotational symmetry number  1.
 Warning -- assumption of classical behavior for rotation
           may cause significant error
 Rotational temperatures (Kelvin)      0.12776     0.04798     0.03695
 Rotational constants (GHZ):           2.66205     0.99970     0.76986
 Zero-point vibrational energy     440163.5 (Joules/Mol)
                                  105.20161 (Kcal/Mol)
 Warning -- explicit consideration of  12 degrees of freedom as
           vibrations may cause significant error
 Vibrational temperatures:     74.29   169.41   291.11   311.60   376.80
          (Kelvin)            444.59   511.82   579.64   634.04   682.90
                              732.30   832.42   911.13   948.20  1044.19
                             1099.35  1254.53  1315.28  1355.10  1363.86
                             1386.16  1393.36  1425.34  1430.84  1516.52
                             1559.30  1563.01  1611.82  1694.86  1784.80
                             1838.63  1962.58  1983.91  2011.49  2044.64
                             2070.95  2095.34  2168.82  2186.50  2195.74
                             2302.64  2418.95  2445.72  2454.88  4307.94
                             4390.58  4479.25  4481.75  4513.69  4554.84
                             4555.96  4581.94  4598.43  4935.30

 Zero-point correction=                           0.167649 (Hartree/Particle)
 Thermal correction to Energy=                    0.176597
 Thermal correction to Enthalpy=                  0.177541
 Thermal correction to Gibbs Free Energy=         0.133572
 Sum of electronic and zero-point Energies=           -420.180244
 Sum of electronic and thermal Energies=              -420.171296
 Sum of electronic and thermal Enthalpies=            -420.170352
 Sum of electronic and thermal Free Energies=         -420.214321

                     E (Thermal)             CV                S
                      KCal/Mol        Cal/Mol-Kelvin    Cal/Mol-Kelvin
 Total                  110.816             34.542             92.541
 Electronic               0.000              0.000              0.000
 Translational            0.889              2.981             40.592
 Rotational               0.889              2.981             29.441
 Vibrational            109.039             28.581             22.508
 Vibration     1          0.596              1.977              4.754
 Vibration     2          0.608              1.935              3.137
 Vibration     3          0.639              1.837              2.112
 Vibration     4          0.645              1.816              1.988
 Vibration     5          0.669              1.743              1.649
 Vibration     6          0.698              1.657              1.368
 Vibration     7          0.731              1.563              1.141
 Vibration     8          0.768              1.464              0.952
 Vibration     9          0.801              1.381              0.824
 Vibration    10          0.831              1.306              0.725
 Vibration    11          0.864              1.230              0.636
 Vibration    12          0.935              1.078              0.488

                           ! Non-Optimized Parameters !

 1\1\GINC-NODE204\Freq\RB3LYP\6-31G(d)\C8H10N2\VSC10255\08-Dec-2020\0\\
 #N Geom=AllCheck Guess=TCheck SCRF=Check GenChk RB3LYP/6-31G(d) Freq\\
 CID_124014371_JID_710_neutraal\\0,1\C,1.1475811734,0.1411220664,0.1179
 0439\C,0.3922772706,0.0023430503,1.4248632108\N,-0.7372889002,0.563134
 2156,1.6611910712\C,0.976144067,-0.8437232743,2.5006174767\C,2.2163432
 97,-1.4068688365,2.3612550905\C,2.9117861046,-2.1921343276,3.351676058
 2\C,2.2940846258,-2.9429231253,4.2885835513\C,0.8001992706,-3.07824898
 93,4.2999214509\N,0.2022277188,-1.7882672255,4.6696483311\C,0.25411824

 Normal termination of Gaussian 16 at Tue Dec  8 12:28:32 2020.

 ----------------------------------------------------------------------
 # B3LYP/6-311++G(d,p) empiricaldispersion=gd3bj scf=xqc pop=npa geom=c
 heck
 ----------------------------------------------------------------------

 --------------------------------------
 CID_124014371_JID_710_Energie_neutraal
 --------------------------------------
 Structure from the checkpoint file:  "JID_710.chk"
 Charge =  0 Multiplicity = 1

 SCF Done:  E(RB3LYP) =  -420.464401332     A.U. after   15 cycles
 Normal termination of Gaussian 16 at Tue Dec  8 12:30:56 2020.

 ----------------------------------------------------------------------
 # B3LYP/6-311++G(d,p) empiricaldispersion=gd3bj scf=xqc pop=npa geom=c
 heck
 ----------------------------------------------------------------------

 ------------------------------------
 CID_124014371_JID_710_Energie_kation
 ------------------------------------
 Structure from the checkpoint file:  "JID_710.chk"
 Charge =  1 Multiplicity = 2

 SCF Done:  E(UB3LYP) =  -420.155969523     A.U. after   25 cycles
 Normal termination of Gaussian 16 at Tue Dec  8 12:40:05 2020.
 Gaussian 16:  ES64L-G16RevA.03 25-Dec-2016

 -----------------------------------
 CID_124014371_JID_710_Energie_anion
 -----------------------------------
 Structure from the checkpoint file:  "JID_710.chk"
 Charge = -1 Multiplicity = 2

                         Standard orientation:
 ---------------------------------------------------------------------
 Center     Atomic      Atomic             Coordinates (Angstroms)
 Number     Number       Type             X           Y           Z
 ---------------------------------------------------------------------
      1          6           0        2.761712    1.092198    0.287654
      2          6           0        1.927896   -0.148694    0.037009
      3          7           0        2.413892   -1.333757   -0.038417
      4          6           0        0.455426   -0.000368   -0.117282
      5          6           0       -0.131612    1.236445   -0.135451
      6          6           0       -1.533210    1.511511   -0.338130
      7          6           0       -2.525573    0.662416    0.004340
      8          6           0       -2.223464   -0.621328    0.719088
      9          7           0       -1.510626   -1.525024   -0.193883
     10          6           0       -0.294538   -1.221334   -0.460143
     11          1           0        3.808758    0.818494    0.444330
     12          1           0        2.412027    1.636280    1.172303
     13          1           0        2.712099    1.782745   -0.562406
     14          1           0        3.430498   -1.312217    0.088545
     15          1           0        0.514275    2.109042   -0.075377
     16          1           0       -1.782703    2.474729   -0.779094
     17          1           0       -3.556864    0.905052   -0.240157
     18          1           0       -1.605433   -0.410992    1.606965
     19          1           0       -3.140207   -1.117066    1.047479
     20          1           0        0.264868   -1.939673   -1.058990
 ---------------------------------------------------------------------

 SCF Done:  E(UB3LYP) =  -420.481309425     A.U. after   23 cycles

 The electronic state is 2-A.
 Alpha  occ. eigenvalues --  -14.13176 -14.11878 -10.05290 -10.04036 -10.03629
 Alpha  occ. eigenvalues --  -10.03530 -10.00972 -10.00129 -10.00074 -10.00038
 Alpha  occ. eigenvalues --   -0.75901  -0.74231  -0.64385  -0.61251  -0.58532
 Alpha  occ. eigenvalues --   -0.52131  -0.48800  -0.41356  -0.38440  -0.35843
 Alpha  occ. eigenvalues --   -0.33045  -0.31495  -0.30360  -0.29592  -0.28346
 Alpha  occ. eigenvalues --   -0.26291  -0.25018  -0.23075  -0.21636  -0.19400
 Alpha  occ. eigenvalues --   -0.17860  -0.14881  -0.13159  -0.11129  -0.09096
 Alpha  occ. eigenvalues --   -0.06984   0.04599
 Alpha virt. eigenvalues --    0.08850   0.10178   0.10973   0.11913   0.12580
 Alpha virt. eigenvalues --    0.12678   0.13819   0.14462   0.14822   0.15057
 Alpha virt. eigenvalues --    0.16207   0.16639   0.17397   0.18881   0.19396

  Beta  occ. eigenvalues --  -14.12950 -14.11494 -10.05198 -10.04046 -10.03665
  Beta  occ. eigenvalues --  -10.03583 -10.01081  -9.99857  -9.99729  -9.99597
  Beta  occ. eigenvalues --   -0.75511  -0.73680  -0.63773  -0.60682  -0.58370
  Beta  occ. eigenvalues --   -0.51951  -0.47933  -0.41011  -0.38082  -0.35547
  Beta  occ. eigenvalues --   -0.32784  -0.31199  -0.30178  -0.29389  -0.28080
  Beta  occ. eigenvalues --   -0.26094  -0.24854  -0.22817  -0.21168  -0.19174
  Beta  occ. eigenvalues --   -0.16739  -0.13473  -0.12366  -0.10484  -0.07983
  Beta  occ. eigenvalues --   -0.05531
  Beta virt. eigenvalues --    0.08796   0.10114   0.10786   0.10964   0.11910
  Beta virt. eigenvalues --    0.12641   0.12856   0.13786   0.14596   0.14883
  Beta virt. eigenvalues --    0.15558   0.16381   0.17362   0.17542   0.19184

 Mulliken charges and spin densities:
               1          2
     1  C   -0.500386  -0.020644
     2  C   -0.821151   0.018019
     3  N   -0.319483   0.219179
     4  C    2.029409   0.059129
     5  C   -0.851023   0.317169
     6  C   -0.376011   0.004284
     7  C   -0.128726   0.316889
     8  C   -0.658622   0.011508
     9  N   -0.017143   0.083784
    10  C   -0.527606  -0.026167
    11  H    0.103810  -0.001348
    12  H    0.125516   0.012717
    13  H    0.117417   0.023850
    14  H    0.154459  -0.005641
    15  H    0.093079  -0.021667
    16  H    0.102764   0.016119
    17  H    0.089192  -0.028011
    18  H    0.089986   0.000253
    19  H    0.124479   0.003569
    20  H    0.170042   0.017007
 Sum of Mulliken charges =  -1.00000   1.00000

 Dipole moment (field-independent basis, Debye):
    X=              1.6352    Y=              3.3246    Z=              0.8789  Tot=              3.8078
 Quadrupole moment (field-independent basis, Debye-Ang):
   XX=            -81.4743   YY=            -81.0164   ZZ=            -69.1993
   XY=              2.8997   XZ=             -0.5232   YZ=             -2.0637

 Summary of Natural Population Analysis:

                                       Natural Population
                Natural  -----------------------------------------------
    Atom  No    Charge         Core      Valence    Rydberg      Total
 -----------------------------------------------------------------------
      C    1   -0.31556      0.99963     2.31129    0.00464     3.31556
      C    2    0.14003      0.99963     1.84570    0.01464     2.85997
      N    3   -0.28166      0.99971     2.77322    0.00873     3.78166
      C    4   -0.05739      0.99943     2.04463    0.01333     3.05739
      C    5   -0.01448      0.99952     2.00665    0.00831     3.01448
      C    6   -0.15210      0.99954     2.14226    0.01030     3.15210
      C    7    0.01566      0.99955     1.97409    0.01070     2.98434
      C    8   -0.13052      0.99960     2.11896    0.01196     3.13052
      N    9   -0.20892      0.99970     2.69543    0.01379     3.70892
      C   10    0.04858      0.99960     1.93614    0.01568     2.95142
      H   11    0.09172      0.00000     0.40678    0.00151     0.40828
      H   12    0.10240      0.00000     0.39629    0.00131     0.39760
      H   13    0.10165      0.00000     0.39713    0.00122     0.39835
      H   14    0.14229      0.00000     0.35542    0.00229     0.35771
      H   15    0.08321      0.00000     0.41520    0.00159     0.41679
      H   16    0.08940      0.00000     0.40893    0.00166     0.41060
      H   17    0.07887      0.00000     0.41991    0.00122     0.42113
      H   18    0.08852      0.00000     0.40926    0.00222     0.41148
      H   19    0.08438      0.00000     0.41415    0.00148     0.41562
      H   20    0.09394      0.00000     0.40436    0.00170     0.40606
 =======================================================================
   * Total *    0.00000      9.99592    25.87581    0.12827    36.00000

 Normal termination of Gaussian 16 at Tue Dec  8 12:49:38 2020.
