 Gaussian 16, Revision A.03,

 -----------------------------------------------------------
 # opt freq B3LYP/6-31G(d) empiricaldispersion=gd3bj scf=xqc
 -----------------------------------------------------------

 -------------------------------
 CID_130914123_JID_2159_neutraal
 -------------------------------
 Symbolic Z-matrix:
 Charge =  0 Multiplicity = 1

 SCF Done:  E(RB3LYP) =  -501.345205025     A.U. after   13 cycles
 SCF Done:  E(RB3LYP) =  -501.364558276     A.U. after   12 cycles
 SCF Done:  E(RB3LYP) =  -501.366826948     A.U. after   13 cycles
 SCF Done:  E(RB3LYP) =  -501.365937635     A.U. after   12 cycles
 SCF Done:  E(RB3LYP) =  -501.367181871     A.U. after   12 cycles
 SCF Done:  E(RB3LYP) =  -501.367021486     A.U. after   12 cycles
 SCF Done:  E(RB3LYP) =  -501.366914277     A.U. after   12 cycles
 SCF Done:  E(RB3LYP) =  -501.366562191     A.U. after   10 cycles
 SCF Done:  E(RB3LYP) =  -501.367325862     A.U. after    8 cycles
 SCF Done:  E(RB3LYP) =  -501.367664052     A.U. after   11 cycles
 SCF Done:  E(RB3LYP) =  -501.367788701     A.U. after    7 cycles
 SCF Done:  E(RB3LYP) =  -501.367788806     A.U. after    8 cycles
 SCF Done:  E(RB3LYP) =  -501.367788864     A.U. after    8 cycles
 SCF Done:  E(RB3LYP) =  -501.367788893     A.U. after    7 cycles
 SCF Done:  E(RB3LYP) =  -501.367788905     A.U. after    7 cycles
 Optimization completed.
    -- Stationary point found.
 Normal termination of Gaussian 16 at Wed Dec  9 16:55:58 2020.

 --------------------------------------------------------------------
 #N Geom=AllCheck Guess=TCheck SCRF=Check GenChk RB3LYP/6-31G(d) Freq
 --------------------------------------------------------------------

 Structure from the checkpoint file:  "JID_2159.chk"
 -------------------------------
 CID_130914123_JID_2159_neutraal
 -------------------------------
 Charge =  0 Multiplicity = 1

 SCF Done:  E(RB3LYP) =  -501.367788905     A.U. after    1 cycles

  Exact polarizability: 139.919  10.843 113.651   3.126   3.034  87.559
 Approx polarizability: 173.040  23.319 160.997   4.740   4.588 138.569

                      1                      2                      3
                      A                      A                      A
 Frequencies --     15.8990                48.8695                84.7208
 Red. masses --      3.6696                 3.0829                 2.6683
 Frc consts  --      0.0005                 0.0043                 0.0113
 IR Inten    --      0.3444                 0.2398                 0.1394

                      4                      5                      6
                      A                      A                      A
 Frequencies --     98.5634               147.3832               166.3417
 Red. masses --      3.2387                 3.5631                 2.9618
 Frc consts  --      0.0185                 0.0456                 0.0483
 IR Inten    --      0.4182                 0.2481                 0.7298

                      7                      8                      9
                      A                      A                      A
 Frequencies --    215.6184               226.3746               246.0153
 Red. masses --      1.8143                 1.4415                 1.6361
 Frc consts  --      0.0497                 0.0435                 0.0583
 IR Inten    --      0.2439                 0.5868                 2.9629

                     10                     11                     12
                      A                      A                      A
 Frequencies --    267.9121               288.7000               312.3225
 Red. masses --      1.4987                 2.2371                 3.0021
 Frc consts  --      0.0634                 0.1099                 0.1725
 IR Inten    --      0.1822                 0.2713                 0.1617

                     13                     14                     15
                      A                      A                      A
 Frequencies --    325.6773               413.5625               463.3363
 Red. masses --      2.6774                 2.5030                 3.4263
 Frc consts  --      0.1673                 0.2522                 0.4334
 IR Inten    --      0.2265                 0.4473                 2.5408

                     16                     17                     18
                      A                      A                      A
 Frequencies --    500.9971               567.2349               576.1826
 Red. masses --      2.9684                 3.2682                 2.7709
 Frc consts  --      0.4390                 0.6196                 0.5420
 IR Inten    --      7.6264                 2.0511                11.8148

                     19                     20                     21
                      A                      A                      A
 Frequencies --    596.6315               608.7339               626.5679
 Red. masses --      2.1664                 1.2143                 1.2142
 Frc consts  --      0.4544                 0.2651                 0.2809
 IR Inten    --      1.3331                47.5730                44.3421

                     22                     23                     24
                      A                      A                      A
 Frequencies --    655.4258               751.8065               815.5213
 Red. masses --      2.6243                 2.3549                 1.9889
 Frc consts  --      0.6642                 0.7842                 0.7794
 IR Inten    --     30.9176                60.6116                28.6769

                     25                     26                     27
                      A                      A                      A
 Frequencies --    853.2724               867.1071               902.0688
 Red. masses --      2.1865                 1.8293                 2.0522
 Frc consts  --      0.9380                 0.8104                 0.9839
 IR Inten    --      6.6721                11.7442                27.4776

                     28                     29                     30
                      A                      A                      A
 Frequencies --    904.2091               922.8875               935.8317
 Red. masses --      1.4490                 1.7255                 2.5527
 Frc consts  --      0.6980                 0.8659                 1.3172
 IR Inten    --     34.0299                 3.4144                 2.5870

                     31                     32                     33
                      A                      A                      A
 Frequencies --    964.0992               979.8823              1008.2438
 Red. masses --      1.9874                 1.7239                 2.1394
 Frc consts  --      1.0884                 0.9752                 1.2814
 IR Inten    --      2.7428                 9.4681                 1.8515

                     34                     35                     36
                      A                      A                      A
 Frequencies --   1043.8274              1075.4706              1093.0663
 Red. masses --      1.4198                 2.5908                 1.8190
 Frc consts  --      0.9114                 1.7656                 1.2805
 IR Inten    --      0.1843                 5.6487                 7.4019

                     37                     38                     39
                      A                      A                      A
 Frequencies --   1110.7560              1118.5747              1153.3904
 Red. masses --      1.9100                 2.0073                 2.5996
 Frc consts  --      1.3884                 1.4798                 2.0375
 IR Inten    --     29.3557                 5.2832                60.8408

                     40                     41                     42
                      A                      A                      A
 Frequencies --   1157.5796              1180.5994              1194.4757
 Red. masses --      2.3581                 2.4432                 1.9828
 Frc consts  --      1.8617                 2.0064                 1.6668
 IR Inten    --     20.5021                45.9823                16.8409

                     43                     44                     45
                      A                      A                      A
 Frequencies --   1217.8349              1229.6718              1261.9468
 Red. masses --      1.4794                 1.5789                 1.3285
 Frc consts  --      1.2927                 1.4067                 1.2465
 IR Inten    --      1.2366                10.5711                 2.3847

                     46                     47                     48
                      A                      A                      A
 Frequencies --   1304.4053              1311.6037              1336.7802
 Red. masses --      1.2639                 1.1983                 1.3367
 Frc consts  --      1.2670                 1.2145                 1.4074
 IR Inten    --      9.9038                28.7637                 5.4600

                     49                     50                     51
                      A                      A                      A
 Frequencies --   1339.2418              1343.9619              1360.3255
 Red. masses --      1.3275                 1.3426                 1.2891
 Frc consts  --      1.4028                 1.4288                 1.4055
 IR Inten    --     10.1084                 3.5001                 6.9189

                     52                     53                     54
                      A                      A                      A
 Frequencies --   1390.6485              1392.3214              1414.1773
 Red. masses --      1.3725                 1.3345                 1.2446
 Frc consts  --      1.5639                 1.5242                 1.4665
 IR Inten    --     16.3699                 2.2397                 7.2986

                     55                     56                     57
                      A                      A                      A
 Frequencies --   1430.2102              1439.7573              1463.5168
 Red. masses --      1.2341                 1.2405                 1.4153
 Frc consts  --      1.4873                 1.5151                 1.7860
 IR Inten    --      4.2900                 9.2373                33.0575

                     58                     59                     60
                      A                      A                      A
 Frequencies --   1502.0200              1515.5077              1518.5791
 Red. masses --      1.1478                 1.0914                 1.0511
 Frc consts  --      1.5257                 1.4769                 1.4282
 IR Inten    --     27.9838                 2.5326                 7.6549

                     61                     62                     63
                      A                      A                      A
 Frequencies --   1524.1548              1526.6091              1532.0770
 Red. masses --      1.0533                 1.0639                 1.0956
 Frc consts  --      1.4416                 1.4609                 1.5152
 IR Inten    --      0.6734                 3.1736                 3.2207

                     64                     65                     66
                      A                      A                      A
 Frequencies --   1536.2485              1555.7264              2224.7852
 Red. masses --      1.0966                 1.0994                 5.9600
 Frc consts  --      1.5248                 1.5677                17.3809
 IR Inten    --     17.0997                 2.3216                 0.1605

                     67                     68                     69
                      A                      A                      A
 Frequencies --   2928.8582              2985.8031              3027.6586
 Red. masses --      1.0744                 1.0839                 1.0839
 Frc consts  --      5.4301                 5.6932                 5.8539
 IR Inten    --     85.2017                38.0144                21.9615

                     70                     71                     72
                      A                      A                      A
 Frequencies --   3044.4504              3047.2938              3055.0301
 Red. masses --      1.0796                 1.0453                 1.0676
 Frc consts  --      5.8955                 5.7189                 5.8707
 IR Inten    --      9.9757                37.3909                28.0134

                     73                     74                     75
                      A                      A                      A
 Frequencies --   3060.7273              3067.1899              3080.1751
 Red. masses --      1.0344                 1.0675                 1.0811
 Frc consts  --      5.7095                 5.9172                 6.0434
 IR Inten    --     19.7403                16.5299                78.4684

                     76                     77                     78
                      A                      A                      A
 Frequencies --   3109.0355              3110.4989              3122.0064
 Red. masses --      1.0967                 1.0990                 1.1061
 Frc consts  --      6.2458                 6.2650                 6.3520
 IR Inten    --     42.2987                17.3656                54.2134

                     79                     80                     81
                      A                      A                      A
 Frequencies --   3132.6275              3146.7591              3151.9624
 Red. masses --      1.1026                 1.1043                 1.0989
 Frc consts  --      6.3750                 6.4428                 6.4321
 IR Inten    --     26.5048                24.4096                16.2856

                     82                     83                     84
                      A                      A                      A
 Frequencies --   3480.2013              3493.9376              3506.0902
 Red. masses --      1.0733                 1.1593                 1.0738
 Frc consts  --      7.6591                 8.3380                 7.7775
 IR Inten    --      0.1007                57.9923                20.8530

 - Thermochemistry -
 -------------------
 Temperature   298.150 Kelvin.  Pressure   1.00000 Atm.
 Atom     1 has atomic number  6 and mass  12.00000

 Molecular mass:   166.14700 amu.
 Principal axes and moments of inertia in atomic units:
                           1         2         3
     Eigenvalues --   970.513783699.992174413.47487
           X            0.99993  -0.01028   0.00606
           Y            0.01022   0.99990   0.00994
           Z           -0.00616  -0.00987   0.99993
 This molecule is an asymmetric top.
 Rotational symmetry number  1.
 Warning -- assumption of classical behavior for rotation
           may cause significant error
 Rotational temperatures (Kelvin)      0.08925     0.02341     0.01962
 Rotational constants (GHZ):           1.85957     0.48777     0.40892
 Zero-point vibrational energy     710032.5 (Joules/Mol)
                                  169.70183 (Kcal/Mol)
 Warning -- explicit consideration of  20 degrees of freedom as
           vibrations may cause significant error
 Vibrational temperatures:     22.88    70.31   121.89   141.81   212.05
          (Kelvin)            239.33   310.23   325.70   353.96   385.47
                              415.37   449.36   468.58   595.02   666.64
                              720.82   816.12   829.00   858.42   875.83
                              901.49   943.01  1081.68  1173.35  1227.67
                             1247.57  1297.88  1300.96  1327.83  1346.45
                             1387.12  1409.83  1450.64  1501.83  1547.36
                             1572.68  1598.13  1609.38  1659.47  1665.50
                             1698.62  1718.58  1752.19  1769.22  1815.66
                             1876.75  1887.11  1923.33  1926.87  1933.66
                             1957.21  2000.83  2003.24  2034.69  2057.75
                             2071.49  2105.67  2161.07  2180.48  2184.90
                             2192.92  2196.45  2204.32  2210.32  2238.34
                             3200.97  4213.97  4295.90  4356.13  4380.29
                             4384.38  4395.51  4403.70  4413.00  4431.69
                             4473.21  4475.31  4491.87  4507.15  4527.48
                             4534.97  5007.23  5027.00  5044.48

 Zero-point correction=                           0.270437 (Hartree/Particle)
 Thermal correction to Energy=                    0.283739
 Thermal correction to Enthalpy=                  0.284684
 Thermal correction to Gibbs Free Energy=         0.229718
 Sum of electronic and zero-point Energies=           -501.097352
 Sum of electronic and thermal Energies=              -501.084050
 Sum of electronic and thermal Enthalpies=            -501.083105
 Sum of electronic and thermal Free Energies=         -501.138071

                     E (Thermal)             CV                S
                      KCal/Mol        Cal/Mol-Kelvin    Cal/Mol-Kelvin
 Total                  178.049             50.281            115.685
 Electronic               0.000              0.000              0.000
 Translational            0.889              2.981             41.231
 Rotational               0.889              2.981             31.139
 Vibrational            176.272             44.319             43.315
 Vibration     1          0.593              1.986              7.090
 Vibration     2          0.595              1.978              4.863
 Vibration     3          0.601              1.960              3.778
 Vibration     4          0.604              1.950              3.483
 Vibration     5          0.617              1.906              2.706
 Vibration     6          0.624              1.884              2.476
 Vibration     7          0.645              1.817              1.996
 Vibration     8          0.650              1.801              1.908
 Vibration     9          0.660              1.769              1.759
 Vibration    10          0.673              1.732              1.610
 Vibration    11          0.685              1.695              1.482
 Vibration    12          0.701              1.650              1.350
 Vibration    13          0.710              1.624              1.281
 Vibration    14          0.777              1.441              0.914
 Vibration    15          0.821              1.331              0.756
 Vibration    16          0.856              1.248              0.656
 Vibration    17          0.923              1.102              0.510
 Vibration    18          0.933              1.083              0.492
 Vibration    19          0.954              1.039              0.455
 Vibration    20          0.968              1.013              0.435

                           ! Non-Optimized Parameters !
 Normal termination of Gaussian 16 at Wed Dec  9 17:02:52 2020.

 ----------------------------------------------------------------------
 # B3LYP/6-311++G(d,p) empiricaldispersion=gd3bj scf=xqc pop=npa geom=c
 heck
 ----------------------------------------------------------------------

 ---------------------------------------
 CID_130914123_JID_2159_Energie_neutraal
 ---------------------------------------
 Structure from the checkpoint file:  "JID_2159.chk"
 Charge =  0 Multiplicity = 1

 SCF Done:  E(RB3LYP) =  -501.515629184     A.U. after   14 cycles
 Normal termination of Gaussian 16 at Wed Dec  9 17:06:16 2020.

 ----------------------------------------------------------------------
 # B3LYP/6-311++G(d,p) empiricaldispersion=gd3bj scf=xqc pop=npa geom=c
 heck
 ----------------------------------------------------------------------

 -------------------------------------
 CID_130914123_JID_2159_Energie_kation
 -------------------------------------
 Structure from the checkpoint file:  "JID_2159.chk"
 Charge =  1 Multiplicity = 2

 SCF Done:  E(UB3LYP) =  -501.226109243     A.U. after   24 cycles
 Normal termination of Gaussian 16 at Wed Dec  9 17:14:07 2020.
 Gaussian 16:  ES64L-G16RevA.03 25-Dec-2016

 ----------------------------------------------------------------------
 # B3LYP/6-311++G(d,p) empiricaldispersion=gd3bj scf=xqc pop=npa geom=c
 heck
 ----------------------------------------------------------------------

 ------------------------------------
 CID_130914123_JID_2159_Energie_anion
 ------------------------------------
 Structure from the checkpoint file:  "JID_2159.chk"
 Charge = -1 Multiplicity = 2

                         Standard orientation:
 ---------------------------------------------------------------------
 Center     Atomic      Atomic             Coordinates (Angstroms)
 Number     Number       Type             X           Y           Z
 ---------------------------------------------------------------------
      1          6           0       -2.663885    2.063547   -0.041995
      2          6           0       -2.098288    0.690584    0.358464
      3          6           0       -3.157215   -0.334423    0.258593
      4          6           0       -4.043188   -1.145725    0.127419
      5          7           0       -0.895692    0.412922   -0.435284
      6          6           0        0.058373   -0.576063    0.089009
      7          6           0       -0.396539   -2.036600   -0.033380
      8          6           0        1.416399   -0.350894   -0.618051
      9          6           0        2.578022   -1.115045    0.076245
     10          6           0        3.653679   -0.042290    0.335418
     11          6           0        2.817490    1.233425    0.459344
     12          7           0        1.844523    1.056167   -0.618091
     13          1           0       -2.967792    2.055957   -1.094213
     14          1           0       -1.892677    2.827035    0.092422
     15          1           0       -3.540167    2.316752    0.562687
     16          1           0       -1.769698    0.746621    1.404636
     17          1           0       -4.813491   -1.874742    0.017990
     18          1           0       -1.166276    0.165310   -1.386838
     19          1           0        0.193510   -0.327981    1.151567
     20          1           0       -0.550959   -2.296334   -1.088762
     21          1           0        0.356669   -2.721583    0.371058
     22          1           0       -1.337571   -2.209257    0.493316
     23          1           0        1.298097   -0.687444   -1.660393
     24          1           0        2.233693   -1.532741    1.030101
     25          1           0        2.947339   -1.950937   -0.524435
     26          1           0        4.260404   -0.250734    1.222163
     27          1           0        4.322882    0.045309   -0.527089
     28          1           0        2.368711    1.290134    1.470123
     29          1           0        3.401758    2.148069    0.306466
     30          1           0        1.024662    1.653848   -0.533568
 ---------------------------------------------------------------------

 SCF Done:  E(UB3LYP) =  -501.499056202     A.U. after   33 cycles
 SCF Done:  E(UB3LYP) =  -501.499056202     a.u. after    1 cycles

 The electronic state is 2-A.
 Alpha  occ. eigenvalues --  -14.20765 -14.18355 -10.13096 -10.10055 -10.09405
 Alpha  occ. eigenvalues --  -10.08605 -10.07631 -10.06914 -10.06834 -10.06697
 Alpha  occ. eigenvalues --  -10.06645 -10.05744  -0.83138  -0.80455  -0.69760
 Alpha  occ. eigenvalues --   -0.66308  -0.65027  -0.62622  -0.60287  -0.54255
 Alpha  occ. eigenvalues --   -0.51755  -0.48271  -0.47451  -0.44376  -0.41256
 Alpha  occ. eigenvalues --   -0.39640  -0.38981  -0.37367  -0.34953  -0.32221
 Alpha  occ. eigenvalues --   -0.31582  -0.30823  -0.29695  -0.29493  -0.28324
 Alpha  occ. eigenvalues --   -0.27332  -0.26892  -0.26491  -0.24685  -0.24178
 Alpha  occ. eigenvalues --   -0.23632  -0.22560  -0.18831  -0.17715  -0.13928
 Alpha  occ. eigenvalues --   -0.11795   0.04520
 Alpha virt. eigenvalues --    0.06313   0.06974   0.07625   0.08048   0.09040
 Alpha virt. eigenvalues --    0.09397   0.09807   0.10502   0.10691   0.10926
 Alpha virt. eigenvalues --    0.11511   0.11974   0.12296   0.12961   0.13634

  Beta  occ. eigenvalues --  -14.20757 -14.18351 -10.13080 -10.10040 -10.09403
  Beta  occ. eigenvalues --  -10.08583 -10.07634 -10.06883 -10.06818 -10.06662
  Beta  occ. eigenvalues --  -10.06629 -10.05727  -0.83119  -0.80438  -0.69729
  Beta  occ. eigenvalues --   -0.66281  -0.64999  -0.62584  -0.60252  -0.54189
  Beta  occ. eigenvalues --   -0.51707  -0.48215  -0.47416  -0.44319  -0.41208
  Beta  occ. eigenvalues --   -0.39602  -0.38954  -0.37332  -0.34919  -0.32181
  Beta  occ. eigenvalues --   -0.31550  -0.30786  -0.29660  -0.29465  -0.28298
  Beta  occ. eigenvalues --   -0.27298  -0.26854  -0.26467  -0.24642  -0.24144
  Beta  occ. eigenvalues --   -0.23608  -0.22533  -0.18799  -0.17677  -0.13912
  Beta  occ. eigenvalues --   -0.11779
  Beta virt. eigenvalues --    0.06616   0.07290   0.07653   0.08131   0.08639
  Beta virt. eigenvalues --    0.09362   0.09739   0.10144   0.10857   0.10959
  Beta virt. eigenvalues --    0.11175   0.11731   0.12268   0.12535   0.13102

 Mulliken charges and spin densities:
               1          2
     1  C    1.485587  -1.990473
     2  C   -2.574889   2.193176
     3  C    3.429454  -2.903237
     4  C   -0.911166   0.474928
     5  N    0.197424  -0.027810
     6  C    0.258267  -1.049515
     7  C    0.622571  -1.163464
     8  C   -1.842486   2.229877
     9  C    0.331871  -0.857228
    10  C    0.006765  -0.462440
    11  C    0.511401  -0.761512
    12  N   -0.111198  -0.016061
    13  H   -0.061949   0.202172
    14  H   -0.244133   0.403466
    15  H   -0.159613   0.301854
    16  H   -0.278709   0.421336
    17  H   -1.280246   1.458529
    18  H    0.292531  -0.063766
    19  H   -0.030648   0.219093
    20  H    0.081739   0.047793
    21  H   -0.222283   0.366111
    22  H    0.082351   0.076937
    23  H   -0.053212   0.252265
    24  H   -0.104006   0.251590
    25  H   -0.066674   0.210705
    26  H   -0.331917   0.481054
    27  H    0.134105   0.004554
    28  H   -0.207218   0.329143
    29  H   -0.178364   0.337777
    30  H    0.224644   0.033144
 Sum of Mulliken charges =  -1.00000   1.00000

 Dipole moment (field-independent basis, Debye):
    X=              2.9501    Y=              0.4774    Z=             -3.0661  Tot=              4.2816
 Quadrupole moment (field-independent basis, Debye-Ang):
   XX=           -162.2600   YY=           -122.2906   ZZ=           -108.5470
   XY=             -8.1708   XZ=             -1.2994   YZ=              0.6863

 Summary of Natural Population Analysis:

                                       Natural Population
                Natural  -----------------------------------------------
    Atom  No    Charge         Core      Valence    Rydberg      Total
 -----------------------------------------------------------------------
      C    1   -0.27517      0.99965     2.26885    0.00666     3.27517
      C    2   -0.04907      0.99954     2.03647    0.01306     3.04907
      C    3   -0.01206      0.99936     2.00308    0.00962     3.01206
      C    4   -0.11608      0.99927     2.11268    0.00413     3.11608
      N    5   -0.34014      0.99973     2.82901    0.01139     3.84014
      C    6   -0.01242      0.99957     2.00089    0.01196     3.01242
      C    7   -0.29760      0.99964     2.29173    0.00623     3.29760
      C    8   -0.00686      0.99958     1.99408    0.01320     3.00686
      C    9   -0.19369      0.99962     2.18634    0.00773     3.19369
      C   10   -0.19320      0.99964     2.18535    0.00821     3.19320
      C   11   -0.08878      0.99964     2.07805    0.01109     3.08878
      N   12   -0.35062      0.99974     2.83974    0.01114     3.85062
      H   13    0.09773      0.00000     0.40127    0.00100     0.40227
      H   14    0.10401      0.00000     0.39465    0.00134     0.39599
      H   15    0.10247      0.00000     0.39645    0.00108     0.39753
      H   16    0.10832      0.00000     0.38899    0.00268     0.39168
      H   17    0.11242      0.00000     0.38493    0.00265     0.38758
      H   18    0.17403      0.00000     0.32352    0.00244     0.32597
      H   19    0.09121      0.00000     0.40597    0.00282     0.40879
      H   20    0.09495      0.00000     0.40396    0.00109     0.40505
      H   21    0.10132      0.00000     0.39767    0.00101     0.39868
      H   22    0.10938      0.00000     0.38948    0.00115     0.39062
      H   23    0.08652      0.00000     0.41192    0.00156     0.41348
      H   24    0.09845      0.00000     0.40001    0.00153     0.40155
      H   25    0.10088      0.00000     0.39821    0.00091     0.39912
      H   26    0.10004      0.00000     0.39881    0.00116     0.39996
      H   27    0.09475      0.00000     0.40405    0.00121     0.40525
      H   28    0.07910      0.00000     0.41896    0.00194     0.42090
      H   29    0.09220      0.00000     0.40662    0.00118     0.40780
      H   30    0.18791      0.00000     0.30900    0.00309     0.31209
 =======================================================================
   * Total *   -0.00000     11.99499    33.86075    0.14426    46.00000

 Normal termination of Gaussian 16 at Wed Dec  9 17:25:26 2020.
