 Gaussian 16, Revision A.03,

 -----------------------------------------------------------
 # opt freq B3LYP/6-31G(d) empiricaldispersion=gd3bj scf=xqc
 -----------------------------------------------------------

 ------------------------------
 CID_3061045_JID_10291_neutraal
 ------------------------------
 Symbolic Z-matrix:
 Charge =  0 Multiplicity = 1

 SCF Done:  E(RB3LYP) =  -1238.09535680     A.U. after   15 cycles
 SCF Done:  E(RB3LYP) =  -1238.10080688     A.U. after   12 cycles
 SCF Done:  E(RB3LYP) =  -1238.10177318     A.U. after   11 cycles
 SCF Done:  E(RB3LYP) =  -1238.10195335     A.U. after   11 cycles
 SCF Done:  E(RB3LYP) =  -1238.10222001     A.U. after   12 cycles
 SCF Done:  E(RB3LYP) =  -1238.10039420     A.U. after   14 cycles
 SCF Done:  E(RB3LYP) =  -1238.10297400     A.U. after   12 cycles
 SCF Done:  E(RB3LYP) =  -1238.10327533     A.U. after   12 cycles
 SCF Done:  E(RB3LYP) =  -1238.10341140     A.U. after   11 cycles
 SCF Done:  E(RB3LYP) =  -1238.10342711     A.U. after   10 cycles
 SCF Done:  E(RB3LYP) =  -1238.10348089     A.U. after   12 cycles
 SCF Done:  E(RB3LYP) =  -1238.10348307     A.U. after   11 cycles
 SCF Done:  E(RB3LYP) =  -1238.10348331     A.U. after    8 cycles
 SCF Done:  E(RB3LYP) =  -1238.10348332     A.U. after    7 cycles
 SCF Done:  E(RB3LYP) =  -1238.10348333     A.U. after    7 cycles
 Optimization completed.
    -- Stationary point found.
 Normal termination of Gaussian 16 at Mon Dec 14 14:04:41 2020.

 --------------------------------------------------------------------
 #N Geom=AllCheck Guess=TCheck SCRF=Check GenChk RB3LYP/6-31G(d) Freq
 --------------------------------------------------------------------

 Structure from the checkpoint file:  "JID_10291.chk"
 ------------------------------
 CID_3061045_JID_10291_neutraal
 ------------------------------
 Charge =  0 Multiplicity = 1

 SCF Done:  E(RB3LYP) =  -1238.10348333     A.U. after    1 cycles

  Exact polarizability: 315.838  -2.965 166.277  -0.314  -0.866 111.791
 Approx polarizability: 398.872  -2.772 314.717  -4.716  -2.563 176.466

                      1                      2                      3
                      A                      A                      A
 Frequencies --     16.7365                30.9568                59.3039
 Red. masses --      5.7355                 6.1334                 3.6683
 Frc consts  --      0.0009                 0.0035                 0.0076
 IR Inten    --      1.0070                 0.5391                 5.3093

                      4                      5                      6
                      A                      A                      A
 Frequencies --     63.0630                97.8844               127.4018
 Red. masses --      5.5895                 4.4895                 2.1146
 Frc consts  --      0.0131                 0.0253                 0.0202
 IR Inten    --      0.2060                 3.9953                26.6716

                      7                      8                      9
                      A                      A                      A
 Frequencies --    152.6909               178.4230               195.1477
 Red. masses --      2.4901                 6.7240                 8.5900
 Frc consts  --      0.0342                 0.1261                 0.1927
 IR Inten    --     11.2775                 0.6006                 0.7290

                     10                     11                     12
                      A                      A                      A
 Frequencies --    242.5212               272.1321               325.5167
 Red. masses --      4.0258                 3.7241                 5.8141
 Frc consts  --      0.1395                 0.1625                 0.3630
 IR Inten    --      7.8002                 4.0124                 0.1754

                     13                     14                     15
                      A                      A                      A
 Frequencies --    358.0578               368.3397               377.3948
 Red. masses --      4.7827                 3.7567                 4.7879
 Frc consts  --      0.3613                 0.3003                 0.4018
 IR Inten    --      6.4963                12.6078                16.1891

                     16                     17                     18
                      A                      A                      A
 Frequencies --    420.0700               441.6349               458.5234
 Red. masses --      3.1480                 5.1503                 3.7287
 Frc consts  --      0.3273                 0.5918                 0.4619
 IR Inten    --      1.2984                 2.7581                 6.1303

                     19                     20                     21
                      A                      A                      A
 Frequencies --    466.2790               483.7230               516.8334
 Red. masses --      3.5419                 4.3639                 4.3361
 Frc consts  --      0.4537                 0.6016                 0.6824
 IR Inten    --     13.1841                 1.2189                 4.5306

                     22                     23                     24
                      A                      A                      A
 Frequencies --    534.7904               556.3263               572.4908
 Red. masses --      2.8524                 3.1514                 4.8229
 Frc consts  --      0.4806                 0.5747                 0.9313
 IR Inten    --     14.2501                14.5876               115.5056

                     25                     26                     27
                      A                      A                      A
 Frequencies --    602.5726               647.5256               672.4975
 Red. masses --      4.1517                 6.8017                 2.9551
 Frc consts  --      0.8882                 1.6803                 0.7874
 IR Inten    --      2.9985                 1.3547                59.3450

                     28                     29                     30
                      A                      A                      A
 Frequencies --    689.3595               693.4081               703.0995
 Red. masses --      3.0802                 4.2822                 1.2930
 Frc consts  --      0.8624                 1.2131                 0.3766
 IR Inten    --    245.2196                 7.0908                16.2950

                     31                     32                     33
                      A                      A                      A
 Frequencies --    724.8722               740.8108               743.9581
 Red. masses --      4.0823                 6.0522                 2.2092
 Frc consts  --      1.2638                 1.9570                 0.7204
 IR Inten    --     16.8746                 2.3696                16.4592

                     34                     35                     36
                      A                      A                      A
 Frequencies --    771.5441               777.2411               837.0896
 Red. masses --      2.0421                 2.2541                 1.8346
 Frc consts  --      0.7162                 0.8023                 0.7574
 IR Inten    --     28.5755                17.2697                 7.1389

                     37                     38                     39
                      A                      A                      A
 Frequencies --    838.5900               850.8112               859.1361
 Red. masses --      2.0383                 1.6441                 2.5892
 Frc consts  --      0.8445                 0.7012                 1.1260
 IR Inten    --      2.4518                25.2268                19.1411

                     40                     41                     42
                      A                      A                      A
 Frequencies --    880.6978               887.6168               892.5261
 Red. masses --      2.4675                 2.0115                 2.3607
 Frc consts  --      1.1276                 0.9337                 1.1080
 IR Inten    --     21.6908               191.4870                 1.6651

                     43                     44                     45
                      A                      A                      A
 Frequencies --    924.2594               949.7971               960.3288
 Red. masses --      1.5614                 3.4814                 1.8052
 Frc consts  --      0.7859                 1.8504                 0.9809
 IR Inten    --      3.0412                 0.5890                 0.3833

                     46                     47                     48
                      A                      A                      A
 Frequencies --    965.6009               968.0270               974.9473
 Red. masses --      1.3650                 4.2443                 1.3333
 Frc consts  --      0.7499                 2.3433                 0.7467
 IR Inten    --      2.0899                27.5378                 4.0340

                     49                     50                     51
                      A                      A                      A
 Frequencies --   1031.6915              1041.5090              1050.8595
 Red. masses --      3.6180                 1.4706                 2.3324
 Frc consts  --      2.2689                 0.9399                 1.5175
 IR Inten    --     11.8844                 2.8514                68.0010

                     52                     53                     54
                      A                      A                      A
 Frequencies --   1065.2538              1096.9098              1112.5972
 Red. masses --      3.2379                 3.9016                 1.4133
 Frc consts  --      2.1648                 2.7659                 1.0308
 IR Inten    --      0.4730                59.2940                 5.3065

                     55                     56                     57
                      A                      A                      A
 Frequencies --   1120.4202              1149.1368              1151.3656
 Red. masses --      1.2184                 1.4204                 3.6730
 Frc consts  --      0.9011                 1.1051                 2.8688
 IR Inten    --      0.5137                34.2534               346.4337

                     58                     59                     60
                      A                      A                      A
 Frequencies --   1159.1947              1162.4515              1219.7428
 Red. masses --      1.2356                 1.4964                 1.2319
 Frc consts  --      0.9783                 1.1913                 1.0799
 IR Inten    --      1.9689                 1.9117                 4.1169

                     61                     62                     63
                      A                      A                      A
 Frequencies --   1234.3443              1244.5137              1249.6904
 Red. masses --      2.5519                 1.4336                 1.5232
 Frc consts  --      2.2908                 1.3082                 1.4016
 IR Inten    --     13.3303                 6.3911                 1.3126

                     64                     65                     66
                      A                      A                      A
 Frequencies --   1264.3490              1269.2034              1286.2074
 Red. masses --      1.5500                 3.2458                 1.3172
 Frc consts  --      1.4599                 3.0806                 1.2839
 IR Inten    --      2.0188                 2.2298                 0.3872

                     67                     68                     69
                      A                      A                      A
 Frequencies --   1298.4530              1339.7170              1344.7023
 Red. masses --      1.4557                 6.0857                 1.5347
 Frc consts  --      1.4460                 6.4356                 1.6350
 IR Inten    --      1.9979               139.7414                 9.6016

                     70                     71                     72
                      A                      A                      A
 Frequencies --   1348.5055              1370.8523              1372.3518
 Red. masses --      1.6251                 5.1826                 5.3905
 Frc consts  --      1.7412                 5.7383                 5.9815
 IR Inten    --     10.3713               151.0198               171.1991

                     73                     74                     75
                      A                      A                      A
 Frequencies --   1462.2935              1466.5799              1519.2602
 Red. masses --      3.1680                 3.2311                 1.1095
 Frc consts  --      3.9911                 4.0946                 1.5088
 IR Inten    --     90.5255                11.1199                 4.6748

                     76                     77                     78
                      A                      A                      A
 Frequencies --   1557.1967              1585.3567              1619.7554
 Red. masses --      2.7810                 5.9542                 1.1434
 Frc consts  --      3.9731                 8.8171                 1.7674
 IR Inten    --    257.1118                90.8304                29.0133

                     79                     80                     81
                      A                      A                      A
 Frequencies --   1629.0125              1653.5289              1660.7143
 Red. masses --      5.7206                 5.8040                 5.7527
 Frc consts  --      8.9442                 9.3498                 9.3479
 IR Inten    --      8.0127                61.5536               196.5374

                     82                     83                     84
                      A                      A                      A
 Frequencies --   1672.3335              3076.3219              3134.2203
 Red. masses --      7.9726                 1.0573                 1.1095
 Frc consts  --     13.1370                 5.8953                 6.4216
 IR Inten    --      0.7491                41.3111                46.7004

                     85                     86                     87
                      A                      A                      A
 Frequencies --   3144.8984              3146.2938              3217.0498
 Red. masses --      1.0876                 1.0903                 1.0861
 Frc consts  --      6.3380                 6.3590                 6.6229
 IR Inten    --     49.3307                27.5937                 6.3861

                     88                     89                     90
                      A                      A                      A
 Frequencies --   3219.4766              3221.7913              3233.1588
 Red. masses --      1.0879                 1.0883                 1.0946
 Frc consts  --      6.6438                 6.6554                 6.7418
 IR Inten    --      4.9314                 2.6433                 2.7701

                     91                     92                     93
                      A                      A                      A
 Frequencies --   3236.5621              3241.1609              3288.5284
 Red. masses --      1.0942                 1.1061                 1.0945
 Frc consts  --      6.7535                 6.8459                 6.9740
 IR Inten    --      3.0948                24.6525                 0.7136

                     94                     95                     96
                      A                      A                      A
 Frequencies --   3291.1224              3486.3967              3597.4293
 Red. masses --      1.0981                 1.0469                 1.0975
 Frc consts  --      7.0079                 7.4973                 8.3683
 IR Inten    --      0.0058                35.3421                30.1134

 - Thermochemistry -
 -------------------
 Temperature   298.150 Kelvin.  Pressure   1.00000 Atm.
 Atom     1 has atomic number  6 and mass  12.00000

 Molecular mass:   286.07760 amu.
 Principal axes and moments of inertia in atomic units:
                           1         2         3
     Eigenvalues --  1318.76755********************
           X            0.99999  -0.00126   0.00435
           Y            0.00128   0.99999  -0.00509
           Z           -0.00434   0.00509   0.99998
 This molecule is an asymmetric top.
 Rotational symmetry number  1.
 Warning -- assumption of classical behavior for rotation
           may cause significant error
 Rotational temperatures (Kelvin)      0.06568     0.00531     0.00518
 Rotational constants (GHZ):           1.36851     0.11074     0.10792
 Zero-point vibrational energy     701113.5 (Joules/Mol)
                                  167.57015 (Kcal/Mol)
 Warning -- explicit consideration of  25 degrees of freedom as
           vibrations may cause significant error
 Vibrational temperatures:     24.08    44.54    85.33    90.73   140.83
          (Kelvin)            183.30   219.69   256.71   280.77   348.93
                              391.54   468.35   515.17   529.96   542.99
                              604.39   635.41   659.71   670.87   695.97
                              743.61   769.44   800.43   823.69   866.97
                              931.64   967.57   991.83   997.66  1011.60
                             1042.93  1065.86  1070.39  1110.08  1118.28
                             1204.39  1206.54  1224.13  1236.11  1267.13
                             1277.08  1284.15  1329.80  1366.55  1381.70
                             1389.28  1392.78  1402.73  1484.37  1498.50
                             1511.95  1532.66  1578.21  1600.78  1612.03
                             1653.35  1656.56  1667.82  1672.51  1754.94
                             1775.95  1790.58  1798.03  1819.12  1826.10
                             1850.57  1868.18  1927.55  1934.73  1940.20
                             1972.35  1974.51  2103.91  2110.08  2185.88
                             2240.46  2280.97  2330.47  2343.79  2379.06
                             2389.40  2406.11  4426.14  4509.44  4524.81
                             4526.81  4628.62  4632.11  4635.44  4651.79
                             4656.69  4663.31  4731.46  4735.19  5016.15
                             5175.90

 Zero-point correction=                           0.267040 (Hartree/Particle)
 Thermal correction to Energy=                    0.283338
 Thermal correction to Enthalpy=                  0.284282
 Thermal correction to Gibbs Free Energy=         0.221233
 Sum of electronic and zero-point Energies=          -1237.836443
 Sum of electronic and thermal Energies=             -1237.820146
 Sum of electronic and thermal Enthalpies=           -1237.819202
 Sum of electronic and thermal Free Energies=        -1237.882250

                     E (Thermal)             CV                S
                      KCal/Mol        Cal/Mol-Kelvin    Cal/Mol-Kelvin
 Total                  177.797             65.551            132.698
 Electronic               0.000              0.000              0.000
 Translational            0.889              2.981             42.851
 Rotational               0.889              2.981             34.240
 Vibrational            176.020             59.590             55.606
 Vibration     1          0.593              1.986              6.988
 Vibration     2          0.594              1.984              5.767
 Vibration     3          0.597              1.974              4.480
 Vibration     4          0.597              1.972              4.359
 Vibration     5          0.603              1.951              3.496
 Vibration     6          0.611              1.926              2.985
 Vibration     7          0.619              1.900              2.638
 Vibration     8          0.629              1.869              2.345
 Vibration     9          0.636              1.847              2.178
 Vibration    10          0.659              1.775              1.784
 Vibration    11          0.675              1.725              1.583
 Vibration    12          0.710              1.624              1.282
 Vibration    13          0.733              1.559              1.131
 Vibration    14          0.741              1.537              1.087
 Vibration    15          0.748              1.518              1.050
 Vibration    16          0.783              1.427              0.892
 Vibration    17          0.801              1.379              0.821
 Vibration    18          0.817              1.342              0.770
 Vibration    19          0.824              1.325              0.748
 Vibration    20          0.840              1.286              0.700
 Vibration    21          0.872              1.213              0.617
 Vibration    22          0.890              1.173              0.577
 Vibration    23          0.912              1.126              0.531
 Vibration    24          0.929              1.091              0.499
 Vibration    25          0.961              1.026              0.445

 Optimization completed.
    -- Stationary point found.
 Normal termination of Gaussian 16 at Mon Dec 14 14:19:30 2020.

 ----------------------------------------------------------------------
 # B3LYP/6-311++G(d,p) empiricaldispersion=gd3bj scf=xqc pop=npa geom=c
 heck
 ----------------------------------------------------------------------

 --------------------------------------
 CID_3061045_JID_10291_Energie_neutraal
 --------------------------------------
 Structure from the checkpoint file:  "JID_10291.chk"
 Charge =  0 Multiplicity = 1

 SCF Done:  E(RB3LYP) =  -1238.35560825     A.U. after   16 cycles
 Normal termination of Gaussian 16 at Mon Dec 14 14:25:29 2020.

 ----------------------------------------------------------------------
 # B3LYP/6-311++G(d,p) empiricaldispersion=gd3bj scf=xqc pop=npa geom=c
 heck
 ----------------------------------------------------------------------

 ------------------------------------
 CID_3061045_JID_10291_Energie_kation
 ------------------------------------
 Structure from the checkpoint file:  "JID_10291.chk"
 Charge =  1 Multiplicity = 2

 SCF Done:  E(UB3LYP) =  -1238.07775778     A.U. after   25 cycles
 Normal termination of Gaussian 16 at Mon Dec 14 14:37:53 2020.
 Gaussian 16:  ES64L-G16RevA.03 25-Dec-2016

 ----------------------------------------------------------------------
 # B3LYP/6-311++G(d,p) empiricaldispersion=gd3bj scf=xqc pop=npa geom=c
 heck
 ----------------------------------------------------------------------

 -----------------------------------
 CID_3061045_JID_10291_Energie_anion
 -----------------------------------
 Structure from the checkpoint file:  "JID_10291.chk"
 Charge = -1 Multiplicity = 2

                         Standard orientation:
 ---------------------------------------------------------------------
 Center     Atomic      Atomic             Coordinates (Angstroms)
 Number     Number       Type             X           Y           Z
 ---------------------------------------------------------------------
      1          6           0       -5.393724   -0.391562   -1.034422
      2          6           0       -4.821295   -1.168144    0.199742
      3          6           0       -5.412311   -0.284061    1.316137
      4          6           0       -5.428334    0.979865    0.877045
      5          6           0       -4.848245    0.994521   -0.551836
      6          6           0       -3.380500    0.612864   -0.402053
      7          6           0       -2.092300    1.045012   -0.501555
      8          7           0       -1.264269   -0.024711   -0.123275
      9          6           0       -2.065028   -1.125030    0.223598
     10          6           0       -3.363604   -0.746044    0.062448
     11          6           0        0.136612   -0.001696   -0.106790
     12          6           0        0.823349    1.202172    0.114704
     13          6           0        2.213389    1.225684    0.122048
     14          6           0        2.921605    0.040734   -0.071064
     15          6           0        2.253854   -1.165522   -0.292573
     16          6           0        0.866922   -1.184797   -0.317756
     17         16           0        4.700926    0.066232   -0.054747
     18          8           0        5.195603   -0.905167   -1.034388
     19          8           0        5.122025    1.471626   -0.075306
     20          7           0        5.070348   -0.609268    1.461795
     21          1           0       -6.486520   -0.420805   -1.079121
     22          1           0       -4.959926   -0.716555   -1.985534
     23          1           0       -5.032071   -2.236124    0.263285
     24          1           0       -5.669761   -0.642753    2.306355
     25          1           0       -5.700978    1.869328    1.433837
     26          1           0       -5.082428    1.867338   -1.162052
     27          1           0       -1.659139    1.966425   -0.858239
     28          1           0       -1.611398   -2.032070    0.591509
     29          1           0        0.266890    2.112705    0.304937
     30          1           0        2.752539    2.152557    0.281671
     31          1           0        2.820240   -2.072724   -0.471913
     32          1           0        0.342829   -2.108328   -0.535123
     33          1           0        5.871115   -1.227659    1.341498
     34          1           0        5.287877    0.131151    2.126704
 ---------------------------------------------------------------------

 SCF Done:  E(UB3LYP) =  -1238.35971210     A.U. after   33 cycles
 SCF Done:  E(UB3LYP) =  -1238.35971210     a.u. after    1 cycles

 The electronic state is 2-A.
 Alpha  occ. eigenvalues --  -88.93398 -18.99285 -18.99191 -14.24528 -14.22364
 Alpha  occ. eigenvalues --  -10.09790 -10.09788 -10.08496 -10.08190 -10.08096
 Alpha  occ. eigenvalues --  -10.07770 -10.07685 -10.06959 -10.05106 -10.04998
 Alpha  occ. eigenvalues --  -10.04833 -10.04810 -10.04764 -10.04674 -10.04389
 Alpha  occ. eigenvalues --   -7.99572  -5.95895  -5.95848  -5.95598  -0.99459
 Alpha  occ. eigenvalues --   -0.88698  -0.86676  -0.79288  -0.79147  -0.73506
 Alpha  occ. eigenvalues --   -0.68108  -0.63659  -0.63327  -0.62506  -0.60709
 Alpha  occ. eigenvalues --   -0.59140  -0.54753  -0.50509  -0.49158  -0.46584
 Alpha  occ. eigenvalues --   -0.45458  -0.45242  -0.42389  -0.41798  -0.41626
 Alpha  occ. eigenvalues --   -0.41203  -0.40204  -0.38146  -0.36286  -0.34447
 Alpha  occ. eigenvalues --   -0.32522  -0.32400  -0.31858  -0.31212  -0.30729
 Alpha  occ. eigenvalues --   -0.30047  -0.29672  -0.28439  -0.27779  -0.26261
 Alpha  occ. eigenvalues --   -0.25865  -0.25081  -0.24480  -0.23805  -0.23054
 Alpha  occ. eigenvalues --   -0.22361  -0.20703  -0.19643  -0.18689  -0.18191
 Alpha  occ. eigenvalues --   -0.16583  -0.14926  -0.13693  -0.11125  -0.09432
 Alpha  occ. eigenvalues --    0.04472
 Alpha virt. eigenvalues --    0.06161   0.07002   0.07567   0.07902   0.08057
 Alpha virt. eigenvalues --    0.08827   0.09772   0.10120   0.10259   0.10546
 Alpha virt. eigenvalues --    0.10779   0.11195   0.11595   0.12813   0.13181

  Beta  occ. eigenvalues --  -88.93379 -18.99246 -18.99146 -14.24622 -14.22288
  Beta  occ. eigenvalues --  -10.09793 -10.09790 -10.08495 -10.08183 -10.08080
  Beta  occ. eigenvalues --  -10.07669 -10.07574 -10.06466 -10.04932 -10.04805
  Beta  occ. eigenvalues --  -10.04790 -10.04744 -10.04718 -10.04654 -10.04393
  Beta  occ. eigenvalues --   -7.99553  -5.95856  -5.95806  -5.95593  -0.99338
  Beta  occ. eigenvalues --   -0.88615  -0.86552  -0.79213  -0.78992  -0.73103
  Beta  occ. eigenvalues --   -0.67751  -0.63538  -0.63113  -0.62257  -0.60483
  Beta  occ. eigenvalues --   -0.58973  -0.54385  -0.50405  -0.49044  -0.46379
  Beta  occ. eigenvalues --   -0.45396  -0.44996  -0.42257  -0.41710  -0.41543
  Beta  occ. eigenvalues --   -0.41138  -0.39978  -0.37987  -0.36137  -0.34245
  Beta  occ. eigenvalues --   -0.32427  -0.32220  -0.31640  -0.31134  -0.30631
  Beta  occ. eigenvalues --   -0.29958  -0.29607  -0.28221  -0.27558  -0.26186
  Beta  occ. eigenvalues --   -0.25839  -0.25065  -0.23943  -0.23306  -0.22971
  Beta  occ. eigenvalues --   -0.22205  -0.20542  -0.19527  -0.18500  -0.17757
  Beta  occ. eigenvalues --   -0.16409  -0.13921  -0.12845  -0.10545  -0.08621
  Beta virt. eigenvalues --    0.06090   0.07253   0.07505   0.07831   0.08097
  Beta virt. eigenvalues --    0.08721   0.09365   0.09742   0.10117   0.10199
  Beta virt. eigenvalues --    0.10567   0.10912   0.11323   0.11937   0.12778

 Mulliken charges and spin densities:
               1          2
     1  C   -0.784021  -0.053839
     2  C    0.203419   0.002320
     3  C   -0.392392  -0.032810
     4  C   -0.343975  -0.073212
     5  C    0.261770   0.041859
     6  C   -0.119568  -0.002875
     7  C   -0.107462   0.083612
     8  N    0.465642  -0.038963
     9  C   -0.238577   0.091681
    10  C   -0.054632   0.030824
    11  C   -0.786212   0.236294
    12  C    0.006811   0.046749
    13  C   -0.156033   0.118345
    14  C   -0.269602   0.151839
    15  C   -0.176744   0.104836
    16  C   -0.149910   0.018630
    17  S    0.384254  -0.117578
    18  O   -0.286672   0.004419
    19  O   -0.241875   0.010419
    20  N   -0.273193  -0.036433
    21  H    0.124727   0.018433
    22  H    0.129339   0.001060
    23  H    0.170909   0.058079
    24  H    0.090052   0.050367
    25  H    0.114031   0.025747
    26  H    0.213014   0.017328
    27  H    0.097320   0.019573
    28  H    0.131194  -0.009576
    29  H    0.137945  -0.000408
    30  H    0.204196   0.002339
    31  H    0.209386  -0.005005
    32  H    0.102507   0.027304
    33  H    0.143312   0.137425
    34  H    0.191040   0.071219
 Sum of Mulliken charges =  -1.00000   1.00000

 Dipole moment (field-independent basis, Debye):
    X=             -7.3452    Y=             -0.3294    Z=              1.8637  Tot=              7.5851
 Quadrupole moment (field-independent basis, Debye-Ang):
   XX=           -219.1597   YY=           -133.8416   ZZ=           -138.6508
   XY=             -3.1662   XZ=             13.2953   YZ=             -0.6136

 Summary of Natural Population Analysis:

                                       Natural Population
                Natural  -----------------------------------------------
    Atom  No    Charge         Core      Valence    Rydberg      Total
 -----------------------------------------------------------------------
      C    1   -0.16656      0.99966     2.15812    0.00878     3.16656
      C    2   -0.13069      0.99958     2.11954    0.01158     3.13069
      C    3   -0.08996      0.99953     2.07948    0.01095     3.08996
      C    4   -0.09318      0.99953     2.08344    0.01021     3.09318
      C    5   -0.12982      0.99958     2.11946    0.01078     3.12982
      C    6   -0.04646      0.99946     2.03603    0.01097     3.04646
      C    7    0.00397      0.99947     1.98479    0.01177     2.99603
      N    8   -0.21647      0.99966     2.70547    0.01134     3.71647
      C    9    0.04497      0.99946     1.94573    0.00984     2.95503
      C   10   -0.06508      0.99948     2.04875    0.01684     3.06508
      C   11    0.16694      0.99949     1.82213    0.01144     2.83306
      C   12   -0.12165      0.99955     2.11419    0.00791     3.12165
      C   13   -0.07462      0.99952     2.06557    0.00952     3.07462
      C   14   -0.10634      0.99936     2.09283    0.01415     3.10634
      C   15   -0.06007      0.99952     2.05053    0.01002     3.06007
      C   16   -0.12972      0.99955     2.12151    0.00866     3.12972
      S   17    1.10289      4.99926     1.79771    0.10014     6.89711
      O   18   -0.47194      0.99991     3.46677    0.00527     4.47194
      O   19   -0.47428      0.99991     3.46828    0.00609     4.47428
      N   20   -0.51392      0.99979     3.00247    0.01166     4.01392
      H   21    0.09336      0.00000     0.40531    0.00134     0.40664
      H   22    0.10007      0.00000     0.39866    0.00127     0.39993
      H   23    0.10341      0.00000     0.39511    0.00147     0.39659
      H   24    0.09852      0.00000     0.40020    0.00128     0.40148
      H   25    0.09844      0.00000     0.40030    0.00126     0.40156
      H   26    0.10229      0.00000     0.39610    0.00162     0.39771
      H   27    0.10006      0.00000     0.39888    0.00105     0.39994
      H   28    0.09558      0.00000     0.40272    0.00169     0.40442
      H   29    0.09767      0.00000     0.40130    0.00103     0.40233
      H   30    0.10705      0.00000     0.39192    0.00103     0.39295
      H   31    0.10315      0.00000     0.39572    0.00113     0.39685
      H   32    0.09817      0.00000     0.40079    0.00104     0.40183
      H   33    0.18971      0.00000     0.30703    0.00326     0.31029
      H   34    0.18772      0.00000     0.31006    0.00222     0.31228
 =======================================================================
   * Total *    0.00324     23.99125    50.68691    0.31861    74.99676

 Normal termination of Gaussian 16 at Mon Dec 14 14:54:40 2020.
