 Gaussian 16, Revision A.03,

 -----------------------------------------------------------
 # opt freq B3LYP/6-31G(d) empiricaldispersion=gd3bj scf=xqc
 -----------------------------------------------------------

 ------------------------------
 CID_79916437_JID_7140_neutraal
 ------------------------------
 Symbolic Z-matrix:
 Charge =  0 Multiplicity = 1

 SCF Done:  E(RB3LYP) =  -743.745900216     A.U. after   14 cycles
 SCF Done:  E(RB3LYP) =  -743.751778470     A.U. after   13 cycles
 SCF Done:  E(RB3LYP) =  -743.752902818     A.U. after   12 cycles
 SCF Done:  E(RB3LYP) =  -743.753345191     A.U. after   12 cycles
 SCF Done:  E(RB3LYP) =  -743.753582435     A.U. after   12 cycles
 SCF Done:  E(RB3LYP) =  -743.753655430     A.U. after   11 cycles
 SCF Done:  E(RB3LYP) =  -743.753679403     A.U. after   11 cycles
 SCF Done:  E(RB3LYP) =  -743.753683807     A.U. after    9 cycles
 SCF Done:  E(RB3LYP) =  -743.753684866     A.U. after    8 cycles
 SCF Done:  E(RB3LYP) =  -743.753685114     A.U. after    7 cycles
 SCF Done:  E(RB3LYP) =  -743.753685165     A.U. after    6 cycles
 Optimization completed.
    -- Stationary point found.
 Normal termination of Gaussian 16 at Mon Dec 14 16:36:34 2020.

 --------------------------------------------------------------------
 #N Geom=AllCheck Guess=TCheck SCRF=Check GenChk RB3LYP/6-31G(d) Freq
 --------------------------------------------------------------------

 Structure from the checkpoint file:  "JID_7140.chk"
 ------------------------------
 CID_79916437_JID_7140_neutraal
 ------------------------------
 Charge =  0 Multiplicity = 1

 SCF Done:  E(RB3LYP) =  -743.753685165     A.U. after    1 cycles

  Exact polarizability: 194.955 -15.237 151.934 -16.500  -9.337 126.405
 Approx polarizability: 244.475 -32.269 243.328 -37.796 -22.476 209.010

                      1                      2                      3
                      A                      A                      A
 Frequencies --     20.8440                36.8992                43.9182
 Red. masses --      3.6185                 4.4013                 3.3473
 Frc consts  --      0.0009                 0.0035                 0.0038
 IR Inten    --      0.2955                 0.7422                 0.5833

                      4                      5                      6
                      A                      A                      A
 Frequencies --     49.0572                82.9394               141.6037
 Red. masses --      3.1834                 3.9333                 3.8795
 Frc consts  --      0.0045                 0.0159                 0.0458
 IR Inten    --      0.7011                 0.1627                 0.3759

                      7                      8                      9
                      A                      A                      A
 Frequencies --    156.6142               196.1180               221.4344
 Red. masses --      2.0721                 2.1212                 1.8093
 Frc consts  --      0.0299                 0.0481                 0.0523
 IR Inten    --      0.5586                 0.8422                 1.2548

                     10                     11                     12
                      A                      A                      A
 Frequencies --    240.6926               252.8691               276.1217
 Red. masses --      2.8487                 2.3455                 2.3740
 Frc consts  --      0.0972                 0.0884                 0.1066
 IR Inten    --      0.5649                 0.3684                 2.9795

                     13                     14                     15
                      A                      A                      A
 Frequencies --    285.4672               313.8528               355.5989
 Red. masses --      2.9038                 3.3244                 2.1427
 Frc consts  --      0.1394                 0.1929                 0.1596
 IR Inten    --      4.6491                 1.7606                 0.2596

                     16                     17                     18
                      A                      A                      A
 Frequencies --    377.6416               394.6227               408.9358
 Red. masses --      1.5054                 1.5553                 3.7130
 Frc consts  --      0.1265                 0.1427                 0.3658
 IR Inten    --      7.1663                35.8338                 2.7507

                     19                     20                     21
                      A                      A                      A
 Frequencies --    452.2527               465.1247               474.0207
 Red. masses --      2.6309                 2.6027                 3.2685
 Frc consts  --      0.3170                 0.3318                 0.4327
 IR Inten    --      0.1754                 2.8128                11.0251

                     22                     23                     24
                      A                      A                      A
 Frequencies --    493.3856               520.2639               575.4910
 Red. masses --      2.7662                 2.8433                 3.0796
 Frc consts  --      0.3967                 0.4534                 0.6009
 IR Inten    --      1.3062                 6.9770                 5.1974

                     25                     26                     27
                      A                      A                      A
 Frequencies --    602.7701               634.8483               640.2233
 Red. masses --      4.7966                 3.0438                 5.9103
 Frc consts  --      1.0268                 0.7228                 1.4273
 IR Inten    --      5.6057                 4.2370                 9.8892

                     28                     29                     30
                      A                      A                      A
 Frequencies --    753.6230               759.1507               795.5532
 Red. masses --      2.0140                 1.6420                 2.1124
 Frc consts  --      0.6739                 0.5575                 0.7877
 IR Inten    --    100.3664                65.6887                69.8667

                     31                     32                     33
                      A                      A                      A
 Frequencies --    801.8999               817.3700               831.0278
 Red. masses --      3.8390                 2.5831                 1.5599
 Frc consts  --      1.4545                 1.0168                 0.6347
 IR Inten    --     20.7777                19.3795                20.9196

                     34                     35                     36
                      A                      A                      A
 Frequencies --    833.5435               883.7711               892.9577
 Red. masses --      1.6599                 2.6096                 2.0683
 Frc consts  --      0.6795                 1.2009                 0.9717
 IR Inten    --     29.2012                10.3841                18.5029

                     37                     38                     39
                      A                      A                      A
 Frequencies --    915.2637               924.0146               933.2703
 Red. masses --      1.4586                 1.5295                 3.0634
 Frc consts  --      0.7199                 0.7694                 1.5721
 IR Inten    --      3.2289                 9.0418                48.7371

                     40                     41                     42
                      A                      A                      A
 Frequencies --    962.1031               967.3563               997.5739
 Red. masses --      1.4522                 1.5898                 1.9687
 Frc consts  --      0.7920                 0.8765                 1.1543
 IR Inten    --      0.3610                 3.9019                11.7741

                     43                     44                     45
                      A                      A                      A
 Frequencies --   1014.5859              1031.1810              1063.8263
 Red. masses --      1.4898                 2.3038                 1.8362
 Frc consts  --      0.9036                 1.4433                 1.2244
 IR Inten    --      1.1577                 7.8333                 6.2182

                     46                     47                     48
                      A                      A                      A
 Frequencies --   1107.0160              1108.7992              1124.0131
 Red. masses --      2.2370                 3.0194                 1.6906
 Frc consts  --      1.6152                 2.1871                 1.2584
 IR Inten    --      1.3602               122.7456                 0.2314

                     49                     50                     51
                      A                      A                      A
 Frequencies --   1125.9498              1145.9899              1157.5652
 Red. masses --      2.4215                 2.1408                 2.5135
 Frc consts  --      1.8087                 1.6565                 1.9844
 IR Inten    --     27.0391                 7.4967                26.3493

                     52                     53                     54
                      A                      A                      A
 Frequencies --   1177.5320              1189.2469              1191.9578
 Red. masses --      2.7611                 1.7843                 1.7779
 Frc consts  --      2.2557                 1.4868                 1.4882
 IR Inten    --     14.5684                21.2062                 8.4310

                     55                     56                     57
                      A                      A                      A
 Frequencies --   1231.7955              1249.8482              1276.9371
 Red. masses --      1.8727                 2.0536                 1.2967
 Frc consts  --      1.6741                 1.8901                 1.2458
 IR Inten    --      5.9913                27.6851                 5.0584

                     58                     59                     60
                      A                      A                      A
 Frequencies --   1298.8874              1302.9743              1317.1984
 Red. masses --      1.9432                 2.3376                 1.2515
 Frc consts  --      1.9315                 2.3382                 1.2793
 IR Inten    --     12.2048                29.4722                 5.8026

                     61                     62                     63
                      A                      A                      A
 Frequencies --   1326.6157              1335.1006              1338.7213
 Red. masses --      1.2966                 2.6019                 1.6531
 Frc consts  --      1.3445                 2.7325                 1.7456
 IR Inten    --      6.9206                15.6402                47.9221

                     64                     65                     66
                      A                      A                      A
 Frequencies --   1356.7867              1372.5557              1380.2808
 Red. masses --      1.3261                 1.5080                 1.3113
 Frc consts  --      1.4383                 1.6738                 1.4719
 IR Inten    --      2.2918                29.2844                 6.3828

                     67                     68                     69
                      A                      A                      A
 Frequencies --   1391.2472              1397.4995              1412.1639
 Red. masses --      1.3676                 1.3513                 1.4215
 Frc consts  --      1.5596                 1.5549                 1.6702
 IR Inten    --      7.7368                32.1131                 5.5806

                     70                     71                     72
                      A                      A                      A
 Frequencies --   1424.2680              1428.2134              1436.6834
 Red. masses --      1.4509                 1.4228                 1.3220
 Frc consts  --      1.7341                 1.7100                 1.6076
 IR Inten    --      1.1307                36.4656                19.8747

                     73                     74                     75
                      A                      A                      A
 Frequencies --   1456.0879              1462.8445              1490.6507
 Red. masses --      1.3983                 2.9830                 1.6559
 Frc consts  --      1.7467                 3.7610                 2.1679
 IR Inten    --     18.5820               112.6743                15.4597

                     76                     77                     78
                      A                      A                      A
 Frequencies --   1501.3560              1516.0249              1518.2665
 Red. masses --      1.0953                 1.0832                 1.0921
 Frc consts  --      1.4546                 1.4668                 1.4832
 IR Inten    --      0.8949                 4.1885                 3.3147

                     79                     80                     81
                      A                      A                      A
 Frequencies --   1521.8477              1526.1875              1528.7554
 Red. masses --      1.0678                 1.0763                 1.0823
 Frc consts  --      1.4571                 1.4770                 1.4903
 IR Inten    --      0.6956                 3.6944                11.7482

                     82                     83                     84
                      A                      A                      A
 Frequencies --   1532.7649              1540.9392              1544.1080
 Red. masses --      2.1399                 1.0739                 1.1055
 Frc consts  --      2.9621                 1.5024                 1.5530
 IR Inten    --    217.6252                 5.7176                 9.0046

                     85                     86                     87
                      A                      A                      A
 Frequencies --   1627.3122              1631.2356              1684.9242
 Red. masses --      3.8112                 4.4598                 1.2584
 Frc consts  --      5.9464                 6.9920                 2.1049
 IR Inten    --    117.4378                54.5518                83.1816

                     88                     89                     90
                      A                      A                      A
 Frequencies --   2896.2571              2903.8709              2923.1522
 Red. masses --      1.0741                 1.0733                 1.0729
 Frc consts  --      5.3085                 5.3326                 5.4015
 IR Inten    --     26.7289                52.9111               142.1345

                     91                     92                     93
                      A                      A                      A
 Frequencies --   3039.9572              3044.6882              3046.4052
 Red. masses --      1.0629                 1.0619                 1.0627
 Frc consts  --      5.7873                 5.8001                 5.8106
 IR Inten    --     18.9232                12.8525                36.1780

                     94                     95                     96
                      A                      A                      A
 Frequencies --   3049.2854              3055.6479              3076.0319
 Red. masses --      1.0398                 1.0885                 1.0971
 Frc consts  --      5.6962                 5.9879                 6.1162
 IR Inten    --     22.5310                12.4447                17.2915

                     97                     98                     99
                      A                      A                      A
 Frequencies --   3080.4990              3083.4604              3093.4539
 Red. masses --      1.0891                 1.0864                 1.1008
 Frc consts  --      6.0894                 6.0858                 6.2065
 IR Inten    --     53.3144                46.6944                27.2629

                    100                    101                    102
                      A                      A                      A
 Frequencies --   3103.5651              3107.9112              3112.7066
 Red. masses --      1.0982                 1.0893                 1.0980
 Frc consts  --      6.2326                 6.1992                 6.2682
 IR Inten    --     28.7439                 9.3714                72.9145

                    103                    104                    105
                      A                      A                      A
 Frequencies --   3136.6028              3148.3195              3192.4585
 Red. masses --      1.1011                 1.0900                 1.0908
 Frc consts  --      6.3828                 6.3655                 6.5499
 IR Inten    --     37.9701                35.5962                32.4163

                    106                    107                    108
                      A                      A                      A
 Frequencies --   3503.2466              3504.6498              3604.8128
 Red. masses --      1.0653                 1.0562                 1.0965
 Frc consts  --      7.7030                 7.6431                 8.3954
 IR Inten    --      6.2766                 7.0713                 8.6441

 - Thermochemistry -
 -------------------
 Temperature   298.150 Kelvin.  Pressure   1.00000 Atm.
 Atom     1 has atomic number  6 and mass  12.00000

 Molecular mass:   235.17970 amu.
 Principal axes and moments of inertia in atomic units:
                           1         2         3
     Eigenvalues --  1605.219019175.192799701.88178
           X            0.99994   0.01059   0.00016
           Y           -0.01059   0.99993  -0.00545
           Z           -0.00022   0.00545   0.99999
 This molecule is an asymmetric top.
 Rotational symmetry number  1.
 Warning -- assumption of classical behavior for rotation
           may cause significant error
 Rotational temperatures (Kelvin)      0.05396     0.00944     0.00893
 Rotational constants (GHZ):           1.12430     0.19670     0.18602
 Zero-point vibrational energy     886958.1 (Joules/Mol)
                                  211.98808 (Kcal/Mol)
 Warning -- explicit consideration of  25 degrees of freedom as
           vibrations may cause significant error
 Vibrational temperatures:     29.99    53.09    63.19    70.58   119.33
          (Kelvin)            203.74   225.33   282.17   318.59   346.30
                              363.82   397.28   410.72   451.56   511.63
                              543.34   567.77   588.37   650.69   669.21
                              682.01   709.87   748.54   828.00   867.25
                              913.41   921.14  1084.30  1092.25  1144.62
                             1153.76  1176.01  1195.66  1199.28  1271.55
                             1284.77  1316.86  1329.45  1342.77  1384.25
                             1391.81  1435.29  1459.76  1483.64  1530.61
                             1592.75  1595.31  1617.20  1619.99  1648.82
                             1665.48  1694.21  1711.06  1714.96  1772.28
                             1798.25  1837.23  1868.81  1874.69  1895.15
                             1908.70  1920.91  1926.12  1952.11  1974.80
                             1985.92  2001.69  2010.69  2031.79  2049.20
                             2054.88  2067.07  2094.99  2104.71  2144.71
                             2160.12  2181.22  2184.45  2189.60  2195.84
                             2199.54  2205.31  2217.07  2221.63  2341.34
                             2346.98  2424.23  4167.07  4178.02  4205.76
                             4373.82  4380.63  4383.10  4387.24  4396.40
                             4425.72  4432.15  4436.41  4450.79  4465.34
                             4471.59  4478.49  4512.87  4529.73  4593.24
                             5040.39  5042.41  5186.52

 Zero-point correction=                           0.337825 (Hartree/Particle)
 Thermal correction to Energy=                    0.354095
 Thermal correction to Enthalpy=                  0.355039
 Thermal correction to Gibbs Free Energy=         0.292413
 Sum of electronic and zero-point Energies=           -743.415861
 Sum of electronic and thermal Energies=              -743.399590
 Sum of electronic and thermal Enthalpies=            -743.398646
 Sum of electronic and thermal Free Energies=         -743.461272

                     E (Thermal)             CV                S
                      KCal/Mol        Cal/Mol-Kelvin    Cal/Mol-Kelvin
 Total                  222.198             63.143            131.807
 Electronic               0.000              0.000              0.000
 Translational            0.889              2.981             42.267
 Rotational               0.889              2.981             33.324
 Vibrational            220.420             57.181             56.216
 Vibration     1          0.593              1.986              6.552
 Vibration     2          0.594              1.982              5.419
 Vibration     3          0.595              1.980              5.074
 Vibration     4          0.595              1.978              4.855
 Vibration     5          0.600              1.961              3.820
 Vibration     6          0.615              1.912              2.782
 Vibration     7          0.620              1.895              2.590
 Vibration     8          0.636              1.845              2.169
 Vibration     9          0.648              1.808              1.947
 Vibration    10          0.658              1.778              1.798
 Vibration    11          0.664              1.758              1.710
 Vibration    12          0.678              1.718              1.558
 Vibration    13          0.683              1.701              1.501
 Vibration    14          0.702              1.647              1.342
 Vibration    15          0.731              1.564              1.141
 Vibration    16          0.748              1.518              1.049
 Vibration    17          0.762              1.482              0.983
 Vibration    18          0.773              1.451              0.930
 Vibration    19          0.811              1.356              0.789
 Vibration    20          0.823              1.327              0.751
 Vibration    21          0.831              1.308              0.726
 Vibration    22          0.849              1.265              0.675
 Vibration    23          0.875              1.205              0.609
 Vibration    24          0.932              1.084              0.494
 Vibration    25          0.961              1.026              0.445

                           ! Non-Optimized Parameters !
 Normal termination of Gaussian 16 at Mon Dec 14 16:50:37 2020.

 ----------------------------------------------------------------------
 # B3LYP/6-311++G(d,p) empiricaldispersion=gd3bj scf=xqc pop=npa geom=c
 heck
 ----------------------------------------------------------------------

 --------------------------------------
 CID_79916437_JID_7140_Energie_neutraal
 --------------------------------------
 Structure from the checkpoint file:  "JID_7140.chk"
 Charge =  0 Multiplicity = 1

 SCF Done:  E(RB3LYP) =  -743.961766731     A.U. after   15 cycles
 Normal termination of Gaussian 16 at Mon Dec 14 16:57:54 2020.

 ----------------------------------------------------------------------
 # B3LYP/6-311++G(d,p) empiricaldispersion=gd3bj scf=xqc pop=npa geom=c
 heck
 ----------------------------------------------------------------------

 ------------------------------------
 CID_79916437_JID_7140_Energie_kation
 ------------------------------------
 Structure from the checkpoint file:  "JID_7140.chk"
 Charge =  1 Multiplicity = 2

 SCF Done:  E(UB3LYP) =  -743.682496877     A.U. after   28 cycles
 Normal termination of Gaussian 16 at Mon Dec 14 17:18:02 2020.
 Gaussian 16:  ES64L-G16RevA.03 25-Dec-2016

 ----------------------------------------------------------------------
 # B3LYP/6-311++G(d,p) empiricaldispersion=gd3bj scf=xqc pop=npa geom=c
 heck
 ----------------------------------------------------------------------

 -----------------------------------
 CID_79916437_JID_7140_Energie_anion
 -----------------------------------
 Structure from the checkpoint file:  "JID_7140.chk"
 Charge = -1 Multiplicity = 2

                         Standard orientation:
 ---------------------------------------------------------------------
 Center     Atomic      Atomic             Coordinates (Angstroms)
 Number     Number       Type             X           Y           Z
 ---------------------------------------------------------------------
      1          6           0       -5.048748   -1.611511    0.429429
      2          6           0       -4.858119   -0.801854   -0.854301
      3          6           0       -4.082200    0.500505   -0.627976
      4          7           0       -2.770373    0.301094   -0.013241
      5          6           0       -1.815641   -0.333294   -0.920676
      6          6           0       -0.506218   -0.655942   -0.199347
      7          6           0        0.101826    0.609744    0.417939
      8          6           0       -0.936588    1.303780    1.297709
      9          6           0       -2.229263    1.549262    0.517859
     10          7           0        1.319739    0.335037    1.209297
     11          6           0        2.457332   -0.132573    0.548894
     12          7           0        2.951178   -1.318700    0.916921
     13          6           0        4.057554   -1.744088    0.296496
     14          7           0        4.715480   -1.116342   -0.676554
     15          6           0        4.235809    0.089985   -1.013849
     16          6           0        3.114490    0.664664   -0.421421
     17          7           0        2.636660    1.937853   -0.755736
     18          1           0       -4.081382   -1.869322    0.870000
     19          1           0       -5.604452   -2.536050    0.238283
     20          1           0       -5.605056   -1.032364    1.176825
     21          1           0       -4.357440   -1.416893   -1.612580
     22          1           0       -5.833180   -0.536555   -1.283365
     23          1           0       -3.999419    1.056764   -1.583659
     24          1           0       -4.664254    1.133840    0.053402
     25          1           0       -1.607290    0.317154   -1.796441
     26          1           0       -2.253483   -1.257064   -1.308355
     27          1           0        0.203764   -1.114370   -0.897075
     28          1           0       -0.705957   -1.385742    0.596303
     29          1           0        0.384053    1.285545   -0.395725
     30          1           0       -1.162015    0.667719    2.164439
     31          1           0       -0.536357    2.250930    1.677395
     32          1           0       -2.980313    1.997111    1.177822
     33          1           0       -2.033502    2.283090   -0.292663
     34          1           0        1.107485   -0.314989    1.964543
     35          1           0        4.449044   -2.707601    0.614457
     36          1           0        4.783001    0.637110   -1.782483
     37          1           0        3.330981    2.512844   -1.221970
     38          1           0        2.255586    2.424170    0.051502
 ---------------------------------------------------------------------

 SCF Done:  E(UB3LYP) =  -743.953905791     A.U. after   33 cycles
 SCF Done:  E(UB3LYP) =  -743.953905791     a.u. after    1 cycles

 The electronic state is 2-A.
 Alpha  occ. eigenvalues --  -14.22456 -14.22144 -14.21507 -14.20275 -14.20159
 Alpha  occ. eigenvalues --  -10.13864 -10.12233 -10.11550 -10.11036 -10.10428
 Alpha  occ. eigenvalues --  -10.10343 -10.10250 -10.09859 -10.08101 -10.07560
 Alpha  occ. eigenvalues --  -10.07530 -10.06983  -0.88885  -0.84527  -0.83320
 Alpha  occ. eigenvalues --   -0.81429  -0.76722  -0.70902  -0.67756  -0.66742
 Alpha  occ. eigenvalues --   -0.64890  -0.59504  -0.55252  -0.54903  -0.54390
 Alpha  occ. eigenvalues --   -0.52015  -0.49293  -0.47445  -0.44251  -0.43082
 Alpha  occ. eigenvalues --   -0.41173  -0.39983  -0.38412  -0.37743  -0.37144
 Alpha  occ. eigenvalues --   -0.36356  -0.35564  -0.34541  -0.34232  -0.32533
 Alpha  occ. eigenvalues --   -0.32347  -0.31493  -0.30403  -0.30110  -0.29020
 Alpha  occ. eigenvalues --   -0.27015  -0.26633  -0.26268  -0.25697  -0.25024
 Alpha  occ. eigenvalues --   -0.24224  -0.23604  -0.22994  -0.21798  -0.20197
 Alpha  occ. eigenvalues --   -0.16173  -0.15087  -0.13353  -0.11534   0.03950
 Alpha virt. eigenvalues --    0.05295   0.06471   0.06923   0.07304   0.07811
 Alpha virt. eigenvalues --    0.08442   0.08797   0.08869   0.09390   0.09834
 Alpha virt. eigenvalues --    0.10219   0.10767   0.11058   0.11612   0.11926

  Beta  occ. eigenvalues --  -14.22467 -14.22091 -14.21496 -14.20164 -14.20105
  Beta  occ. eigenvalues --  -10.13781 -10.12245 -10.11565 -10.11021 -10.10421
  Beta  occ. eigenvalues --  -10.10329 -10.10238 -10.09721 -10.08086 -10.07558
  Beta  occ. eigenvalues --  -10.07515 -10.06966  -0.88750  -0.84499  -0.83256
  Beta  occ. eigenvalues --   -0.81347  -0.76560  -0.70864  -0.67708  -0.66718
  Beta  occ. eigenvalues --   -0.64762  -0.59460  -0.55065  -0.54843  -0.54357
  Beta  occ. eigenvalues --   -0.51956  -0.49247  -0.47399  -0.44184  -0.43017
  Beta  occ. eigenvalues --   -0.41124  -0.39869  -0.38377  -0.37678  -0.37109
  Beta  occ. eigenvalues --   -0.36307  -0.35535  -0.34452  -0.34181  -0.32465
  Beta  occ. eigenvalues --   -0.32177  -0.31418  -0.30369  -0.30017  -0.28969
  Beta  occ. eigenvalues --   -0.26983  -0.26599  -0.26248  -0.25655  -0.24949
  Beta  occ. eigenvalues --   -0.24160  -0.23560  -0.22922  -0.21397  -0.20063
  Beta  occ. eigenvalues --   -0.15933  -0.14970  -0.13293  -0.11292
  Beta virt. eigenvalues --    0.05844   0.06939   0.07244   0.07463   0.07575
  Beta virt. eigenvalues --    0.08156   0.08656   0.08950   0.09144   0.09500
  Beta virt. eigenvalues --    0.09945   0.10470   0.10832   0.11259   0.11853

 Mulliken charges and spin densities:
               1          2
     1  C    0.300541  -0.810975
     2  C   -0.392978   0.218886
     3  C    0.035118  -0.230339
     4  N    0.189760   0.113557
     5  C   -0.755612  -0.085276
     6  C    0.518045  -0.604126
     7  C   -0.669884  -0.038122
     8  C   -0.229149  -0.054719
     9  C    0.216994  -0.464914
    10  N    0.153899   0.069998
    11  C   -0.250663  -0.212416
    12  N   -0.115969   0.101944
    13  C   -0.022905   0.009352
    14  N   -0.147063   0.009744
    15  C   -0.091137  -0.319824
    16  C    0.457350  -0.005182
    17  N   -0.343600  -0.042485
    18  H    0.051788   0.107537
    19  H   -0.120429   0.241898
    20  H   -0.015314   0.139547
    21  H   -0.057815   0.179686
    22  H   -0.293097   0.450035
    23  H    0.096040   0.000622
    24  H   -0.220007   0.365806
    25  H   -0.055702   0.172858
    26  H    0.285631  -0.120667
    27  H    0.111841   0.076868
    28  H    0.177538  -0.031841
    29  H    0.609984  -0.407364
    30  H    0.147769  -0.026058
    31  H   -0.265790   0.468804
    32  H   -0.055909   0.233537
    33  H   -0.081782   0.198155
    34  H    0.236775   0.038209
    35  H    0.155266   0.004173
    36  H   -0.072392   0.207660
    37  H   -0.306437   0.591559
    38  H   -0.180706   0.453874
 Sum of Mulliken charges =  -1.00000   1.00000

 Dipole moment (field-independent basis, Debye):
    X=             -1.9307    Y=             -3.2142    Z=              0.3765  Tot=              3.7683
 Quadrupole moment (field-independent basis, Debye-Ang):
   XX=           -220.7996   YY=           -150.5980   ZZ=           -130.8805
   XY=             -7.2114   XZ=              4.6438   YZ=             -0.0469

 Summary of Natural Population Analysis:

                                       Natural Population
                Natural  -----------------------------------------------
    Atom  No    Charge         Core      Valence    Rydberg      Total
 -----------------------------------------------------------------------
      C    1   -0.28836      0.99966     2.28233    0.00636     3.28836
      C    2   -0.19537      0.99964     2.18774    0.00799     3.19537
      C    3   -0.08058      0.99961     2.06922    0.01174     3.08058
      N    4   -0.28499      0.99970     2.77379    0.01150     3.78499
      C    5   -0.08303      0.99961     2.07462    0.00880     3.08303
      C    6   -0.19805      0.99960     2.19111    0.00734     3.19805
      C    7   -0.01636      0.99955     2.00458    0.01223     3.01636
      C    8   -0.19484      0.99960     2.18420    0.01103     3.19484
      C    9   -0.08123      0.99961     2.07009    0.01153     3.08123
      N   10   -0.32588      0.99969     2.81459    0.01160     3.82588
      C   11    0.20385      0.99949     1.77968    0.01697     2.79615
      N   12   -0.25149      0.99967     2.74320    0.00862     3.75149
      C   13    0.12039      0.99967     1.86119    0.01876     2.87961
      N   14   -0.24705      0.99972     2.73732    0.01002     3.74705
      C   15    0.03649      0.99955     1.94816    0.01581     2.96351
      C   16    0.03539      0.99943     1.95365    0.01153     2.96461
      N   17   -0.40049      0.99972     2.88972    0.01104     3.90049
      H   18    0.10275      0.00000     0.39603    0.00122     0.39725
      H   19    0.09588      0.00000     0.40337    0.00075     0.40412
      H   20    0.09617      0.00000     0.40288    0.00094     0.40383
      H   21    0.09210      0.00000     0.40671    0.00119     0.40790
      H   22    0.09766      0.00000     0.40116    0.00118     0.40234
      H   23    0.08191      0.00000     0.41677    0.00132     0.41809
      H   24    0.09470      0.00000     0.40385    0.00145     0.40530
      H   25    0.08014      0.00000     0.41845    0.00141     0.41986
      H   26    0.09705      0.00000     0.40170    0.00125     0.40295
      H   27    0.10430      0.00000     0.39485    0.00085     0.39570
      H   28    0.09684      0.00000     0.40176    0.00140     0.40316
      H   29    0.10459      0.00000     0.39252    0.00288     0.39541
      H   30    0.09514      0.00000     0.40337    0.00149     0.40486
      H   31    0.10596      0.00000     0.39266    0.00138     0.39404
      H   32    0.09807      0.00000     0.40068    0.00126     0.40193
      H   33    0.07958      0.00000     0.41882    0.00159     0.42042
      H   34    0.18393      0.00000     0.31319    0.00288     0.31607
      H   35    0.07826      0.00000     0.42058    0.00116     0.42174
      H   36    0.08732      0.00000     0.41125    0.00144     0.41268
      H   37    0.18848      0.00000     0.30653    0.00500     0.31152
      H   38    0.19078      0.00000     0.30560    0.00362     0.30922
 =======================================================================
   * Total *    0.00000     16.99354    46.77791    0.22855    64.00000

 Normal termination of Gaussian 16 at Mon Dec 14 17:41:31 2020.
