 Gaussian 16, Revision A.03,

 -----------------------------------------------------------
 # opt freq B3LYP/6-31G(d) empiricaldispersion=gd3bj scf=xqc
 -----------------------------------------------------------

 -------------------------------
 CID_133063637_JID_1212_neutraal
 -------------------------------
 Symbolic Z-matrix:
 Charge =  0 Multiplicity = 1

 SCF Done:  E(RB3LYP) =  -548.768449785     A.U. after   15 cycles
 SCF Done:  E(RB3LYP) =  -548.775095667     A.U. after   13 cycles
 SCF Done:  E(RB3LYP) =  -548.776357682     A.U. after   12 cycles
 SCF Done:  E(RB3LYP) =  -548.776543430     A.U. after   12 cycles
 SCF Done:  E(RB3LYP) =  -548.776843399     A.U. after   12 cycles
 SCF Done:  E(RB3LYP) =  -548.777011253     A.U. after   12 cycles
 SCF Done:  E(RB3LYP) =  -548.777144272     A.U. after   12 cycles
 SCF Done:  E(RB3LYP) =  -548.777193793     A.U. after   10 cycles
 SCF Done:  E(RB3LYP) =  -548.777219275     A.U. after   11 cycles
 SCF Done:  E(RB3LYP) =  -548.777225329     A.U. after   10 cycles
 SCF Done:  E(RB3LYP) =  -548.777566419     A.U. after    8 cycles
 SCF Done:  E(RB3LYP) =  -548.777566470     A.U. after    7 cycles
 SCF Done:  E(RB3LYP) =  -548.777566523     A.U. after    8 cycles
 SCF Done:  E(RB3LYP) =  -548.777566594     A.U. after    8 cycles
 SCF Done:  E(RB3LYP) =  -548.777566653     A.U. after    8 cycles
 SCF Done:  E(RB3LYP) =  -548.777566722     A.U. after    8 cycles
 Optimization completed.
    -- Stationary point found.
 Normal termination of Gaussian 16 at Tue Dec  8 19:33:30 2020.

 --------------------------------------------------------------------
 #N Geom=AllCheck Guess=TCheck SCRF=Check GenChk RB3LYP/6-31G(d) Freq
 --------------------------------------------------------------------

 Structure from the checkpoint file:  "JID_1212.chk"
 -------------------------------
 CID_133063637_JID_1212_neutraal
 -------------------------------
 Charge =  0 Multiplicity = 1

 SCF Done:  E(RB3LYP) =  -548.777566722     A.U. after    1 cycles

  Exact polarizability: 110.386   1.911 108.181  -7.043   5.266  50.047
 Approx polarizability: 169.995  14.077 181.269 -17.059   8.364  73.351

                      1                      2                      3
                      A                      A                      A
 Frequencies --     28.5039                90.9074               101.4618
 Red. masses --      4.0655                 3.1650                 1.9256
 Frc consts  --      0.0019                 0.0154                 0.0117
 IR Inten    --      0.9525                 3.5458                29.7357

                      4                      5                      6
                      A                      A                      A
 Frequencies --    112.6802               190.1272               201.7503
 Red. masses --      1.7871                 1.4608                 6.3945
 Frc consts  --      0.0134                 0.0311                 0.1533
 IR Inten    --     22.7691                 3.3794                 1.7658

                      7                      8                      9
                      A                      A                      A
 Frequencies --    248.0331               293.8721               319.1172
 Red. masses --      1.7701                 3.1047                 5.5696
 Frc consts  --      0.0642                 0.1580                 0.3342
 IR Inten    --      1.5095                 0.6730                 5.4878

                     10                     11                     12
                      A                      A                      A
 Frequencies --    383.4265               435.5474               467.0657
 Red. masses --      3.8342                 2.6934                 5.0912
 Frc consts  --      0.3321                 0.3010                 0.6544
 IR Inten    --      3.1852                12.6718                 1.0880

                     13                     14                     15
                      A                      A                      A
 Frequencies --    500.1213               554.7021               573.8104
 Red. masses --      5.0308                 6.2608                 1.4451
 Frc consts  --      0.7414                 1.1350                 0.2803
 IR Inten    --      6.7337                 5.9609                62.1713

                     16                     17                     18
                      A                      A                      A
 Frequencies --    602.5703               676.3411               769.1100
 Red. masses --      4.3579                 4.2482                 8.9176
 Frc consts  --      0.9323                 1.1449                 3.1079
 IR Inten    --      6.8790                 4.0468                62.4039

                     19                     20                     21
                      A                      A                      A
 Frequencies --    772.6638               779.9804               822.6247
 Red. masses --      5.5551                 3.2070                 1.1858
 Frc consts  --      1.9540                 1.1495                 0.4728
 IR Inten    --     17.8997               173.6969                 0.0347

                     22                     23                     24
                      A                      A                      A
 Frequencies --    832.2328               905.3391               949.9323
 Red. masses --      1.7709                 2.8168                 3.0887
 Frc consts  --      0.7227                 1.3603                 1.6421
 IR Inten    --    122.0041                 9.9255                22.7537

                     25                     26                     27
                      A                      A                      A
 Frequencies --    981.4147              1050.3410              1081.0830
 Red. masses --      1.4582                 4.4306                 4.6640
 Frc consts  --      0.8275                 2.8799                 3.2116
 IR Inten    --     12.1652                83.2252                12.4386

                     28                     29                     30
                      A                      A                      A
 Frequencies --   1125.9020              1157.2030              1205.2221
 Red. masses --      2.0450                 1.7862                 1.6063
 Frc consts  --      1.5274                 1.4093                 1.3747
 IR Inten    --     46.1113                11.0028                 4.8004

                     31                     32                     33
                      A                      A                      A
 Frequencies --   1271.9990              1306.6242              1329.9866
 Red. masses --      2.5262                 1.9720                 1.1609
 Frc consts  --      2.4082                 1.9836                 1.2099
 IR Inten    --    227.8753                26.4062                49.5794

                     34                     35                     36
                      A                      A                      A
 Frequencies --   1374.1467              1415.5973              1440.5823
 Red. masses --      1.4787                 1.2804                 5.3815
 Frc consts  --      1.6451                 1.5117                 6.5800
 IR Inten    --     15.9394                 4.9358               118.6730

                     37                     38                     39
                      A                      A                      A
 Frequencies --   1446.3755              1496.7831              1518.0949
 Red. masses --      1.2706                 3.2377                 1.0770
 Frc consts  --      1.5661                 4.2737                 1.4624
 IR Inten    --     18.1502                17.7412                 6.9560

                     40                     41                     42
                      A                      A                      A
 Frequencies --   1532.1580              1555.3169              1593.8884
 Red. masses --      1.0509                 1.0978                 4.4614
 Frc consts  --      1.4535                 1.5646                 6.6778
 IR Inten    --      0.9667                 7.4507               540.8777

                     43                     44                     45
                      A                      A                      A
 Frequencies --   1685.7443              1711.0496              1814.8483
 Red. masses --      1.2390                 4.2588                10.0255
 Frc consts  --      2.0745                 7.3463                19.4553
 IR Inten    --     24.2760               126.0133               660.3949

                     46                     47                     48
                      A                      A                      A
 Frequencies --   3053.5925              3066.8902              3131.9043
 Red. masses --      1.0711                 1.0356                 1.0992
 Frc consts  --      5.8845                 5.7393                 6.3526
 IR Inten    --     35.1447                 9.0600                 0.8428

                     49                     50                     51
                      A                      A                      A
 Frequencies --   3138.0983              3139.7735              3153.6766
 Red. masses --      1.0897                 1.1005                 1.1022
 Frc consts  --      6.3223                 6.3920                 6.4589
 IR Inten    --     33.0145                18.2860                30.4130

                     52                     53                     54
                      A                      A                      A
 Frequencies --   3503.0862              3603.3287              3625.1439
 Red. masses --      1.0507                 1.0928                 1.0769
 Frc consts  --      7.5969                 8.3601                 8.3384
 IR Inten    --      2.1666                 9.8681                40.7830

 - Thermochemistry -
 -------------------
 Temperature   298.150 Kelvin.  Pressure   1.00000 Atm.
 Atom     1 has atomic number  6 and mass  12.00000

 Molecular mass:   155.06948 amu.
 Principal axes and moments of inertia in atomic units:
                           1         2         3
     Eigenvalues --  1239.687131846.910962885.71097
           X            0.99508  -0.09885   0.00706
           Y            0.09881   0.99509   0.00565
           Z           -0.00759  -0.00492   0.99996
 This molecule is an asymmetric top.
 Rotational symmetry number  1.
 Warning -- assumption of classical behavior for rotation
           may cause significant error
 Rotational temperatures (Kelvin)      0.06987     0.04690     0.03001
 Rotational constants (GHZ):           1.45580     0.97717     0.62541
 Zero-point vibrational energy     419421.4 (Joules/Mol)
                                  100.24411 (Kcal/Mol)
 Warning -- explicit consideration of  16 degrees of freedom as
           vibrations may cause significant error
 Vibrational temperatures:     41.01   130.80   145.98   162.12   273.55
          (Kelvin)            290.27   356.86   422.82   459.14   551.67
                              626.66   672.00   719.56   798.09   825.59
                              866.96   973.10  1106.58  1111.69  1122.22
                             1183.57  1197.40  1302.58  1366.74  1412.04
                             1511.21  1555.44  1619.92  1664.96  1734.05
                             1830.12  1879.94  1913.55  1977.09  2036.73
                             2072.68  2081.01  2153.54  2184.20  2204.43
                             2237.75  2293.25  2425.41  2461.82  2611.16
                             4393.44  4412.57  4506.11  4515.02  4517.43
                             4537.44  5040.16  5184.39  5215.77

 Zero-point correction=                           0.159749 (Hartree/Particle)
 Thermal correction to Energy=                    0.170565
 Thermal correction to Enthalpy=                  0.171509
 Thermal correction to Gibbs Free Energy=         0.122397
 Sum of electronic and zero-point Energies=           -548.617818
 Sum of electronic and thermal Energies=              -548.607001
 Sum of electronic and thermal Enthalpies=            -548.606057
 Sum of electronic and thermal Free Energies=         -548.655170

                     E (Thermal)             CV                S
                      KCal/Mol        Cal/Mol-Kelvin    Cal/Mol-Kelvin
 Total                  107.031             39.364            103.366
 Electronic               0.000              0.000              0.000
 Translational            0.889              2.981             41.026
 Rotational               0.889              2.981             30.270
 Vibrational            105.254             33.402             32.070
 Vibration     1          0.593              1.984              5.931
 Vibration     2          0.602              1.956              3.640
 Vibration     3          0.604              1.948              3.426
 Vibration     4          0.607              1.939              3.222
 Vibration     5          0.633              1.853              2.227
 Vibration     6          0.639              1.837              2.117
 Vibration     7          0.662              1.766              1.745
 Vibration     8          0.689              1.685              1.452
 Vibration     9          0.705              1.637              1.315
 Vibration    10          0.753              1.506              1.026
 Vibration    11          0.796              1.393              0.841
 Vibration    12          0.824              1.323              0.746
 Vibration    13          0.856              1.250              0.658
 Vibration    14          0.910              1.129              0.535
 Vibration    15          0.930              1.088              0.497
 Vibration    16          0.961              1.026              0.445

                           ! Non-Optimized Parameters !
 Normal termination of Gaussian 16 at Tue Dec  8 19:37:16 2020.

 ----------------------------------------------------------------------
 # B3LYP/6-311++G(d,p) empiricaldispersion=gd3bj scf=xqc pop=npa geom=c
 heck
 ----------------------------------------------------------------------

 ---------------------------------------
 CID_133063637_JID_1212_Energie_neutraal
 ---------------------------------------
 Structure from the checkpoint file:  "JID_1212.chk"
 Charge =  0 Multiplicity = 1

 SCF Done:  E(RB3LYP) =  -548.945340702     A.U. after   16 cycles
 Normal termination of Gaussian 16 at Tue Dec  8 19:38:59 2020.

 ----------------------------------------------------------------------
 # B3LYP/6-311++G(d,p) empiricaldispersion=gd3bj scf=xqc pop=npa geom=c
 heck
 ----------------------------------------------------------------------

 -------------------------------------
 CID_133063637_JID_1212_Energie_kation
 -------------------------------------
 Structure from the checkpoint file:  "JID_1212.chk"
 Charge =  1 Multiplicity = 2

 SCF Done:  E(UB3LYP) =  -548.661693944     A.U. after   23 cycles
 Normal termination of Gaussian 16 at Tue Dec  8 19:42:32 2020.
 Gaussian 16:  ES64L-G16RevA.03 25-Dec-2016

 ----------------------------------------------------------------------
 # B3LYP/6-311++G(d,p) empiricaldispersion=gd3bj scf=xqc pop=npa geom=c
 heck
 ----------------------------------------------------------------------

 ------------------------------------
 CID_133063637_JID_1212_Energie_anion
 ------------------------------------
 Structure from the checkpoint file:  "JID_1212.chk"
 Charge = -1 Multiplicity = 2

                         Standard orientation:
 ---------------------------------------------------------------------
 Center     Atomic      Atomic             Coordinates (Angstroms)
 Number     Number       Type             X           Y           Z
 ---------------------------------------------------------------------
      1          6           0        2.824146   -1.015353    0.907522
      2          6           0        2.551004   -0.472033   -0.487654
      3          8           0        1.593879    0.604797   -0.478802
      4          6           0        0.289968    0.360921   -0.234931
      5          6           0       -0.560043    1.416267    0.021528
      6          6           0       -1.915339    1.059693    0.227252
      7          7           0       -2.425076   -0.151970    0.229275
      8          6           0       -1.599529   -1.221460   -0.034211
      9          8           0       -1.925232   -2.396046   -0.080418
     10          7           0       -0.226383   -0.895858   -0.280792
     11          7           0       -0.134702    2.767468    0.014121
     12          1           0        3.166509   -0.211224    1.565528
     13          1           0        3.606465   -1.780327    0.858820
     14          1           0        1.932483   -1.467459    1.351875
     15          1           0        3.445922   -0.015358   -0.914171
     16          1           0        2.225344   -1.255559   -1.183629
     17          1           0       -2.616467    1.875207    0.417028
     18          1           0        0.348025   -1.697889   -0.501622
     19          1           0        0.866457    2.833459   -0.138407
     20          1           0       -0.362009    3.243447    0.883076
 ---------------------------------------------------------------------

 SCF Done:  E(UB3LYP) =  -548.946731304     A.U. after   31 cycles

 The electronic state is 2-A.
 Alpha  occ. eigenvalues --  -19.06643 -18.95255 -14.24287 -14.20427 -14.16331
 Alpha  occ. eigenvalues --  -10.16140 -10.15972 -10.13883 -10.08368 -10.08045
 Alpha  occ. eigenvalues --  -10.06929  -0.98899  -0.91934  -0.83701  -0.79691
 Alpha  occ. eigenvalues --   -0.77078  -0.68409  -0.62880  -0.56910  -0.53158
 Alpha  occ. eigenvalues --   -0.51087  -0.45654  -0.43211  -0.40939  -0.37659
 Alpha  occ. eigenvalues --   -0.37109  -0.36235  -0.34647  -0.32560  -0.31498
 Alpha  occ. eigenvalues --   -0.30099  -0.29215  -0.27487  -0.26477  -0.24594
 Alpha  occ. eigenvalues --   -0.22563  -0.19128  -0.17491  -0.14729  -0.13307
 Alpha  occ. eigenvalues --   -0.08108   0.04033
 Alpha virt. eigenvalues --    0.06324   0.07298   0.08638   0.09074   0.10509
 Alpha virt. eigenvalues --    0.11085   0.12125   0.13062   0.13853   0.14301
 Alpha virt. eigenvalues --    0.14872   0.15771   0.16248   0.17080   0.17953

  Beta  occ. eigenvalues --  -19.06618 -18.95226 -14.24176 -14.20412 -14.16209
  Beta  occ. eigenvalues --  -10.16113 -10.15726 -10.13854 -10.08462 -10.07772
  Beta  occ. eigenvalues --  -10.06871  -0.98770  -0.91824  -0.83519  -0.79630
  Beta  occ. eigenvalues --   -0.76760  -0.68273  -0.62669  -0.56629  -0.52901
  Beta  occ. eigenvalues --   -0.50942  -0.45538  -0.43109  -0.40835  -0.37413
  Beta  occ. eigenvalues --   -0.36959  -0.36112  -0.34503  -0.32169  -0.31358
  Beta  occ. eigenvalues --   -0.29981  -0.29137  -0.27384  -0.26112  -0.24512
  Beta  occ. eigenvalues --   -0.22122  -0.18580  -0.17003  -0.14623  -0.13183
  Beta  occ. eigenvalues --   -0.07626
  Beta virt. eigenvalues --    0.06990   0.07819   0.08674   0.09296   0.09651
  Beta virt. eigenvalues --    0.10893   0.11578   0.12384   0.13361   0.13855
  Beta virt. eigenvalues --    0.14596   0.15077   0.15775   0.16325   0.17105

 Mulliken charges and spin densities:
               1          2
     1  C    0.997534  -1.385604
     2  C    0.045816  -0.294537
     3  O   -0.165563   0.031210
     4  C   -0.176187  -0.052462
     5  C    0.356381  -0.047197
     6  C   -0.015994   0.109944
     7  N   -0.266851   0.036506
     8  C    0.215811  -0.001305
     9  O   -0.406474   0.009498
    10  N   -0.335958   0.027191
    11  N   -0.399914  -0.020898
    12  H   -0.141564   0.295697
    13  H   -0.582888   0.736173
    14  H   -0.126288   0.279641
    15  H   -0.736077   0.936036
    16  H    0.039213   0.087870
    17  H    0.132573   0.018752
    18  H    0.370243  -0.059214
    19  H    0.151801   0.103651
    20  H    0.044388   0.189048
 Sum of Mulliken charges =  -1.00000   1.00000

 Dipole moment (field-independent basis, Debye):
    X=             -0.2880    Y=              2.8950    Z=             -0.7661  Tot=              3.0085
 Quadrupole moment (field-independent basis, Debye-Ang):
   XX=           -131.6126   YY=           -100.9645   ZZ=            -80.5955
   XY=             -4.3551   XZ=             -1.4935   YZ=              3.6507

 Summary of Natural Population Analysis:

                                       Natural Population
                Natural  -----------------------------------------------
    Atom  No    Charge         Core      Valence    Rydberg      Total
 -----------------------------------------------------------------------
      C    1   -0.30272      0.99966     2.29784    0.00521     3.30272
      C    2   -0.01268      0.99958     2.00083    0.01227     3.01268
      O    3   -0.27383      0.99985     3.26441    0.00957     4.27383
      C    4    0.31280      0.99940     1.67308    0.01472     2.68720
      C    5   -0.03168      0.99944     2.02072    0.01152     3.03168
      C    6    0.10060      0.99959     1.88325    0.01656     2.89940
      N    7   -0.27197      0.99967     2.76167    0.01062     3.77197
      C    8    0.38963      0.99971     1.58601    0.02465     2.61037
      O    9   -0.33559      0.99987     3.32987    0.00584     4.33559
      N   10   -0.30151      0.99964     2.79469    0.00718     3.80151
      N   11   -0.41224      0.99974     2.90143    0.01107     3.91224
      H   12    0.10464      0.00000     0.39367    0.00169     0.39536
      H   13    0.10803      0.00000     0.38885    0.00312     0.39197
      H   14    0.10205      0.00000     0.39662    0.00133     0.39795
      H   15    0.09843      0.00000     0.39907    0.00249     0.40157
      H   16    0.07992      0.00000     0.41853    0.00155     0.42008
      H   17    0.08037      0.00000     0.41812    0.00151     0.41963
      H   18    0.20101      0.00000     0.29601    0.00299     0.29899
      H   19    0.18621      0.00000     0.31196    0.00183     0.31379
      H   20    0.17852      0.00000     0.31979    0.00169     0.32148
 =======================================================================
   * Total *    0.00000     10.99616    29.85644    0.14740    41.00000

 Normal termination of Gaussian 16 at Tue Dec  8 19:47:37 2020.
