 Gaussian 16, Revision A.03,

 -----------------------------------------------------------
 # opt freq B3LYP/6-31G(d) empiricaldispersion=gd3bj scf=xqc
 -----------------------------------------------------------

 -------------------------------
 CID_116261344_JID_7475_neutraal
 -------------------------------
 Symbolic Z-matrix:
 Charge =  0 Multiplicity = 1

 SCF Done:  E(RB3LYP) =  -1179.43535961     A.U. after   15 cycles
 SCF Done:  E(RB3LYP) =  -1179.44208423     A.U. after   13 cycles
 SCF Done:  E(RB3LYP) =  -1179.44160905     A.U. after   13 cycles
 SCF Done:  E(RB3LYP) =  -1179.44322148     A.U. after   13 cycles
 SCF Done:  E(RB3LYP) =  -1179.44380230     A.U. after   13 cycles
 SCF Done:  E(RB3LYP) =  -1179.44441492     A.U. after   13 cycles
 SCF Done:  E(RB3LYP) =  -1179.44463866     A.U. after   12 cycles
 SCF Done:  E(RB3LYP) =  -1179.44483274     A.U. after   12 cycles
 SCF Done:  E(RB3LYP) =  -1179.44490524     A.U. after   11 cycles
 SCF Done:  E(RB3LYP) =  -1179.44494727     A.U. after   11 cycles
 SCF Done:  E(RB3LYP) =  -1179.44500860     A.U. after   12 cycles
 SCF Done:  E(RB3LYP) =  -1179.44501426     A.U. after   11 cycles
 SCF Done:  E(RB3LYP) =  -1179.44501484     A.U. after    8 cycles
 SCF Done:  E(RB3LYP) =  -1179.44501487     A.U. after    8 cycles
 SCF Done:  E(RB3LYP) =  -1179.44501494     A.U. after    7 cycles
 Optimization completed.
    -- Stationary point found.
 Normal termination of Gaussian 16 at Fri Dec 11 13:30:03 2020.

 --------------------------------------------------------------------
 #N Geom=AllCheck Guess=TCheck SCRF=Check GenChk RB3LYP/6-31G(d) Freq
 --------------------------------------------------------------------

 Structure from the checkpoint file:  "JID_7475.chk"
 -------------------------------
 CID_116261344_JID_7475_neutraal
 -------------------------------
 Charge =  0 Multiplicity = 1

 SCF Done:  E(RB3LYP) =  -1179.44501494     A.U. after    1 cycles

  Exact polarizability: 181.224  15.469 132.222 -12.482   7.019 134.473
 Approx polarizability: 258.203  15.473 196.739 -34.972  22.653 225.287

                      1                      2                      3
                      A                      A                      A
 Frequencies --     14.4918                28.0973                30.0866
 Red. masses --      4.4382                 5.0170                 3.5176
 Frc consts  --      0.0005                 0.0023                 0.0019
 IR Inten    --      3.6738                 1.3175                 1.5409

                      4                      5                      6
                      A                      A                      A
 Frequencies --     53.7070                66.0844                72.1208
 Red. masses --      3.6557                 3.4762                 4.7542
 Frc consts  --      0.0062                 0.0089                 0.0146
 IR Inten    --      1.7724                 0.3521                 2.4738

                      7                      8                      9
                      A                      A                      A
 Frequencies --    106.2360               136.0736               140.9447
 Red. masses --      4.6044                 3.3503                 2.9184
 Frc consts  --      0.0306                 0.0365                 0.0342
 IR Inten    --      1.4858                 1.2124                 3.3413

                     10                     11                     12
                      A                      A                      A
 Frequencies --    162.7483               187.2510               211.9929
 Red. masses --      3.0114                 3.3496                 1.8194
 Frc consts  --      0.0470                 0.0692                 0.0482
 IR Inten    --      1.2292                 2.2399                 6.1029

                     13                     14                     15
                      A                      A                      A
 Frequencies --    236.4230               248.1104               275.1203
 Red. masses --      1.2929                 3.3355                 1.6463
 Frc consts  --      0.0426                 0.1210                 0.0734
 IR Inten    --      2.0755                 5.0511                38.1880

                     16                     17                     18
                      A                      A                      A
 Frequencies --    287.4449               299.6184               312.6799
 Red. masses --      2.3661                 2.9553                 3.6527
 Frc consts  --      0.1152                 0.1563                 0.2104
 IR Inten    --     13.2437                 4.2478                 8.7356

                     19                     20                     21
                      A                      A                      A
 Frequencies --    332.5629               340.5223               348.6612
 Red. masses --      2.3131                 2.0097                 3.9685
 Frc consts  --      0.1507                 0.1373                 0.2842
 IR Inten    --     11.6929                23.3592                 3.1458

                     22                     23                     24
                      A                      A                      A
 Frequencies --    390.8781               436.2656               467.6097
 Red. masses --      6.4003                 2.9340                 3.2350
 Frc consts  --      0.5761                 0.3290                 0.4168
 IR Inten    --      3.9418                 0.9607                 3.4746

                     25                     26                     27
                      A                      A                      A
 Frequencies --    487.2984               548.5242               590.3490
 Red. masses --      3.8966                 3.9185                 4.6908
 Frc consts  --      0.5452                 0.6946                 0.9632
 IR Inten    --      4.3985                 2.5777                 8.4390

                     28                     29                     30
                      A                      A                      A
 Frequencies --    649.5974               656.2390               667.1192
 Red. masses --      4.1105                 3.0433                 4.9435
 Frc consts  --      1.0220                 0.7722                 1.2963
 IR Inten    --     11.5378                 6.4069                 9.0914

                     31                     32                     33
                      A                      A                      A
 Frequencies --    676.2835               746.4973               759.3830
 Red. masses --      5.0985                 4.1677                 5.8461
 Frc consts  --      1.3739                 1.3684                 1.9863
 IR Inten    --     33.6322                28.3763                 9.3848

                     34                     35                     36
                      A                      A                      A
 Frequencies --    777.4610               780.0054               784.2045
 Red. masses --      1.7995                 1.2880                 1.3404
 Frc consts  --      0.6409                 0.4617                 0.4857
 IR Inten    --     25.0475                53.6018                26.8246

                     37                     38                     39
                      A                      A                      A
 Frequencies --    788.8989               846.8068               893.9540
 Red. masses --      1.7648                 1.9291                 2.7263
 Frc consts  --      0.6471                 0.8150                 1.2837
 IR Inten    --     91.1160                 4.7779                 0.6041

                     40                     41                     42
                      A                      A                      A
 Frequencies --    899.1302               953.0315               987.1702
 Red. masses --      2.0628                 2.0253                 1.6706
 Frc consts  --      0.9826                 1.0838                 0.9592
 IR Inten    --     27.8905                22.4720                 1.1390

                     43                     44                     45
                      A                      A                      A
 Frequencies --    996.4030              1026.9435              1049.8415
 Red. masses --      2.4764                 2.2989                 3.3853
 Frc consts  --      1.4486                 1.4284                 2.1983
 IR Inten    --     27.6557                 3.7247                26.2050

                     46                     47                     48
                      A                      A                      A
 Frequencies --   1057.1750              1076.6565              1083.8627
 Red. masses --      3.0939                 3.0942                 1.7542
 Frc consts  --      2.0372                 2.1133                 1.2142
 IR Inten    --     55.4204                73.5971                13.6709

                     49                     50                     51
                      A                      A                      A
 Frequencies --   1129.0100              1134.9350              1157.5586
 Red. masses --      2.2068                 2.4853                 1.8329
 Frc consts  --      1.6573                 1.8861                 1.4470
 IR Inten    --     67.0368               289.2527               140.5075

                     52                     53                     54
                      A                      A                      A
 Frequencies --   1205.6646              1209.7731              1218.5674
 Red. masses --      2.0863                 2.0649                 1.6913
 Frc consts  --      1.7868                 1.7806                 1.4797
 IR Inten    --     49.0098                 3.7227                12.9361

                     55                     56                     57
                      A                      A                      A
 Frequencies --   1252.6979              1279.7891              1296.8820
 Red. masses --      1.6760                 1.2553                 1.6970
 Frc consts  --      1.5496                 1.2113                 1.6817
 IR Inten    --     64.2961                 3.9154                 3.0462

                     58                     59                     60
                      A                      A                      A
 Frequencies --   1314.5622              1326.7736              1343.8744
 Red. masses --      1.5737                 1.5443                 1.1067
 Frc consts  --      1.6023                 1.6017                 1.1776
 IR Inten    --      8.4985                 0.9792                 6.9221

                     61                     62                     63
                      A                      A                      A
 Frequencies --   1376.4093              1402.1517              1416.3105
 Red. masses --      1.5946                 2.2227                 1.3610
 Frc consts  --      1.7799                 2.5747                 1.6085
 IR Inten    --     34.7641                36.0207                10.1393

                     64                     65                     66
                      A                      A                      A
 Frequencies --   1426.0015              1432.4575              1443.8882
 Red. masses --      1.8379                 1.2130                 1.3959
 Frc consts  --      2.2019                 1.4665                 1.7146
 IR Inten    --     18.4485                 8.4989                13.3332

                     67                     68                     69
                      A                      A                      A
 Frequencies --   1483.7838              1489.7766              1505.5907
 Red. masses --      1.1000                 1.1366                 1.8814
 Frc consts  --      1.4269                 1.4862                 2.5127
 IR Inten    --     21.6242                 2.4026                74.6805

                     70                     71                     72
                      A                      A                      A
 Frequencies --   1514.8811              1516.3905              1518.8180
 Red. masses --      1.0656                 1.5429                 1.1778
 Frc consts  --      1.4408                 2.0903                 1.6008
 IR Inten    --     17.4723                14.0007                23.0606

                     73                     74                     75
                      A                      A                      A
 Frequencies --   1530.0333              1533.6766              1538.2654
 Red. masses --      1.0463                 1.0498                 1.0583
 Frc consts  --      1.4431                 1.4548                 1.4754
 IR Inten    --      7.1021                 2.8695                 7.2479

                     76                     77                     78
                      A                      A                      A
 Frequencies --   1575.5165              1597.4980              1689.4260
 Red. masses --      4.2898                 3.2571                 1.3826
 Frc consts  --      6.2738                 4.8974                 2.3249
 IR Inten    --    106.9704                35.7761               121.9861

                     79                     80                     81
                      A                      A                      A
 Frequencies --   1822.7950              3060.2101              3063.3397
 Red. masses --     11.8608                 1.0365                 1.0346
 Frc consts  --     23.2188                 5.7188                 5.7200
 IR Inten    --    400.6627                17.4477                14.2401

                     82                     83                     84
                      A                      A                      A
 Frequencies --   3074.6993              3085.3922              3090.6330
 Red. masses --      1.0638                 1.0664                 1.0596
 Frc consts  --      5.9256                 5.9813                 5.9634
 IR Inten    --     26.7889                 6.7444                 6.6518

                     85                     86                     87
                      A                      A                      A
 Frequencies --   3091.9236              3124.2464              3124.8017
 Red. masses --      1.0599                 1.1028                 1.1022
 Frc consts  --      5.9703                 6.3422                 6.3408
 IR Inten    --     35.4462                26.4558                 7.2633

                     88                     89                     90
                      A                      A                      A
 Frequencies --   3130.1825              3140.2819              3141.9482
 Red. masses --      1.1009                 1.1032                 1.1025
 Frc consts  --      6.3553                 6.4099                 6.4125
 IR Inten    --     21.3570                 4.3131                11.8612

                     91                     92                     93
                      A                      A                      A
 Frequencies --   3150.9223              3159.3551              3165.4163
 Red. masses --      1.1048                 1.1066                 1.0995
 Frc consts  --      6.4624                 6.5077                 6.4907
 IR Inten    --      6.6234                22.4099                 1.3976

                     94                     95                     96
                      A                      A                      A
 Frequencies --   3257.7172              3516.4394              3614.2260
 Red. masses --      1.0966                 1.0477                 1.0972
 Frc consts  --      6.8570                 7.6332                 8.4447
 IR Inten    --      0.5884                43.5475                57.0882

 - Thermochemistry -
 -------------------
 Temperature   298.150 Kelvin.  Pressure   1.00000 Atm.
 Atom     1 has atomic number  6 and mass  12.00000

 Molecular mass:   259.09906 amu.
 Principal axes and moments of inertia in atomic units:
                           1         2         3
     Eigenvalues --  2615.509207401.584308087.81673
           X            0.99932   0.03446   0.01289
           Y           -0.03361   0.99754  -0.06155
           Z           -0.01498   0.06108   0.99802
 This molecule is an asymmetric top.
 Rotational symmetry number  1.
 Warning -- assumption of classical behavior for rotation
           may cause significant error
 Rotational temperatures (Kelvin)      0.03312     0.01170     0.01071
 Rotational constants (GHZ):           0.69002     0.24383     0.22314
 Zero-point vibrational energy     733574.4 (Joules/Mol)
                                  175.32849 (Kcal/Mol)
 Warning -- explicit consideration of  27 degrees of freedom as
           vibrations may cause significant error
 Vibrational temperatures:     20.85    40.43    43.29    77.27    95.08
          (Kelvin)            103.77   152.85   195.78   202.79   234.16
                              269.41   305.01   340.16   356.98   395.84
                              413.57   431.08   449.88   478.48   489.94
                              501.65   562.39   627.69   672.79   701.11
                              789.20   849.38   934.63   944.18   959.84
                              973.02  1074.04  1092.58  1118.59  1122.25
                             1128.30  1135.05  1218.37  1286.20  1293.65
                             1371.20  1420.32  1433.60  1477.54  1510.49
                             1521.04  1549.07  1559.44  1624.39  1632.92
                             1665.47  1734.68  1740.59  1753.25  1802.35
                             1841.33  1865.92  1891.36  1908.93  1933.54
                             1980.35  2017.38  2037.75  2051.70  2060.99
                             2077.43  2134.83  2143.46  2166.21  2179.58
                             2181.75  2185.24  2201.38  2206.62  2213.22
                             2266.82  2298.44  2430.71  2622.60  4402.96
                             4407.46  4423.81  4439.19  4446.73  4448.59
                             4495.09  4495.89  4503.63  4518.17  4520.56
                             4533.47  4545.61  4554.33  4687.13  5059.37
                             5200.07

 Zero-point correction=                           0.279404 (Hartree/Particle)
 Thermal correction to Energy=                    0.298128
 Thermal correction to Enthalpy=                  0.299072
 Thermal correction to Gibbs Free Energy=         0.229817
 Sum of electronic and zero-point Energies=          -1179.165611
 Sum of electronic and thermal Energies=             -1179.146887
 Sum of electronic and thermal Enthalpies=           -1179.145943
 Sum of electronic and thermal Free Energies=        -1179.215198

                     E (Thermal)             CV                S
                      KCal/Mol        Cal/Mol-Kelvin    Cal/Mol-Kelvin
 Total                  187.078             67.733            145.758
 Electronic               0.000              0.000              0.000
 Translational            0.889              2.981             42.556
 Rotational               0.889              2.981             33.415
 Vibrational            185.300             61.771             69.788
 Vibration     1          0.593              1.986              7.274
 Vibration     2          0.593              1.984              5.959
 Vibration     3          0.594              1.984              5.824
 Vibration     4          0.596              1.976              4.676
 Vibration     5          0.597              1.970              4.267
 Vibration     6          0.598              1.967              4.095
 Vibration     7          0.605              1.944              3.337
 Vibration     8          0.614              1.917              2.858
 Vibration     9          0.615              1.912              2.791
 Vibration    10          0.623              1.888              2.518
 Vibration    11          0.632              1.857              2.255
 Vibration    12          0.643              1.823              2.026
 Vibration    13          0.655              1.785              1.830
 Vibration    14          0.662              1.766              1.744
 Vibration    15          0.677              1.719              1.564
 Vibration    16          0.685              1.697              1.489
 Vibration    17          0.692              1.674              1.419
 Vibration    18          0.701              1.650              1.348
 Vibration    19          0.715              1.610              1.248
 Vibration    20          0.720              1.595              1.210
 Vibration    21          0.726              1.578              1.172
 Vibration    22          0.759              1.490              0.997
 Vibration    23          0.797              1.391              0.838
 Vibration    24          0.825              1.322              0.744
 Vibration    25          0.843              1.278              0.691
 Vibration    26          0.904              1.143              0.547
 Vibration    27          0.948              1.052              0.467

 Optimization completed.
    -- Stationary point found.
 Normal termination of Gaussian 16 at Fri Dec 11 13:42:57 2020.

 ----------------------------------------------------------------------
 # B3LYP/6-311++G(d,p) empiricaldispersion=gd3bj scf=xqc pop=npa geom=c
 heck
 ----------------------------------------------------------------------

 ---------------------------------------
 CID_116261344_JID_7475_Energie_neutraal
 ---------------------------------------
 Structure from the checkpoint file:  "JID_7475.chk"
 Charge =  0 Multiplicity = 1

 SCF Done:  E(RB3LYP) =  -1179.70467581     A.U. after   15 cycles
 Normal termination of Gaussian 16 at Fri Dec 11 13:49:10 2020.

 ----------------------------------------------------------------------
 # B3LYP/6-311++G(d,p) empiricaldispersion=gd3bj scf=xqc pop=npa geom=c
 heck
 ----------------------------------------------------------------------

 -------------------------------------
 CID_116261344_JID_7475_Energie_kation
 -------------------------------------
 Structure from the checkpoint file:  "JID_7475.chk"
 Charge =  1 Multiplicity = 2

 SCF Done:  E(UB3LYP) =  -1179.41288925     A.U. after   24 cycles
 Normal termination of Gaussian 16 at Fri Dec 11 14:03:32 2020.
 Gaussian 16:  ES64L-G16RevA.03 25-Dec-2016

 ----------------------------------------------------------------------
 # B3LYP/6-311++G(d,p) empiricaldispersion=gd3bj scf=xqc pop=npa geom=c
 heck
 ----------------------------------------------------------------------

 ------------------------------------
 CID_116261344_JID_7475_Energie_anion
 ------------------------------------
 Structure from the checkpoint file:  "JID_7475.chk"
 Charge = -1 Multiplicity = 2

                         Standard orientation:
 ---------------------------------------------------------------------
 Center     Atomic      Atomic             Coordinates (Angstroms)
 Number     Number       Type             X           Y           Z
 ---------------------------------------------------------------------
      1          6           0       -4.189621   -2.222214    0.040296
      2          6           0       -4.233556   -0.910720   -0.727167
      3          8           0       -2.943752   -0.259218   -0.721707
      4          6           0       -2.656622    0.493422    0.397955
      5          8           0       -3.438963    0.636498    1.311462
      6          6           0       -1.315928    1.061141    0.304123
      7          6           0       -0.391460    0.921191   -0.730449
      8          7           0        0.712250    1.645118   -0.340645
      9          6           0        0.408765    2.187648    0.903116
     10          7           0       -0.782491    1.857605    1.309954
     11          6           0        2.016135    1.678235   -0.987258
     12          6           0        3.049257    0.760468   -0.335593
     13         16           0        2.764118   -1.060668   -0.580134
     14          8           0        4.076229   -1.712973   -0.188862
     15          6           0        1.594463   -1.381409    0.821797
     16          6           0        2.236228   -1.170239    2.186002
     17          7           0       -0.399944    0.143739   -1.873960
     18          1           0       -3.416615   -2.883964   -0.364445
     19          1           0       -5.156094   -2.733311   -0.035367
     20          1           0       -3.979718   -2.035144    1.096522
     21          1           0       -4.455378   -1.069451   -1.785651
     22          1           0       -4.971210   -0.227879   -0.300278
     23          1           0        1.111408    2.825350    1.423192
     24          1           0        1.889049    1.415921   -2.040764
     25          1           0        2.382948    2.709807   -0.957255
     26          1           0        4.021738    0.907548   -0.815813
     27          1           0        3.167156    0.968134    0.730905
     28          1           0        0.693723   -0.784580    0.666435
     29          1           0        1.330929   -2.434124    0.674961
     30          1           0        2.309641   -0.108881    2.441861
     31          1           0        1.631943   -1.651900    2.961143
     32          1           0        3.238385   -1.609754    2.197476
     33          1           0       -1.318789   -0.267801   -2.008296
     34          1           0       -0.067779    0.605880   -2.714008
 ---------------------------------------------------------------------

 SCF Done:  E(UB3LYP) =  -1179.70424963     A.U. after   33 cycles
 SCF Done:  E(UB3LYP) =  -1179.70424963     a.u. after    1 cycles

 The electronic state is 2-A.
 Alpha  occ. eigenvalues --  -88.85513 -19.07463 -19.01196 -18.99121 -14.28846
 Alpha  occ. eigenvalues --  -14.23577 -14.21357 -10.20680 -10.16630 -10.14420
 Alpha  occ. eigenvalues --  -10.14099 -10.13932 -10.11900 -10.11492 -10.10318
 Alpha  occ. eigenvalues --  -10.08901 -10.08705  -7.93237  -5.89500  -5.89376
 Alpha  occ. eigenvalues --   -5.88811  -1.00947  -0.94555  -0.92469  -0.92092
 Alpha  occ. eigenvalues --   -0.83366  -0.80712  -0.72011  -0.69579  -0.69254
 Alpha  occ. eigenvalues --   -0.65583  -0.61789  -0.58592  -0.57243  -0.53494
 Alpha  occ. eigenvalues --   -0.51006  -0.48836  -0.47688  -0.45661  -0.43311
 Alpha  occ. eigenvalues --   -0.41222  -0.40345  -0.39457  -0.38584  -0.38050
 Alpha  occ. eigenvalues --   -0.37777  -0.37000  -0.35945  -0.35343  -0.34171
 Alpha  occ. eigenvalues --   -0.33360  -0.32347  -0.32025  -0.31204  -0.30811
 Alpha  occ. eigenvalues --   -0.30102  -0.29225  -0.28324  -0.27549  -0.26728
 Alpha  occ. eigenvalues --   -0.26235  -0.24473  -0.21656  -0.19322  -0.19271
 Alpha  occ. eigenvalues --   -0.18929  -0.17693  -0.14467  -0.12578   0.03496
 Alpha virt. eigenvalues --    0.05425   0.06404   0.06813   0.07272   0.07814
 Alpha virt. eigenvalues --    0.08489   0.08983   0.09166   0.10134   0.10275
 Alpha virt. eigenvalues --    0.10522   0.11162   0.11284   0.11980   0.12361

  Beta  occ. eigenvalues --  -88.85509 -19.07456 -19.01188 -18.99113 -14.28849
  Beta  occ. eigenvalues --  -14.23501 -14.21342 -10.20673 -10.16625 -10.14407
  Beta  occ. eigenvalues --  -10.14017 -10.13921 -10.11885 -10.11487 -10.10318
  Beta  occ. eigenvalues --  -10.08900 -10.08694  -7.93233  -5.89497  -5.89372
  Beta  occ. eigenvalues --   -5.88806  -1.00933  -0.94538  -0.92454  -0.92070
  Beta  occ. eigenvalues --   -0.83281  -0.80664  -0.71985  -0.69554  -0.69210
  Beta  occ. eigenvalues --   -0.65547  -0.61737  -0.58564  -0.57198  -0.53467
  Beta  occ. eigenvalues --   -0.50968  -0.48763  -0.47643  -0.45577  -0.43245
  Beta  occ. eigenvalues --   -0.41181  -0.40309  -0.39411  -0.38558  -0.38008
  Beta  occ. eigenvalues --   -0.37733  -0.36972  -0.35916  -0.35308  -0.34143
  Beta  occ. eigenvalues --   -0.33326  -0.32327  -0.31999  -0.31163  -0.30753
  Beta  occ. eigenvalues --   -0.30068  -0.29203  -0.28308  -0.27532  -0.26704
  Beta  occ. eigenvalues --   -0.26213  -0.24420  -0.21633  -0.19302  -0.19233
  Beta  occ. eigenvalues --   -0.18914  -0.17669  -0.14445  -0.12537
  Beta virt. eigenvalues --    0.05737   0.06479   0.06958   0.07194   0.07708
  Beta virt. eigenvalues --    0.08124   0.09027   0.09117   0.09496   0.10158
  Beta virt. eigenvalues --    0.10309   0.10898   0.11321   0.11421   0.12199

 Mulliken charges and spin densities:
               1          2
     1  C   -0.130527  -0.203225
     2  C    0.059399  -0.271622
     3  O   -0.083347   0.006348
     4  C   -0.483043   0.134741
     5  O   -0.254092  -0.000752
     6  C    1.796927  -1.243705
     7  C   -1.060251   0.055668
     8  N    0.029839   0.124975
     9  C    0.297182  -0.197014
    10  N   -0.137849   0.071014
    11  C    1.298391  -1.548668
    12  C   -0.654619  -0.048643
    13  S    1.100602  -0.202660
    14  O   -0.481748   0.008824
    15  C   -0.569980   0.058605
    16  C   -0.518294   0.040742
    17  N   -0.399174   0.165050
    18  H    0.089690   0.047866
    19  H   -0.003935   0.136803
    20  H    0.108439   0.062162
    21  H   -0.305516   0.467269
    22  H    0.169734  -0.004417
    23  H   -0.143416   0.322891
    24  H   -0.535469   0.683543
    25  H   -0.840112   1.088715
    26  H   -0.126764   0.398135
    27  H    0.200850  -0.029926
    28  H    0.243368  -0.143877
    29  H    0.238460   0.007416
    30  H    0.142671   0.016325
    31  H    0.127758   0.012555
    32  H    0.184174   0.006978
    33  H    0.178403   0.151639
    34  H   -0.537752   0.826246
 Sum of Mulliken charges =  -1.00000   1.00000

 Dipole moment (field-independent basis, Debye):
    X=             -2.6528    Y=             -4.2278    Z=              5.1620  Tot=              7.1804
 Quadrupole moment (field-independent basis, Debye-Ang):
   XX=           -183.9559   YY=           -153.6669   ZZ=           -159.9300
   XY=              3.4153   XZ=             14.2248   YZ=              2.2274

 Summary of Natural Population Analysis:

                                       Natural Population
                Natural  -----------------------------------------------
    Atom  No    Charge         Core      Valence    Rydberg      Total
 -----------------------------------------------------------------------
      C    1   -0.29941      0.99966     2.29567    0.00408     3.29941
      C    2   -0.01629      0.99958     2.00492    0.01179     3.01629
      O    3   -0.30004      0.99987     3.29122    0.00896     4.30004
      C    4    0.38937      0.99961     1.58585    0.02517     2.61063
      O    5   -0.30435      0.99987     3.29960    0.00488     4.30435
      C    6   -0.04811      0.99940     2.03414    0.01456     3.04811
      C    7    0.19565      0.99948     1.78931    0.01555     2.80435
      N    8   -0.22752      0.99962     2.71206    0.01584     3.72752
      C    9    0.10531      0.99962     1.87853    0.01655     2.89469
      N   10   -0.22340      0.99970     2.71525    0.00845     3.72340
      C   11   -0.09675      0.99958     2.08169    0.01548     3.09675
      C   12   -0.28274      0.99957     2.27016    0.01301     3.28274
      S   13    0.59236      4.99946     2.35706    0.05113     7.40764
      O   14   -0.48823      0.99993     3.48202    0.00628     4.48823
      C   15   -0.27500      0.99959     2.26621    0.00920     3.27500
      C   16   -0.29904      0.99965     2.29394    0.00544     3.29904
      N   17   -0.40116      0.99970     2.89090    0.01056     3.90116
      H   18    0.09996      0.00000     0.39880    0.00124     0.40004
      H   19    0.09931      0.00000     0.39983    0.00085     0.40069
      H   20    0.10645      0.00000     0.39249    0.00106     0.39355
      H   21    0.09085      0.00000     0.40777    0.00138     0.40915
      H   22    0.09506      0.00000     0.40379    0.00115     0.40494
      H   23    0.09510      0.00000     0.40368    0.00122     0.40490
      H   24    0.11444      0.00000     0.37918    0.00638     0.38556
      H   25    0.11550      0.00000     0.37901    0.00549     0.38450
      H   26    0.11920      0.00000     0.37936    0.00144     0.38080
      H   27    0.10698      0.00000     0.39169    0.00133     0.39302
      H   28    0.11422      0.00000     0.38392    0.00186     0.38578
      H   29    0.10475      0.00000     0.39421    0.00103     0.39525
      H   30    0.09881      0.00000     0.40030    0.00089     0.40119
      H   31    0.10302      0.00000     0.39608    0.00090     0.39698
      H   32    0.11215      0.00000     0.38680    0.00105     0.38785
      H   33    0.20544      0.00000     0.29182    0.00274     0.29456
      H   34    0.19811      0.00000     0.29168    0.01020     0.30189
 =======================================================================
   * Total *   -0.00000     20.99391    47.72897    0.27712    69.00000

 Normal termination of Gaussian 16 at Fri Dec 11 14:23:12 2020.
