 Gaussian 16, Revision A.03,

 -----------------------------------------------------------
 # opt freq B3LYP/6-31G(d) empiricaldispersion=gd3bj scf=xqc
 -----------------------------------------------------------

 ------------------------------
 CID_84168053_JID_8591_neutraal
 ------------------------------
 Symbolic Z-matrix:
 Charge =  0 Multiplicity = 1

 SCF Done:  E(RB3LYP) =  -821.583584794     A.U. after   15 cycles
 SCF Done:  E(RB3LYP) =  -821.588868777     A.U. after   12 cycles
 SCF Done:  E(RB3LYP) =  -821.589532340     A.U. after   12 cycles
 SCF Done:  E(RB3LYP) =  -821.590259577     A.U. after   12 cycles
 SCF Done:  E(RB3LYP) =  -821.590799065     A.U. after   13 cycles
 SCF Done:  E(RB3LYP) =  -821.591084447     A.U. after   13 cycles
 SCF Done:  E(RB3LYP) =  -821.591324755     A.U. after   13 cycles
 SCF Done:  E(RB3LYP) =  -821.591498041     A.U. after   12 cycles
 SCF Done:  E(RB3LYP) =  -821.591574840     A.U. after   11 cycles
 SCF Done:  E(RB3LYP) =  -821.591651067     A.U. after   10 cycles
 SCF Done:  E(RB3LYP) =  -821.594336241     A.U. after   11 cycles
 SCF Done:  E(RB3LYP) =  -821.594351719     A.U. after   10 cycles
 SCF Done:  E(RB3LYP) =  -821.594360935     A.U. after   10 cycles
 SCF Done:  E(RB3LYP) =  -821.594362474     A.U. after   10 cycles
 Optimization completed.
    -- Stationary point found.
 Normal termination of Gaussian 16 at Fri Dec 11 20:37:34 2020.

 --------------------------------------------------------------------
 #N Geom=AllCheck Guess=TCheck SCRF=Check GenChk RB3LYP/6-31G(d) Freq
 --------------------------------------------------------------------

 Structure from the checkpoint file:  "JID_8591.chk"
 ------------------------------
 CID_84168053_JID_8591_neutraal
 ------------------------------
 Charge =  0 Multiplicity = 1

 SCF Done:  E(RB3LYP) =  -821.594362474     A.U. after    1 cycles

  Exact polarizability: 183.528  -5.398 155.630 -21.276   1.244 119.586
 Approx polarizability: 226.643 -12.432 264.716 -36.190   4.051 193.975

                      1                      2                      3
                      A                      A                      A
 Frequencies --     17.3561                33.4885                47.0888
 Red. masses --      4.4985                 5.5922                 4.4718
 Frc consts  --      0.0008                 0.0037                 0.0058
 IR Inten    --      1.7391                 1.3462                 2.6135

                      4                      5                      6
                      A                      A                      A
 Frequencies --     75.7519                81.8112               106.5512
 Red. masses --      5.1991                 4.9433                 3.3415
 Frc consts  --      0.0176                 0.0195                 0.0224
 IR Inten    --      1.3076                 3.4088                 1.1851

                      7                      8                      9
                      A                      A                      A
 Frequencies --    138.6193               161.1195               186.3041
 Red. masses --      2.5384                 2.8870                 3.2356
 Frc consts  --      0.0287                 0.0442                 0.0662
 IR Inten    --      3.2376                 3.4640                 0.1943

                     10                     11                     12
                      A                      A                      A
 Frequencies --    206.6929               225.0286               255.2810
 Red. masses --      3.9533                 3.2211                 3.6093
 Frc consts  --      0.0995                 0.0961                 0.1386
 IR Inten    --      2.7437                 2.9488                 1.2263

                     13                     14                     15
                      A                      A                      A
 Frequencies --    264.1735               305.9883               341.2478
 Red. masses --      1.7022                 3.6615                 2.6272
 Frc consts  --      0.0700                 0.2020                 0.1803
 IR Inten    --      1.5849                 8.7338                 2.7315

                     16                     17                     18
                      A                      A                      A
 Frequencies --    369.4357               415.9837               420.1866
 Red. masses --      2.4139                 3.1588                 2.6535
 Frc consts  --      0.1941                 0.3221                 0.2760
 IR Inten    --      1.1007                 3.4013                 0.9877

                     19                     20                     21
                      A                      A                      A
 Frequencies --    433.5081               474.3483               494.2958
 Red. masses --      2.4972                 2.6719                 4.9697
 Frc consts  --      0.2765                 0.3542                 0.7154
 IR Inten    --      8.1570                16.5894                12.0842

                     22                     23                     24
                      A                      A                      A
 Frequencies --    534.2625               551.5626               623.1225
 Red. masses --      4.0476                 4.3287                 3.1175
 Frc consts  --      0.6807                 0.7759                 0.7132
 IR Inten    --     13.2271                 8.8526                 8.8275

                     25                     26                     27
                      A                      A                      A
 Frequencies --    627.9446               647.2228               656.7392
 Red. masses --      4.6286                 5.2426                 1.1791
 Frc consts  --      1.0753                 1.2939                 0.2996
 IR Inten    --     21.2405                11.1113               165.6318

                     28                     29                     30
                      A                      A                      A
 Frequencies --    672.1793               744.2084               770.2133
 Red. masses --      3.6441                 2.9003                 2.1191
 Frc consts  --      0.9701                 0.9464                 0.7407
 IR Inten    --      2.0866                 8.3750                14.3897

                     31                     32                     33
                      A                      A                      A
 Frequencies --    783.4173               806.3024               831.8326
 Red. masses --      2.1996                 2.6225                 2.1239
 Frc consts  --      0.7954                 1.0045                 0.8659
 IR Inten    --      9.5158                 9.1948                 2.8539

                     34                     35                     36
                      A                      A                      A
 Frequencies --    844.2490               859.1248               875.3540
 Red. masses --      2.9777                 3.7260                 1.7882
 Frc consts  --      1.2505                 1.6203                 0.8073
 IR Inten    --      3.7508                 5.8541                59.3261

                     37                     38                     39
                      A                      A                      A
 Frequencies --    907.6067               926.5488               944.9490
 Red. masses --      2.3945                 1.3482                 1.9368
 Frc consts  --      1.1621                 0.6820                 1.0189
 IR Inten    --      8.9599                 4.4826                15.1996

                     40                     41                     42
                      A                      A                      A
 Frequencies --    955.7655               966.8190               980.3166
 Red. masses --      1.7224                 1.9407                 1.4335
 Frc consts  --      0.9270                 1.0688                 0.8117
 IR Inten    --      2.5515                10.1494                 1.5457

                     43                     44                     45
                      A                      A                      A
 Frequencies --   1006.7130              1014.6167              1017.0700
 Red. masses --      1.8301                 1.9904                 2.3101
 Frc consts  --      1.0928                 1.2073                 1.4079
 IR Inten    --     13.2469                 3.5301                 9.3271

                     46                     47                     48
                      A                      A                      A
 Frequencies --   1049.7901              1080.5140              1085.1220
 Red. masses --      1.8640                 2.3020                 2.1937
 Frc consts  --      1.2103                 1.5835                 1.5219
 IR Inten    --      9.5981                 5.2108                43.5290

                     49                     50                     51
                      A                      A                      A
 Frequencies --   1089.8963              1109.8998              1122.6385
 Red. masses --      2.5910                 2.3184                 1.8857
 Frc consts  --      1.8134                 1.6827                 1.4002
 IR Inten    --     73.6733                16.8325                11.4373

                     52                     53                     54
                      A                      A                      A
 Frequencies --   1139.8057              1173.0432              1187.6890
 Red. masses --      2.1495                 1.9173                 1.2884
 Frc consts  --      1.6453                 1.5545                 1.0708
 IR Inten    --      8.1570                 0.3117                 6.1349

                     55                     56                     57
                      A                      A                      A
 Frequencies --   1190.7715              1208.8068              1237.7564
 Red. masses --      1.8568                 2.5832                 1.3123
 Frc consts  --      1.5512                 2.2240                 1.1846
 IR Inten    --     10.2914                21.7637                 1.8979

                     58                     59                     60
                      A                      A                      A
 Frequencies --   1244.6714              1262.8314              1281.0954
 Red. masses --      1.3124                 2.8271                 1.4476
 Frc consts  --      1.1979                 2.6564                 1.3998
 IR Inten    --     11.5277                 2.8968                43.6261

                     61                     62                     63
                      A                      A                      A
 Frequencies --   1307.8137              1316.1529              1317.6326
 Red. masses --      1.8695                 1.8919                 1.7602
 Frc consts  --      1.8839                 1.9309                 1.8006
 IR Inten    --     22.9288                 0.4465                45.3277

                     64                     65                     66
                      A                      A                      A
 Frequencies --   1338.2166              1356.7894              1367.5907
 Red. masses --      1.8061                 1.3862                 1.2377
 Frc consts  --      1.9056                 1.5035                 1.3639
 IR Inten    --     69.4573                 2.3472                 7.4186

                     67                     68                     69
                      A                      A                      A
 Frequencies --   1382.3855              1387.9165              1403.6920
 Red. masses --      1.4246                 1.3982                 1.4221
 Frc consts  --      1.6039                 1.5869                 1.6509
 IR Inten    --      5.3268                16.4852                15.0526

                     70                     71                     72
                      A                      A                      A
 Frequencies --   1420.1827              1431.8433              1439.7905
 Red. masses --      1.2471                 1.2706                 1.3262
 Frc consts  --      1.4820                 1.5348                 1.6198
 IR Inten    --      3.4466                12.5789                29.3294

                     73                     74                     75
                      A                      A                      A
 Frequencies --   1455.0162              1476.4958              1482.2687
 Red. masses --      1.2252                 1.7214                 2.1042
 Frc consts  --      1.5282                 2.2111                 2.7240
 IR Inten    --     80.9795                48.2364                22.6277

                     76                     77                     78
                      A                      A                      A
 Frequencies --   1499.6436              1508.6872              1519.5598
 Red. masses --      1.2389                 1.2088                 1.1217
 Frc consts  --      1.6415                 1.6211                 1.5260
 IR Inten    --     21.7392                 8.0630                 3.0293

                     79                     80                     81
                      A                      A                      A
 Frequencies --   1523.3112              1526.7857              1537.2283
 Red. masses --      1.0917                 2.1385                 1.0834
 Frc consts  --      1.4926                 2.9370                 1.5084
 IR Inten    --     10.0796                18.6111                 7.5058

                     82                     83                     84
                      A                      A                      A
 Frequencies --   1542.6740              1548.0429              1631.6630
 Red. masses --      1.0694                 1.1660                 5.8178
 Frc consts  --      1.4995                 1.6463                 9.1257
 IR Inten    --      3.9585                29.5703                21.4629

                     85                     86                     87
                      A                      A                      A
 Frequencies --   1650.2053              1741.2587              3017.3733
 Red. masses --      5.3260                10.5956                 1.0702
 Frc consts  --      8.5453                18.9280                 5.7406
 IR Inten    --     38.0189               209.5014                32.3371

                     88                     89                     90
                      A                      A                      A
 Frequencies --   3018.7218              3059.5564              3064.6119
 Red. masses --      1.0689                 1.0847                 1.0578
 Frc consts  --      5.7389                 5.9827                 5.8533
 IR Inten    --     54.1426                36.1515                 8.5984

                     91                     92                     93
                      A                      A                      A
 Frequencies --   3070.2251              3086.1238              3092.3458
 Red. masses --      1.0477                 1.0920                 1.0896
 Frc consts  --      5.8190                 6.1275                 6.1391
 IR Inten    --     24.1483                20.8481                19.0556

                     94                     95                     96
                      A                      A                      A
 Frequencies --   3096.3338              3096.9504              3123.6636
 Red. masses --      1.0898                 1.0628                 1.0992
 Frc consts  --      6.1559                 6.0056                 6.3192
 IR Inten    --     30.8928                25.0438                44.6770

                     97                     98                     99
                      A                      A                      A
 Frequencies --   3135.9975              3154.3043              3165.4732
 Red. masses --      1.0998                 1.1029                 1.1036
 Frc consts  --      6.3727                 6.4655                 6.5151
 IR Inten    --     17.2304                21.4176                 2.7002

                    100                    101                    102
                      A                      A                      A
 Frequencies --   3171.3301              3195.4221              3214.5057
 Red. masses --      1.0890                 1.0888                 1.0956
 Frc consts  --      6.4531                 6.5500                 6.6698
 IR Inten    --     24.8476                11.9961                22.1541

                    103                    104                    105
                      A                      A                      A
 Frequencies --   3229.0492              3475.4441              3650.7420
 Red. masses --      1.0948                 1.0743                 1.0647
 Frc consts  --      6.7258                 7.6457                 8.3604
 IR Inten    --      2.1975                 0.0553                89.5387

 - Thermochemistry -
 -------------------
 Temperature   298.150 Kelvin.  Pressure   1.00000 Atm.
 Atom     1 has atomic number  6 and mass  12.00000

 Molecular mass:   249.14773 amu.
 Principal axes and moments of inertia in atomic units:
                           1         2         3
     Eigenvalues --  1974.991288076.064488745.20404
           X            0.99994   0.00755  -0.00778
           Y           -0.00766   0.99988  -0.01350
           Z            0.00768   0.01356   0.99988
 This molecule is an asymmetric top.
 Rotational symmetry number  1.
 Warning -- assumption of classical behavior for rotation
           may cause significant error
 Rotational temperatures (Kelvin)      0.04386     0.01072     0.00990
 Rotational constants (GHZ):           0.91380     0.22347     0.20637
 Zero-point vibrational energy     839166.9 (Joules/Mol)
                                  200.56571 (Kcal/Mol)
 Warning -- explicit consideration of  23 degrees of freedom as
           vibrations may cause significant error
 Vibrational temperatures:     24.97    48.18    67.75   108.99   117.71
          (Kelvin)            153.30   199.44   231.82   268.05   297.38
                              323.77   367.29   380.09   440.25   490.98
                              531.54   598.51   604.55   623.72   682.48
                              711.18   768.68   793.58   896.53   903.47
                              931.21   944.90   967.12  1070.75  1108.17
                             1127.16  1160.09  1196.82  1214.69  1236.09
                             1259.44  1305.84  1333.10  1359.57  1375.13
                             1391.04  1410.46  1448.44  1459.81  1463.34
                             1510.41  1554.62  1561.25  1568.12  1596.90
                             1615.23  1639.93  1687.75  1708.82  1713.25
                             1739.20  1780.86  1790.80  1816.93  1843.21
                             1881.65  1893.65  1895.78  1925.40  1952.12
                             1967.66  1988.94  1996.90  2019.60  2043.33
                             2060.10  2071.54  2093.44  2124.35  2132.65
                             2157.65  2170.66  2186.31  2191.70  2196.70
                             2211.73  2219.56  2227.29  2347.60  2374.28
                             2505.28  4341.33  4343.27  4402.02  4409.29
                             4417.37  4440.24  4449.20  4454.93  4455.82
                             4494.26  4512.00  4538.34  4554.41  4562.84
                             4597.50  4624.96  4645.88  5000.39  5252.60

 Zero-point correction=                           0.319622 (Hartree/Particle)
 Thermal correction to Energy=                    0.336207
 Thermal correction to Enthalpy=                  0.337151
 Thermal correction to Gibbs Free Energy=         0.273608
 Sum of electronic and zero-point Energies=           -821.274741
 Sum of electronic and thermal Energies=              -821.258156
 Sum of electronic and thermal Enthalpies=            -821.257212
 Sum of electronic and thermal Free Energies=         -821.320755

                     E (Thermal)             CV                S
                      KCal/Mol        Cal/Mol-Kelvin    Cal/Mol-Kelvin
 Total                  210.973             63.800            133.737
 Electronic               0.000              0.000              0.000
 Translational            0.889              2.981             42.439
 Rotational               0.889              2.981             33.300
 Vibrational            209.195             57.838             57.998
 Vibration     1          0.593              1.986              6.916
 Vibration     2          0.594              1.983              5.611
 Vibration     3          0.595              1.979              4.936
 Vibration     4          0.599              1.965              3.998
 Vibration     5          0.600              1.962              3.847
 Vibration     6          0.605              1.944              3.331
 Vibration     7          0.614              1.915              2.823
 Vibration     8          0.622              1.890              2.537
 Vibration     9          0.632              1.859              2.264
 Vibration    10          0.641              1.830              2.073
 Vibration    11          0.650              1.803              1.918
 Vibration    12          0.666              1.754              1.694
 Vibration    13          0.671              1.739              1.634
 Vibration    14          0.696              1.662              1.384
 Vibration    15          0.721              1.593              1.206
 Vibration    16          0.742              1.535              1.082
 Vibration    17          0.779              1.436              0.906
 Vibration    18          0.783              1.426              0.891
 Vibration    19          0.794              1.397              0.847
 Vibration    20          0.831              1.307              0.725
 Vibration    21          0.850              1.263              0.673
 Vibration    22          0.889              1.174              0.578
 Vibration    23          0.907              1.136              0.541

                           ! Non-Optimized Parameters !
 Normal termination of Gaussian 16 at Fri Dec 11 20:54:36 2020.

 ----------------------------------------------------------------------
 # B3LYP/6-311++G(d,p) empiricaldispersion=gd3bj scf=xqc pop=npa geom=c
 heck
 ----------------------------------------------------------------------

 --------------------------------------
 CID_84168053_JID_8591_Energie_neutraal
 --------------------------------------
 Structure from the checkpoint file:  "JID_8591.chk"
 Charge =  0 Multiplicity = 1

 SCF Done:  E(RB3LYP) =  -821.831388062     A.U. after   16 cycles
 Normal termination of Gaussian 16 at Fri Dec 11 21:02:49 2020.

 ----------------------------------------------------------------------
 # B3LYP/6-311++G(d,p) empiricaldispersion=gd3bj scf=xqc pop=npa geom=c
 heck
 ----------------------------------------------------------------------

 ------------------------------------
 CID_84168053_JID_8591_Energie_kation
 ------------------------------------
 Structure from the checkpoint file:  "JID_8591.chk"
 Charge =  1 Multiplicity = 2

 SCF Done:  E(UB3LYP) =  -821.529806355     A.U. after   33 cycles
 SCF Done:  E(UB3LYP) =  -821.529806355     a.u. after    1 cycles
 Normal termination of Gaussian 16 at Fri Dec 11 21:27:19 2020.
 Gaussian 16:  ES64L-G16RevA.03 25-Dec-2016

 ----------------------------------------------------------------------
 # B3LYP/6-311++G(d,p) empiricaldispersion=gd3bj scf=xqc pop=npa geom=c
 heck
 ----------------------------------------------------------------------

 -----------------------------------
 CID_84168053_JID_8591_Energie_anion
 -----------------------------------
 Structure from the checkpoint file:  "JID_8591.chk"
 Charge = -1 Multiplicity = 2

                         Standard orientation:
 ---------------------------------------------------------------------
 Center     Atomic      Atomic             Coordinates (Angstroms)
 Number     Number       Type             X           Y           Z
 ---------------------------------------------------------------------
      1          6           0        2.339213    2.260257   -0.624865
      2          6           0        1.499643    1.760184    0.551452
      3          6           0        0.023224    1.595404    0.180698
      4          7           0       -0.175130    0.436349   -0.690927
      5          6           0        0.543900   -0.723106   -0.568617
      6          8           0        0.229324   -1.759080   -1.153666
      7          6           0        1.822757   -0.689018    0.271368
      8          7           0        2.020267    0.505102    1.123386
      9          6           0        3.028850   -1.003049   -0.650377
     10          6           0        4.378241   -0.722770    0.029091
     11          8           0        4.395718   -1.098413    1.397405
     12          6           0       -1.424259    0.388210   -1.458102
     13          6           0       -2.609757    0.049566   -0.579868
     14          6           0       -2.895656   -1.281395   -0.249464
     15          6           0       -3.967852   -1.542482    0.598888
     16          6           0       -4.713395   -0.470706    1.090882
     17          6           0       -4.344511    0.818771    0.711007
     18          7           0       -3.316931    1.087266   -0.105102
     19          1           0        2.028431    3.274167   -0.898179
     20          1           0        2.216987    1.627258   -1.507500
     21          1           0        3.398254    2.283272   -0.355346
     22          1           0        1.557960    2.507159    1.352239
     23          1           0       -0.587658    1.495462    1.090114
     24          1           0       -0.348429    2.479849   -0.348016
     25          1           0        1.745812   -1.535686    0.959072
     26          1           0        1.507995    0.344171    1.989694
     27          1           0        2.941122   -2.057770   -0.925177
     28          1           0        2.971385   -0.432534   -1.584765
     29          1           0        5.167320   -1.296220   -0.468430
     30          1           0        4.632445    0.341467   -0.080403
     31          1           0        3.814470   -0.437353    1.817351
     32          1           0       -1.585398    1.371372   -1.907734
     33          1           0       -1.291112   -0.360884   -2.238914
     34          1           0       -2.271354   -2.074139   -0.647295
     35          1           0       -4.219148   -2.564053    0.870385
     36          1           0       -5.559615   -0.626963    1.752746
     37          1           0       -4.899635    1.681157    1.076188
 ---------------------------------------------------------------------

 SCF Done:  E(UB3LYP) =  -821.826999946     A.U. after   33 cycles
 SCF Done:  E(UB3LYP) =  -821.826999946     a.u. after    1 cycles

 The electronic state is 2-A.
 Alpha  occ. eigenvalues --  -19.01576 -18.98671 -14.24443 -14.21275 -14.18671
 Alpha  occ. eigenvalues --  -10.16961 -10.11874 -10.11372 -10.10848 -10.10378
 Alpha  occ. eigenvalues --  -10.09974 -10.09661 -10.09473 -10.07505 -10.07093
 Alpha  occ. eigenvalues --  -10.07018 -10.06668 -10.06491  -0.94016  -0.92074
 Alpha  occ. eigenvalues --   -0.85130  -0.83065  -0.80937  -0.69352  -0.69190
 Alpha  occ. eigenvalues --   -0.67344  -0.65554  -0.61028  -0.60206  -0.57362
 Alpha  occ. eigenvalues --   -0.52159  -0.51584  -0.50779  -0.48665  -0.43124
 Alpha  occ. eigenvalues --   -0.42448  -0.41766  -0.40708  -0.40014  -0.38086
 Alpha  occ. eigenvalues --   -0.37378  -0.36869  -0.35198  -0.34637  -0.33808
 Alpha  occ. eigenvalues --   -0.33127  -0.32344  -0.31222  -0.30108  -0.29881
 Alpha  occ. eigenvalues --   -0.29428  -0.29015  -0.28356  -0.27569  -0.27166
 Alpha  occ. eigenvalues --   -0.26680  -0.25630  -0.24506  -0.23951  -0.22536
 Alpha  occ. eigenvalues --   -0.18736  -0.18240  -0.17530  -0.15860  -0.15174
 Alpha  occ. eigenvalues --   -0.14033  -0.13129   0.04175
 Alpha virt. eigenvalues --    0.06198   0.07066   0.07425   0.07899   0.08359
 Alpha virt. eigenvalues --    0.08834   0.09006   0.09877   0.10099   0.10342
 Alpha virt. eigenvalues --    0.10727   0.10842   0.11514   0.12236   0.12869

  Beta  occ. eigenvalues --  -19.01568 -18.98669 -14.24431 -14.21243 -14.18397
  Beta  occ. eigenvalues --  -10.16961 -10.11868 -10.11365 -10.10824 -10.10362
  Beta  occ. eigenvalues --  -10.09973 -10.09596 -10.09462 -10.07503 -10.07069
  Beta  occ. eigenvalues --  -10.06812 -10.06689 -10.06461  -0.94009  -0.92059
  Beta  occ. eigenvalues --   -0.85074  -0.82759  -0.80854  -0.69318  -0.68853
  Beta  occ. eigenvalues --   -0.67219  -0.65501  -0.60962  -0.60160  -0.57321
  Beta  occ. eigenvalues --   -0.51944  -0.51485  -0.50691  -0.48545  -0.43038
  Beta  occ. eigenvalues --   -0.42379  -0.41737  -0.40639  -0.39978  -0.37991
  Beta  occ. eigenvalues --   -0.37307  -0.36806  -0.35118  -0.34588  -0.33778
  Beta  occ. eigenvalues --   -0.33078  -0.32303  -0.31177  -0.30051  -0.29766
  Beta  occ. eigenvalues --   -0.29388  -0.28987  -0.27838  -0.27496  -0.27083
  Beta  occ. eigenvalues --   -0.26610  -0.25559  -0.24445  -0.23921  -0.22517
  Beta  occ. eigenvalues --   -0.18693  -0.17513  -0.17079  -0.15624  -0.14863
  Beta  occ. eigenvalues --   -0.13905  -0.13069
  Beta virt. eigenvalues --    0.06727   0.07117   0.07924   0.08123   0.08274
  Beta virt. eigenvalues --    0.08457   0.08847   0.09167   0.10203   0.10265
  Beta virt. eigenvalues --    0.10467   0.10779   0.11089   0.11675   0.12289

 Mulliken charges and spin densities:
               1          2
     1  C    0.830346  -1.404290
     2  C   -0.792845   0.767738
     3  C    0.355179  -0.878612
     4  N    0.344085  -0.028565
     5  C   -0.812281  -0.040629
     6  O   -0.306693   0.002663
     7  C    1.062126  -0.705973
     8  N   -0.239545  -0.033410
     9  C   -0.310709   0.194474
    10  C   -0.217378  -0.244659
    11  O   -0.283662   0.024187
    12  C   -0.377707  -0.261711
    13  C   -0.156444  -0.125479
    14  C    0.339826   0.231668
    15  C   -0.598149   0.034423
    16  C    0.187511  -0.086424
    17  C   -0.254290   0.031616
    18  N    0.012548   0.168295
    19  H   -0.345146   0.495403
    20  H    0.084119   0.071956
    21  H    0.021635   0.126602
    22  H   -1.074651   1.323317
    23  H    0.033155   0.174528
    24  H    0.117181   0.067979
    25  H    0.158557   0.098486
    26  H   -0.135473   0.432457
    27  H    0.182753   0.004288
    28  H    0.107456   0.020705
    29  H    0.139808   0.016627
    30  H    0.085079   0.051992
    31  H    0.209775   0.074601
    32  H    0.046636   0.147891
    33  H    0.180274   0.007115
    34  H    0.197211   0.019928
    35  H    0.092768   0.040677
    36  H    0.072962   0.064332
    37  H    0.043984   0.115804
 Sum of Mulliken charges =  -1.00000   1.00000

 Dipole moment (field-independent basis, Debye):
    X=             -1.1710    Y=             -3.1140    Z=             -3.4211  Tot=              4.7720
 Quadrupole moment (field-independent basis, Debye-Ang):
   XX=           -171.7090   YY=           -153.5753   ZZ=           -139.0447
   XY=             -0.2994   XZ=            -12.7448   YZ=             -5.7263

 Summary of Natural Population Analysis:

                                       Natural Population
                Natural  -----------------------------------------------
    Atom  No    Charge         Core      Valence    Rydberg      Total
 -----------------------------------------------------------------------
      C    1   -0.29078      0.99964     2.28402    0.00712     3.29078
      C    2   -0.01624      0.99960     2.00174    0.01491     3.01624
      C    3   -0.08658      0.99958     2.07561    0.01139     3.08658
      N    4   -0.24868      0.99963     2.73916    0.00989     3.74868
      C    5    0.34528      0.99959     1.63151    0.02362     2.65472
      O    6   -0.33556      0.99988     3.33073    0.00495     4.33556
      C    7   -0.05358      0.99955     2.03847    0.01556     3.05358
      N    8   -0.35606      0.99973     2.84075    0.01557     3.85606
      C    9   -0.20026      0.99961     2.19356    0.00709     3.20026
      C   10   -0.00926      0.99960     1.99764    0.01201     3.00926
      O   11   -0.37942      0.99990     3.37262    0.00690     4.37942
      C   12   -0.09961      0.99957     2.08776    0.01228     3.09961
      C   13    0.10751      0.99953     1.87920    0.01375     2.89249
      C   14   -0.12587      0.99951     2.11836    0.00801     3.12587
      C   15   -0.05093      0.99957     2.04151    0.00984     3.05093
      C   16   -0.12747      0.99956     2.11931    0.00859     3.12747
      C   17    0.02399      0.99959     1.96062    0.01580     2.97601
      N   18   -0.21193      0.99968     2.70061    0.01164     3.71193
      H   19    0.10439      0.00000     0.39449    0.00112     0.39561
      H   20    0.09702      0.00000     0.40173    0.00126     0.40298
      H   21    0.10239      0.00000     0.39646    0.00115     0.39761
      H   22    0.10448      0.00000     0.39078    0.00475     0.39552
      H   23    0.10025      0.00000     0.39779    0.00196     0.39975
      H   24    0.10287      0.00000     0.39544    0.00169     0.39713
      H   25    0.11209      0.00000     0.38662    0.00129     0.38791
      H   26    0.18452      0.00000     0.31201    0.00348     0.31548
      H   27    0.10591      0.00000     0.39309    0.00100     0.39409
      H   28    0.09766      0.00000     0.40127    0.00107     0.40234
      H   29    0.08217      0.00000     0.41671    0.00112     0.41783
      H   30    0.07736      0.00000     0.42127    0.00136     0.42264
      H   31    0.23913      0.00000     0.25736    0.00351     0.26087
      H   32    0.10307      0.00000     0.39555    0.00138     0.39693
      H   33    0.11212      0.00000     0.38686    0.00102     0.38788
      H   34    0.11249      0.00000     0.38639    0.00111     0.38751
      H   35    0.09410      0.00000     0.40509    0.00081     0.40590
      H   36    0.09777      0.00000     0.40145    0.00079     0.40223
      H   37    0.08568      0.00000     0.41339    0.00093     0.41432
 =======================================================================
   * Total *   -0.00000     17.99333    48.76695    0.23972    67.00000

 Normal termination of Gaussian 16 at Fri Dec 11 21:51:35 2020.
