 Gaussian 16, Revision A.03,

 -----------------------------------------------------------
 # opt freq B3LYP/6-31G(d) empiricaldispersion=gd3bj scf=xqc
 -----------------------------------------------------------

 ------------------------------
 CID_80229551_JID_9017_neutraal
 ------------------------------
 Symbolic Z-matrix:
 Charge =  0 Multiplicity = 1

 SCF Done:  E(RB3LYP) =  -821.168972420     A.U. after   15 cycles
 SCF Done:  E(RB3LYP) =  -821.174811924     A.U. after   13 cycles
 SCF Done:  E(RB3LYP) =  -821.169592807     A.U. after   14 cycles
 SCF Done:  E(RB3LYP) =  -821.175003072     A.U. after   13 cycles
 SCF Done:  E(RB3LYP) =  -821.176828913     A.U. after   14 cycles
 SCF Done:  E(RB3LYP) =  -821.177454585     A.U. after   12 cycles
 SCF Done:  E(RB3LYP) =  -821.177535022     A.U. after   11 cycles
 SCF Done:  E(RB3LYP) =  -821.177551078     A.U. after   10 cycles
 SCF Done:  E(RB3LYP) =  -821.177554257     A.U. after    9 cycles
 SCF Done:  E(RB3LYP) =  -821.177555493     A.U. after    8 cycles
 SCF Done:  E(RB3LYP) =  -821.177556744     A.U. after    9 cycles
 SCF Done:  E(RB3LYP) =  -821.177557774     A.U. after    9 cycles
 SCF Done:  E(RB3LYP) =  -821.177558897     A.U. after   10 cycles
 SCF Done:  E(RB3LYP) =  -821.177559506     A.U. after   10 cycles
 SCF Done:  E(RB3LYP) =  -821.177559574     A.U. after    7 cycles
 Optimization completed.
    -- Stationary point found.
 Normal termination of Gaussian 16 at Thu Dec 17 20:19:48 2020.

 --------------------------------------------------------------------
 #N Geom=AllCheck Guess=TCheck SCRF=Check GenChk RB3LYP/6-31G(d) Freq
 --------------------------------------------------------------------

 Structure from the checkpoint file:  "JID_9017.chk"
 ------------------------------
 CID_80229551_JID_9017_neutraal
 ------------------------------
 Charge =  0 Multiplicity = 1

 SCF Done:  E(RB3LYP) =  -821.177559574     A.U. after    1 cycles

  Exact polarizability: 190.851  -1.476 181.163 -24.266  -4.878 151.089
 Approx polarizability: 257.314  -7.814 295.316 -58.586  -7.232 237.971

                      1                      2                      3
                      A                      A                      A
 Frequencies --     17.8626                43.7697                54.0622
 Red. masses --      5.3662                 4.1200                 3.0862
 Frc consts  --      0.0010                 0.0047                 0.0053
 IR Inten    --      0.7160                 0.1835                 0.0832

                      4                      5                      6
                      A                      A                      A
 Frequencies --     81.7344                98.3149               132.4893
 Red. masses --      5.0007                 5.2453                 4.2419
 Frc consts  --      0.0197                 0.0299                 0.0439
 IR Inten    --      0.8447                 1.7365                 0.6973

                      7                      8                      9
                      A                      A                      A
 Frequencies --    164.8402               190.1044               209.5944
 Red. masses --      3.0275                 2.1935                 1.7417
 Frc consts  --      0.0485                 0.0467                 0.0451
 IR Inten    --      0.5714                 0.0438                 0.2817

                     10                     11                     12
                      A                      A                      A
 Frequencies --    229.0950               244.8507               248.4053
 Red. masses --      2.2919                 1.4637                 1.2617
 Frc consts  --      0.0709                 0.0517                 0.0459
 IR Inten    --      0.9928                 1.1617                 0.1682

                     13                     14                     15
                      A                      A                      A
 Frequencies --    259.4761               271.6137               284.7704
 Red. masses --      2.2607                 1.5589                 3.0316
 Frc consts  --      0.0897                 0.0678                 0.1448
 IR Inten    --      1.3047                 0.5849                 3.7783

                     16                     17                     18
                      A                      A                      A
 Frequencies --    300.4325               323.9712               347.0268
 Red. masses --      1.9115                 2.6466                 2.9182
 Frc consts  --      0.1017                 0.1637                 0.2071
 IR Inten    --      2.4317                 2.6935                 3.5520

                     19                     20                     21
                      A                      A                      A
 Frequencies --    395.8900               408.5857               416.0716
 Red. masses --      3.1603                 2.6619                 2.0476
 Frc consts  --      0.2918                 0.2618                 0.2089
 IR Inten    --      8.5258                 6.5175                 2.2392

                     22                     23                     24
                      A                      A                      A
 Frequencies --    426.9542               437.8816               466.1800
 Red. masses --      2.4167                 3.3858                 2.4971
 Frc consts  --      0.2596                 0.3825                 0.3197
 IR Inten    --      0.9781                 7.9510                 1.5489

                     25                     26                     27
                      A                      A                      A
 Frequencies --    474.0935               495.2513               534.9007
 Red. masses --      3.4174                 3.6596                 1.5561
 Frc consts  --      0.4526                 0.5289                 0.2623
 IR Inten    --      3.6340                 7.7956               154.1452

                     28                     29                     30
                      A                      A                      A
 Frequencies --    547.9563               579.6998               599.8735
 Red. masses --      3.1787                 2.8452                 3.5517
 Frc consts  --      0.5623                 0.5633                 0.7530
 IR Inten    --      4.9848                18.3860                25.9926

                     31                     32                     33
                      A                      A                      A
 Frequencies --    624.9491               656.8707               666.0126
 Red. masses --      3.6905                 3.4941                 1.8471
 Frc consts  --      0.8492                 0.8883                 0.4827
 IR Inten    --     10.0762                41.4694                34.7893

                     34                     35                     36
                      A                      A                      A
 Frequencies --    701.7014               715.2643               727.9561
 Red. masses --      5.3877                 3.2762                 3.0066
 Frc consts  --      1.5630                 0.9875                 0.9387
 IR Inten    --      9.4628                 1.6641                 5.3096

                     37                     38                     39
                      A                      A                      A
 Frequencies --    801.8915               828.0076               841.6787
 Red. masses --      1.5102                 2.8354                 3.6169
 Frc consts  --      0.5722                 1.1453                 1.5097
 IR Inten    --      0.4217                 3.1448                 9.3327

                     40                     41                     42
                      A                      A                      A
 Frequencies --    871.7133               886.2697               899.1476
 Red. masses --      4.6457                 1.3227                 1.7988
 Frc consts  --      2.0799                 0.6122                 0.8569
 IR Inten    --      3.5135                21.7633                 0.3111

                     43                     44                     45
                      A                      A                      A
 Frequencies --    899.7114               933.3614               955.9754
 Red. masses --      1.2222                 2.2776                 1.6360
 Frc consts  --      0.5829                 1.1690                 0.8809
 IR Inten    --     33.6449                 0.5910                 1.2709

                     46                     47                     48
                      A                      A                      A
 Frequencies --    957.6573               969.0494               979.7287
 Red. masses --      1.3812                 2.1465                 1.4424
 Frc consts  --      0.7463                 1.1876                 0.8157
 IR Inten    --      1.6410                19.6889                 0.0765

                     49                     50                     51
                      A                      A                      A
 Frequencies --   1020.1890              1028.8420              1047.3067
 Red. masses --      1.6132                 2.3249                 1.4081
 Frc consts  --      0.9893                 1.4499                 0.9099
 IR Inten    --      1.3936                10.6211                 1.6512

                     52                     53                     54
                      A                      A                      A
 Frequencies --   1052.7114              1063.8138              1094.7993
 Red. masses --      1.8203                 2.0343                 3.4205
 Frc consts  --      1.1885                 1.3565                 2.4155
 IR Inten    --      1.8750                14.1966                 3.6263

                     55                     56                     57
                      A                      A                      A
 Frequencies --   1097.4580              1110.2089              1142.4949
 Red. masses --      3.0010                 2.2457                 2.4278
 Frc consts  --      2.1296                 1.6309                 1.8671
 IR Inten    --     27.4794                 7.7479                22.5193

                     58                     59                     60
                      A                      A                      A
 Frequencies --   1159.6673              1169.0508              1184.3584
 Red. masses --      1.5052                 1.7020                 1.3740
 Frc consts  --      1.1927                 1.3705                 1.1355
 IR Inten    --     24.3310                67.0225                 9.1316

                     61                     62                     63
                      A                      A                      A
 Frequencies --   1206.2320              1210.7174              1219.4935
 Red. masses --      1.8278                 1.5375                 2.3316
 Frc consts  --      1.5669                 1.3278                 2.0430
 IR Inten    --     13.2868                99.8975                17.9700

                     64                     65                     66
                      A                      A                      A
 Frequencies --   1221.3795              1230.1812              1249.5394
 Red. masses --      2.5368                 1.9480                 3.4276
 Frc consts  --      2.2296                 1.7369                 3.1531
 IR Inten    --      8.9650                 6.6888                12.6822

                     67                     68                     69
                      A                      A                      A
 Frequencies --   1273.5172              1291.5113              1311.6765
 Red. masses --      2.2981                 2.0812                 1.7396
 Frc consts  --      2.1960                 2.0453                 1.7634
 IR Inten    --     19.8081                44.4551                 0.1470

                     70                     71                     72
                      A                      A                      A
 Frequencies --   1317.5394              1337.8945              1359.1569
 Red. masses --      1.3399                 1.7721                 1.3618
 Frc consts  --      1.3704                 1.8689                 1.4822
 IR Inten    --      1.1611                12.2859                 1.1743

                     73                     74                     75
                      A                      A                      A
 Frequencies --   1379.0724              1385.3518              1402.9654
 Red. masses --      1.4159                 1.4600                 1.3874
 Frc consts  --      1.5865                 1.6509                 1.6090
 IR Inten    --      0.3731                 5.9825                 5.4593

                     76                     77                     78
                      A                      A                      A
 Frequencies --   1408.7938              1421.2868              1429.3646
 Red. masses --      1.4906                 1.8772                 1.2794
 Frc consts  --      1.7430                 2.2342                 1.5401
 IR Inten    --      4.3165                60.4822                14.2610

                     79                     80                     81
                      A                      A                      A
 Frequencies --   1436.6108              1445.3571              1453.0411
 Red. masses --      1.7156                 1.9092                 1.2500
 Frc consts  --      2.0861                 2.3499                 1.5550
 IR Inten    --     36.3930                32.8885                 2.3232

                     82                     83                     84
                      A                      A                      A
 Frequencies --   1474.6973              1494.5144              1509.2058
 Red. masses --      1.3592                 2.2756                 1.0758
 Frc consts  --      1.7415                 2.9946                 1.4438
 IR Inten    --      3.6072                26.7832                 1.1138

                     85                     86                     87
                      A                      A                      A
 Frequencies --   1510.9382              1512.0251              1516.6164
 Red. masses --      1.0756                 1.0645                 1.0546
 Frc consts  --      1.4467                 1.4338                 1.4291
 IR Inten    --      0.5888                 3.6530                 0.2737

                     88                     89                     90
                      A                      A                      A
 Frequencies --   1527.3075              1530.2442              1534.5922
 Red. masses --      1.0706                 1.0635                 1.0780
 Frc consts  --      1.4714                 1.4673                 1.4957
 IR Inten    --      5.6927                 7.3462                 1.3623

                     91                     92                     93
                      A                      A                      A
 Frequencies --   1546.2463              1549.1097              1549.3912
 Red. masses --      1.0767                 1.0569                 1.0715
 Frc consts  --      1.5166                 1.4943                 1.5155
 IR Inten    --      6.5028                 6.8975                 5.0339

                     94                     95                     96
                      A                      A                      A
 Frequencies --   1594.4989              1601.3832              1622.1668
 Red. masses --      4.6790                 5.4525                 1.4652
 Frc consts  --      7.0089                 8.2383                 2.2716
 IR Inten    --     19.8937                 0.1806               118.2989

                     97                     98                     99
                      A                      A                      A
 Frequencies --   1719.2662              3003.8297              3016.0531
 Red. masses --      6.6434                 1.0828                 1.0640
 Frc consts  --     11.5699                 5.7565                 5.7024
 IR Inten    --    202.1758                15.5804                27.4636

                    100                    101                    102
                      A                      A                      A
 Frequencies --   3023.5787              3036.5247              3039.2066
 Red. masses --      1.0622                 1.0363                 1.0349
 Frc consts  --      5.7215                 5.6297                 5.6320
 IR Inten    --     39.8180                45.2956                35.2384

                    103                    104                    105
                      A                      A                      A
 Frequencies --   3047.2559              3054.3659              3059.0365
 Red. masses --      1.0392                 1.0714                 1.0915
 Frc consts  --      5.6857                 5.8892                 6.0177
 IR Inten    --     21.9638                16.4677                23.3523

                    106                    107                    108
                      A                      A                      A
 Frequencies --   3069.5642              3072.5134              3101.5650
 Red. masses --      1.0787                 1.0832                 1.1026
 Frc consts  --      5.9885                 6.0249                 6.2490
 IR Inten    --     69.2070                17.1336                 1.5328

                    109                    110                    111
                      A                      A                      A
 Frequencies --   3104.4619              3104.8742              3108.0523
 Red. masses --      1.1017                 1.1014                 1.1016
 Frc consts  --      6.2558                 6.2557                 6.2699
 IR Inten    --      6.4776                55.2987                61.3863

                    112                    113                    114
                      A                      A                      A
 Frequencies --   3112.6581              3115.5077              3127.9205
 Red. masses --      1.0987                 1.0996                 1.1042
 Frc consts  --      6.2717                 6.2887                 6.3653
 IR Inten    --     14.5195                34.3949                17.5019

                    115                    116                    117
                      A                      A                      A
 Frequencies --   3130.0786              3177.7007              3196.4464
 Red. masses --      1.0979                 1.0877                 1.0972
 Frc consts  --      6.3374                 6.4714                 6.6049
 IR Inten    --     51.7389                 3.4047                46.0509

                    118                    119                    120
                      A                      A                      A
 Frequencies --   3478.0091              3486.9467              3657.8267
 Red. masses --      1.0706                 1.0552                 1.0964
 Frc consts  --      7.6305                 7.5591                 8.6428
 IR Inten    --     22.9413               149.0761                84.6251

 - Thermochemistry -
 -------------------
 Temperature   298.150 Kelvin.  Pressure   1.00000 Atm.
 Atom     1 has atomic number  6 and mass  12.00000

 Molecular mass:   261.19535 amu.
 Principal axes and moments of inertia in atomic units:
                           1         2         3
     Eigenvalues --  2939.646337339.555667773.75802
           X            0.99993   0.00161   0.01191
           Y           -0.00112   0.99916  -0.04104
           Z           -0.01197   0.04103   0.99909
 This molecule is an asymmetric top.
 Rotational symmetry number  1.
 Warning -- assumption of classical behavior for rotation
           may cause significant error
 Rotational temperatures (Kelvin)      0.02946     0.01180     0.01114
 Rotational constants (GHZ):           0.61393     0.24589     0.23216
 Zero-point vibrational energy     971849.0 (Joules/Mol)
                                  232.27748 (Kcal/Mol)
 Warning -- explicit consideration of  30 degrees of freedom as
           vibrations may cause significant error
 Vibrational temperatures:     25.70    62.97    77.78   117.60   141.45
          (Kelvin)            190.62   237.17   273.52   301.56   329.62
                              352.29   357.40   373.33   390.79   409.72
                              432.26   466.12   499.29   569.60   587.86
                              598.63   614.29   630.01   670.73   682.11
                              712.56   769.60   788.39   834.06   863.08
                              899.16   945.09   958.24  1009.59  1029.11
                             1047.37  1153.74  1191.32  1210.99  1254.20
                             1275.14  1293.67  1294.48  1342.90  1375.44
                             1377.86  1394.25  1409.61  1467.82  1480.27
                             1506.84  1514.62  1530.59  1575.17  1579.00
                             1597.34  1643.80  1668.50  1682.00  1704.03
                             1735.50  1741.95  1754.58  1757.29  1769.96
                             1797.81  1832.31  1858.20  1887.21  1895.65
                             1924.93  1955.52  1984.18  1993.21  2018.55
                             2026.94  2044.91  2056.54  2066.96  2079.55
                             2090.60  2121.76  2150.27  2171.41  2173.90
                             2175.47  2182.07  2197.45  2201.68  2207.94
                             2224.70  2228.82  2229.23  2294.13  2304.03
                             2333.94  2473.64  4321.84  4339.43  4350.26
                             4368.88  4372.74  4384.32  4394.55  4401.27
                             4416.42  4420.66  4462.46  4466.63  4467.22
                             4471.79  4478.42  4482.52  4500.38  4503.48
                             4572.00  4598.97  5004.08  5016.94  5262.80

 Zero-point correction=                           0.370158 (Hartree/Particle)
 Thermal correction to Energy=                    0.388421
 Thermal correction to Enthalpy=                  0.389365
 Thermal correction to Gibbs Free Energy=         0.323992
 Sum of electronic and zero-point Energies=           -820.807402
 Sum of electronic and thermal Energies=              -820.789139
 Sum of electronic and thermal Enthalpies=            -820.788195
 Sum of electronic and thermal Free Energies=         -820.853567

                     E (Thermal)             CV                S
                      KCal/Mol        Cal/Mol-Kelvin    Cal/Mol-Kelvin
 Total                  243.738             72.727            137.588
 Electronic               0.000              0.000              0.000
 Translational            0.889              2.981             42.580
 Rotational               0.889              2.981             33.483
 Vibrational            241.960             66.766             61.525
 Vibration     1          0.593              1.986              6.859
 Vibration     2          0.595              1.980              5.081
 Vibration     3          0.596              1.976              4.663
 Vibration     4          0.600              1.962              3.849
 Vibration     5          0.604              1.950              3.487
 Vibration     6          0.613              1.921              2.910
 Vibration     7          0.623              1.886              2.494
 Vibration     8          0.633              1.854              2.227
 Vibration     9          0.642              1.826              2.047
 Vibration    10          0.652              1.797              1.886
 Vibration    11          0.660              1.771              1.767
 Vibration    12          0.662              1.765              1.742
 Vibration    13          0.668              1.747              1.665
 Vibration    14          0.675              1.726              1.586
 Vibration    15          0.683              1.702              1.505
 Vibration    16          0.693              1.673              1.414
 Vibration    17          0.709              1.627              1.290
 Vibration    18          0.725              1.581              1.180
 Vibration    19          0.763              1.479              0.978
 Vibration    20          0.773              1.452              0.932
 Vibration    21          0.779              1.435              0.905
 Vibration    22          0.789              1.412              0.869
 Vibration    23          0.798              1.388              0.833
 Vibration    24          0.824              1.325              0.748
 Vibration    25          0.831              1.308              0.726
 Vibration    26          0.851              1.261              0.670
 Vibration    27          0.890              1.173              0.576
 Vibration    28          0.903              1.144              0.548
 Vibration    29          0.936              1.075              0.486
 Vibration    30          0.958              1.032              0.450

 Optimization completed.
    -- Stationary point found.
 Normal termination of Gaussian 16 at Thu Dec 17 20:44:13 2020.

 ----------------------------------------------------------------------
 # B3LYP/6-311++G(d,p) empiricaldispersion=gd3bj scf=xqc pop=npa geom=c
 heck
 ----------------------------------------------------------------------

 --------------------------------------
 CID_80229551_JID_9017_Energie_neutraal
 --------------------------------------
 Structure from the checkpoint file:  "JID_9017.chk"
 Charge =  0 Multiplicity = 1

 SCF Done:  E(RB3LYP) =  -821.403904419     A.U. after   16 cycles
 Normal termination of Gaussian 16 at Thu Dec 17 20:56:44 2020.

 ----------------------------------------------------------------------
 # B3LYP/6-311++G(d,p) empiricaldispersion=gd3bj scf=xqc pop=npa geom=c
 heck
 ----------------------------------------------------------------------

 ------------------------------------
 CID_80229551_JID_9017_Energie_kation
 ------------------------------------
 Structure from the checkpoint file:  "JID_9017.chk"
 Charge =  1 Multiplicity = 2

 SCF Done:  E(UB3LYP) =  -821.106848540     A.U. after   32 cycles
 Normal termination of Gaussian 16 at Thu Dec 17 21:32:23 2020.
 Gaussian 16:  ES64L-G16RevA.03 25-Dec-2016

 ----------------------------------------------------------------------
 # B3LYP/6-311++G(d,p) empiricaldispersion=gd3bj scf=xqc pop=npa geom=c
 heck
 ----------------------------------------------------------------------

 -----------------------------------
 CID_80229551_JID_9017_Energie_anion
 -----------------------------------
 Structure from the checkpoint file:  "JID_9017.chk"
 Charge = -1 Multiplicity = 2

                         Standard orientation:
 ---------------------------------------------------------------------
 Center     Atomic      Atomic             Coordinates (Angstroms)
 Number     Number       Type             X           Y           Z
 ---------------------------------------------------------------------
      1          6           0       -3.053425    1.158752   -1.495320
      2          6           0       -3.338331   -0.057667   -0.596013
      3          6           0       -2.368001   -1.215405   -0.918923
      4          6           0       -0.913296   -0.925543   -0.530066
      5          6           0       -0.802492   -0.565626    0.956435
      6          6           0       -1.722263    0.620774    1.294432
      7          6           0       -3.172059    0.315445    0.893447
      8          7           0        0.624347   -0.401888    1.361166
      9          6           0        0.806649   -0.103549    2.786279
     10          6           0        1.386836    0.475446    0.526193
     11          7           0        1.154553    1.790417    0.646501
     12          6           0        1.833259    2.625833   -0.137346
     13          6           0        2.766972    2.148878   -1.057412
     14          7           0        3.032161    0.851303   -1.158333
     15          6           0        2.364642   -0.011884   -0.375087
     16          6           0        2.821478   -1.450456   -0.536569
     17          7           0        3.833133   -1.770368   -1.256869
     18          7           0        2.090335   -2.412590    0.115924
     19          6           0       -4.780801   -0.522405   -0.844295
     20          1           0       -2.039521    1.549005   -1.367389
     21          1           0       -3.175386    0.893718   -2.552355
     22          1           0       -3.751510    1.974389   -1.271751
     23          1           0       -2.706137   -2.113514   -0.381807
     24          1           0       -2.422274   -1.456484   -1.988335
     25          1           0       -0.528947   -0.096135   -1.136310
     26          1           0       -0.279668   -1.790533   -0.748028
     27          1           0       -1.152833   -1.433753    1.535429
     28          1           0       -1.356992    1.518693    0.787397
     29          1           0       -1.683214    0.836673    2.367973
     30          1           0       -3.812912    1.174142    1.132963
     31          1           0       -3.539267   -0.523356    1.503424
     32          1           0        1.862892   -0.232607    3.043616
     33          1           0        0.503718    0.914267    3.062033
     34          1           0        0.219901   -0.821150    3.368642
     35          1           0        1.631748    3.689451   -0.028758
     36          1           0        3.316143    2.822631   -1.711310
     37          1           0        4.201994   -0.925791   -1.698324
     38          1           0        1.507266   -2.093341    0.883832
     39          1           0        2.541857   -3.315531    0.171103
     40          1           0       -4.927583   -0.808234   -1.892946
     41          1           0       -5.028496   -1.390576   -0.221624
     42          1           0       -5.497488    0.274351   -0.610714
 ---------------------------------------------------------------------

 SCF Done:  E(UB3LYP) =  -821.420387297     A.U. after   33 cycles
 SCF Done:  E(UB3LYP) =  -821.420387297     a.u. after    1 cycles

 The electronic state is 2-A.
 Alpha  occ. eigenvalues --  -14.18942 -14.16515 -14.13505 -14.12561 -14.10670
 Alpha  occ. eigenvalues --  -10.09155 -10.09077 -10.08382 -10.08045 -10.07727
 Alpha  occ. eigenvalues --  -10.07670 -10.07140 -10.06865 -10.06718 -10.05270
 Alpha  occ. eigenvalues --  -10.05031 -10.04509 -10.04166 -10.03356  -0.83372
 Alpha  occ. eigenvalues --   -0.79353  -0.78453  -0.74755  -0.72833  -0.68805
 Alpha  occ. eigenvalues --   -0.67065  -0.64369  -0.61175  -0.60003  -0.58680
 Alpha  occ. eigenvalues --   -0.54750  -0.51429  -0.50594  -0.49645  -0.45306
 Alpha  occ. eigenvalues --   -0.43465  -0.43019  -0.39381  -0.38752  -0.36785
 Alpha  occ. eigenvalues --   -0.36323  -0.36031  -0.35736  -0.34408  -0.33058
 Alpha  occ. eigenvalues --   -0.32822  -0.31263  -0.30651  -0.30128  -0.29625
 Alpha  occ. eigenvalues --   -0.29250  -0.28515  -0.27733  -0.27570  -0.26576
 Alpha  occ. eigenvalues --   -0.26250  -0.25068  -0.24282  -0.24045  -0.23560
 Alpha  occ. eigenvalues --   -0.22400  -0.21473  -0.21059  -0.19924  -0.16899
 Alpha  occ. eigenvalues --   -0.14249  -0.11696  -0.11250  -0.10381  -0.08697
 Alpha  occ. eigenvalues --   -0.08313   0.04604
 Alpha virt. eigenvalues --    0.06128   0.07779   0.08385   0.08833   0.09706
 Alpha virt. eigenvalues --    0.10030   0.10150   0.10617   0.11286   0.11668
 Alpha virt. eigenvalues --    0.11973   0.12085   0.12798   0.13029   0.13463

  Beta  occ. eigenvalues --  -14.18943 -14.16474 -14.12931 -14.11809 -14.10568
  Beta  occ. eigenvalues --  -10.09160 -10.09077 -10.08491 -10.08011 -10.07727
  Beta  occ. eigenvalues --  -10.07671 -10.07139 -10.06864 -10.06718 -10.05266
  Beta  occ. eigenvalues --  -10.05031 -10.04596 -10.03934 -10.03090  -0.83038
  Beta  occ. eigenvalues --   -0.79060  -0.77998  -0.74701  -0.71827  -0.68578
  Beta  occ. eigenvalues --   -0.67041  -0.64364  -0.60817  -0.60002  -0.58675
  Beta  occ. eigenvalues --   -0.54627  -0.51325  -0.49967  -0.49424  -0.45186
  Beta  occ. eigenvalues --   -0.43414  -0.42771  -0.39236  -0.38704  -0.36595
  Beta  occ. eigenvalues --   -0.36309  -0.35985  -0.35619  -0.34394  -0.32946
  Beta  occ. eigenvalues --   -0.32710  -0.31204  -0.30628  -0.30027  -0.29492
  Beta  occ. eigenvalues --   -0.29170  -0.28383  -0.27715  -0.27563  -0.26412
  Beta  occ. eigenvalues --   -0.25084  -0.24904  -0.24172  -0.23950  -0.23422
  Beta  occ. eigenvalues --   -0.21858  -0.21451  -0.20710  -0.19880  -0.13960
  Beta  occ. eigenvalues --   -0.13527  -0.11174  -0.10521  -0.09937  -0.07916
  Beta  occ. eigenvalues --   -0.07654
  Beta virt. eigenvalues --    0.06107   0.07751   0.08350   0.08805   0.09693
  Beta virt. eigenvalues --    0.09996   0.10119   0.10550   0.11246   0.11551
  Beta virt. eigenvalues --    0.11901   0.12059   0.12507   0.12773   0.12999

 Mulliken charges and spin densities:
               1          2
     1  C   -0.653345  -0.007114
     2  C    0.941350   0.004652
     3  C   -0.884850  -0.002533
     4  C   -0.168801   0.045659
     5  C   -0.313786   0.013195
     6  C   -0.131414  -0.012774
     7  C   -0.816102  -0.000009
     8  N    0.380461  -0.001763
     9  C   -0.132067   0.001047
    10  C   -0.937498  -0.135244
    11  N    0.044993   0.236631
    12  C   -0.152472   0.290917
    13  C    0.041940  -0.049349
    14  N   -0.095717   0.358884
    15  C   -0.032875   0.180728
    16  C   -0.434686   0.008701
    17  N   -0.433575   0.068431
    18  N   -0.419592   0.019193
    19  C   -0.537500   0.003384
    20  H    0.148015  -0.005370
    21  H    0.137197   0.003090
    22  H    0.128275   0.006586
    23  H    0.142419   0.002399
    24  H    0.170911   0.000050
    25  H    0.199076  -0.001812
    26  H    0.204797   0.001785
    27  H    0.127233  -0.001309
    28  H    0.237661  -0.004601
    29  H    0.130960   0.001273
    30  H    0.155654  -0.000561
    31  H    0.135492   0.000233
    32  H    0.134873   0.006123
    33  H    0.139725  -0.003950
    34  H    0.122443   0.003418
    35  H    0.104491  -0.020102
    36  H    0.123746   0.000502
    37  H    0.220802  -0.005479
    38  H    0.332092  -0.005438
    39  H    0.260515  -0.000661
    40  H    0.128330   0.000150
    41  H    0.125270   0.000131
    42  H    0.125559   0.000908
 Sum of Mulliken charges =  -1.00000   1.00000

 Dipole moment (field-independent basis, Debye):
    X=            -10.9291    Y=             -0.4576    Z=              3.3371  Tot=             11.4364
 Quadrupole moment (field-independent basis, Debye-Ang):
   XX=           -174.8494   YY=           -141.4323   ZZ=           -131.4017
   XY=              7.3755   XZ=             12.1855   YZ=             -8.2590

 Summary of Natural Population Analysis:

                                       Natural Population
                Natural  -----------------------------------------------
    Atom  No    Charge         Core      Valence    Rydberg      Total
 -----------------------------------------------------------------------
      C    1   -0.28805      0.99963     2.28224    0.00618     3.28805
      C    2   -0.04439      0.99958     2.03771    0.00710     3.04439
      C    3   -0.18295      0.99960     2.17524    0.00811     3.18295
      C    4   -0.20559      0.99960     2.19847    0.00752     3.20559
      C    5    0.00896      0.99957     1.97871    0.01277     2.99104
      C    6   -0.20565      0.99960     2.19836    0.00769     3.20565
      C    7   -0.18488      0.99960     2.17721    0.00807     3.18488
      N    8   -0.30167      0.99969     2.78753    0.01445     3.80167
      C    9   -0.17474      0.99965     2.16849    0.00660     3.17474
      C   10    0.15868      0.99947     1.82461    0.01723     2.84132
      N   11   -0.17931      0.99966     2.66693    0.01271     3.67931
      C   12    0.04259      0.99960     1.94068    0.01714     2.95741
      C   13   -0.01449      0.99960     2.00195    0.01294     3.01449
      N   14   -0.12741      0.99967     2.61364    0.01411     3.62741
      C   15    0.08215      0.99944     1.90362    0.01479     2.91785
      C   16    0.21273      0.99964     1.76784    0.01978     2.78727
      N   17   -0.36965      0.99971     2.86089    0.00905     3.86965
      N   18   -0.41217      0.99970     2.90370    0.00877     3.91217
      C   19   -0.28074      0.99963     2.27533    0.00578     3.28074
      H   20    0.10886      0.00000     0.39034    0.00080     0.39114
      H   21    0.09620      0.00000     0.40304    0.00076     0.40380
      H   22    0.09484      0.00000     0.40437    0.00079     0.40516
      H   23    0.09174      0.00000     0.40712    0.00114     0.40826
      H   24    0.09735      0.00000     0.40169    0.00096     0.40265
      H   25    0.10606      0.00000     0.39273    0.00121     0.39394
      H   26    0.11497      0.00000     0.38324    0.00179     0.38503
      H   27    0.08404      0.00000     0.41477    0.00119     0.41596
      H   28    0.11474      0.00000     0.38393    0.00133     0.38526
      H   29    0.09710      0.00000     0.40188    0.00102     0.40290
      H   30    0.09513      0.00000     0.40383    0.00104     0.40487
      H   31    0.09097      0.00000     0.40783    0.00120     0.40903
      H   32    0.09688      0.00000     0.40230    0.00082     0.40312
      H   33    0.09232      0.00000     0.40620    0.00148     0.40768
      H   34    0.08474      0.00000     0.41442    0.00085     0.41526
      H   35    0.07637      0.00000     0.42249    0.00114     0.42363
      H   36    0.07932      0.00000     0.41932    0.00135     0.42068
      H   37    0.17687      0.00000     0.32111    0.00202     0.32313
      H   38    0.20017      0.00000     0.29761    0.00222     0.29983
      H   39    0.17991      0.00000     0.31747    0.00262     0.32009
      H   40    0.09633      0.00000     0.40280    0.00086     0.40367
      H   41    0.09628      0.00000     0.40288    0.00084     0.40372
      H   42    0.09536      0.00000     0.40376    0.00088     0.40464
 =======================================================================
   * Total *   -0.00000     18.99263    51.76828    0.23910    71.00000

 Normal termination of Gaussian 16 at Thu Dec 17 22:09:03 2020.
