 Gaussian 16, Revision A.03,

 -----------------------------------------------------------
 # opt freq B3LYP/6-31G(d) empiricaldispersion=gd3bj scf=xqc
 -----------------------------------------------------------

 -------------------------------
 CID_137756705_JID_8537_neutraal
 -------------------------------
 Symbolic Z-matrix:
 Charge =  0 Multiplicity = 1

 SCF Done:  E(RB3LYP) =  -831.579182886     A.U. after   16 cycles
 SCF Done:  E(RB3LYP) =  -831.608587067     A.U. after   14 cycles
 SCF Done:  E(RB3LYP) =  -831.611857125     A.U. after   14 cycles
 SCF Done:  E(RB3LYP) =  -831.613351366     A.U. after   14 cycles
 SCF Done:  E(RB3LYP) =  -831.614387013     A.U. after   14 cycles
 SCF Done:  E(RB3LYP) =  -831.615694926     A.U. after   16 cycles
 SCF Done:  E(RB3LYP) =  -831.617236808     A.U. after   14 cycles
 SCF Done:  E(RB3LYP) =  -831.618152941     A.U. after   14 cycles
 SCF Done:  E(RB3LYP) =  -831.618467859     A.U. after   13 cycles
 SCF Done:  E(RB3LYP) =  -831.618673939     A.U. after   13 cycles
 SCF Done:  E(RB3LYP) =  -831.619083673     A.U. after   10 cycles
 SCF Done:  E(RB3LYP) =  -831.619084438     A.U. after    9 cycles
 SCF Done:  E(RB3LYP) =  -831.619084947     A.U. after    8 cycles
 SCF Done:  E(RB3LYP) =  -831.619085473     A.U. after   10 cycles
 SCF Done:  E(RB3LYP) =  -831.619085644     A.U. after    8 cycles
 SCF Done:  E(RB3LYP) =  -831.619085729     A.U. after    8 cycles
 Optimization completed.
    -- Stationary point found.
 Normal termination of Gaussian 16 at Fri Dec 11 21:08:33 2020.

 --------------------------------------------------------------------
 #N Geom=AllCheck Guess=TCheck SCRF=Check GenChk RB3LYP/6-31G(d) Freq
 --------------------------------------------------------------------

 Structure from the checkpoint file:  "JID_8537.chk"
 -------------------------------
 CID_137756705_JID_8537_neutraal
 -------------------------------
 Charge =  0 Multiplicity = 1

 SCF Done:  E(RB3LYP) =  -831.619085729     A.U. after    1 cycles

  Exact polarizability: 326.331  15.936 160.631  -0.001   0.013  52.968
 Approx polarizability: 494.997  34.035 302.909  -0.006   0.056  84.419

                      1                      2                      3
                      A                      A                      A
 Frequencies --     20.1343                25.3658                59.0039
 Red. masses --      5.9018                 8.0687                 7.7130
 Frc consts  --      0.0014                 0.0031                 0.0158
 IR Inten    --      0.8548                 4.2940                 0.2992

                      4                      5                      6
                      A                      A                      A
 Frequencies --    101.4476               127.1664               162.2480
 Red. masses --      8.7468                 6.3888                 4.9709
 Frc consts  --      0.0530                 0.0609                 0.0771
 IR Inten    --      0.2113                 6.4278                 1.8861

                      7                      8                      9
                      A                      A                      A
 Frequencies --    167.4419               191.3481               194.5719
 Red. masses --      9.4380                 8.8860                 7.1103
 Frc consts  --      0.1559                 0.1917                 0.1586
 IR Inten    --      6.3412                 4.2481                 5.4990

                     10                     11                     12
                      A                      A                      A
 Frequencies --    252.2784               262.2176               283.1512
 Red. masses --      1.2916                 7.0978                 4.7994
 Frc consts  --      0.0484                 0.2875                 0.2267
 IR Inten    --    215.5882                10.8110                25.3103

                     13                     14                     15
                      A                      A                      A
 Frequencies --    339.2956               387.4817               429.2778
 Red. masses --      7.3655                 3.2205                 3.1783
 Frc consts  --      0.4996                 0.2849                 0.3451
 IR Inten    --      1.0120                 3.5309                 9.1901

                     16                     17                     18
                      A                      A                      A
 Frequencies --    451.1361               490.2286               500.1416
 Red. masses --      6.0657                 2.9998                 6.0358
 Frc consts  --      0.7274                 0.4248                 0.8896
 IR Inten    --     10.4383                18.2754                 3.7307

                     19                     20                     21
                      A                      A                      A
 Frequencies --    523.0459               536.1256               539.1853
 Red. masses --      8.8634                 7.3983                 4.4292
 Frc consts  --      1.4287                 1.2529                 0.7587
 IR Inten    --      0.7765                17.0617                 5.6301

                     22                     23                     24
                      A                      A                      A
 Frequencies --    556.8334               596.6636               608.1219
 Red. masses --      7.8477                 2.3402                 4.8673
 Frc consts  --      1.4337                 0.4909                 1.0605
 IR Inten    --      6.0243                 9.1743                 5.3868

                     25                     26                     27
                      A                      A                      A
 Frequencies --    612.6274               616.1460               682.8889
 Red. masses --      1.4595                 6.6474                 1.5720
 Frc consts  --      0.3227                 1.4869                 0.4319
 IR Inten    --      2.8300                16.1692                46.8413

                     28                     29                     30
                      A                      A                      A
 Frequencies --    741.9664               743.2597               757.5897
 Red. masses --      4.6345                 3.3579                 6.5445
 Frc consts  --      1.5032                 1.0929                 2.2131
 IR Inten    --     11.4224                43.2045                 6.2247

                     31                     32                     33
                      A                      A                      A
 Frequencies --    778.2460               805.4847               818.2655
 Red. masses --      7.8988                 4.8221                 5.7917
 Frc consts  --      2.8187                 1.8433                 2.2848
 IR Inten    --     11.4564                11.3339                 7.9022

                     34                     35                     36
                      A                      A                      A
 Frequencies --    884.3078               925.7858               933.2322
 Red. masses --      1.4957                 7.0725                 1.3923
 Frc consts  --      0.6891                 3.5714                 0.7144
 IR Inten    --     22.9762                10.7149                 0.2385

                     37                     38                     39
                      A                      A                      A
 Frequencies --    948.5085               948.5186               986.0143
 Red. masses --      4.5221                 1.4277                 1.4898
 Frc consts  --      2.3970                 0.7568                 0.8534
 IR Inten    --      2.8043                 4.1838                15.6028

                     40                     41                     42
                      A                      A                      A
 Frequencies --   1028.2882              1096.4030              1100.9381
 Red. masses --      1.3050                 2.7705                 2.0838
 Frc consts  --      0.8130                 1.9622                 1.4881
 IR Inten    --      0.6299                 0.9277                 3.6768

                     43                     44                     45
                      A                      A                      A
 Frequencies --   1132.9027              1154.9995              1188.9206
 Red. masses --      2.4134                 4.1291                 1.3934
 Frc consts  --      1.8250                 3.2454                 1.1604
 IR Inten    --     85.1515                 4.8906                36.1912

                     46                     47                     48
                      A                      A                      A
 Frequencies --   1215.1287              1274.9753              1286.8614
 Red. masses --      2.7336                 3.6499                 2.2040
 Frc consts  --      2.3781                 3.4957                 2.1505
 IR Inten    --     41.7817                82.6565                23.3178

                     49                     50                     51
                      A                      A                      A
 Frequencies --   1323.0998              1353.7756              1378.0994
 Red. masses --      2.0047                 2.7249                 7.5087
 Frc consts  --      2.0677                 2.9424                 8.4018
 IR Inten    --     84.5969                82.5149                20.8736

                     52                     53                     54
                      A                      A                      A
 Frequencies --   1425.4498              1455.0085              1473.9705
 Red. masses --      1.6420                 2.2097                 2.0916
 Frc consts  --      1.9657                 2.7562                 2.6773
 IR Inten    --     41.4843                26.6876                26.4935

                     55                     56                     57
                      A                      A                      A
 Frequencies --   1489.0612              1533.1438              1584.7096
 Red. masses --      2.2804                 2.8605                 6.0406
 Frc consts  --      2.9792                 3.9615                 8.9378
 IR Inten    --    197.7391                64.3910               106.3693

                     58                     59                     60
                      A                      A                      A
 Frequencies --   1634.6884              1645.0932              1661.8472
 Red. masses --      4.2534                 1.3340                 6.4341
 Frc consts  --      6.6966                 2.1271                10.4694
 IR Inten    --    601.4915                87.6604               149.4118

                     61                     62                     63
                      A                      A                      A
 Frequencies --   1678.5654              1781.4187              1807.2602
 Red. masses --      6.0678                 7.8389                 9.6021
 Frc consts  --     10.0730                14.6568                18.4782
 IR Inten    --     45.0385               270.3443               422.1404

                     64                     65                     66
                      A                      A                      A
 Frequencies --   2324.2187              3163.0795              3194.0589
 Red. masses --     12.6724                 1.0873                 1.0927
 Frc consts  --     40.3331                 6.4093                 6.5678
 IR Inten    --     73.6078                 4.0871                15.2543

                     67                     68                     69
                      A                      A                      A
 Frequencies --   3209.6776              3221.7418              3267.1853
 Red. masses --      1.0904                 1.0914                 1.0927
 Frc consts  --      6.6187                 6.6744                 6.8724
 IR Inten    --      1.8957                 3.9116                68.1615

                     70                     71                     72
                      A                      A                      A
 Frequencies --   3592.4381              3597.8598              3722.8419
 Red. masses --      1.0782                 1.0452                 1.1060
 Frc consts  --      8.1985                 7.9718                 9.0312
 IR Inten    --     85.5943                85.8133                63.1617

 - Thermochemistry -
 -------------------
 Temperature   298.150 Kelvin.  Pressure   1.00000 Atm.
 Atom     1 has atomic number  6 and mass  12.00000

 Molecular mass:   240.06473 amu.
 Principal axes and moments of inertia in atomic units:
                           1         2         3
     Eigenvalues --  1727.814758958.24381**********
           X            1.00000  -0.00295   0.00001
           Y            0.00295   1.00000   0.00000
           Z           -0.00001  -0.00000   1.00000
 This molecule is an asymmetric top.
 Rotational symmetry number  1.
 Warning -- assumption of classical behavior for rotation
           may cause significant error
 Rotational temperatures (Kelvin)      0.05013     0.00967     0.00811
 Rotational constants (GHZ):           1.04452     0.20146     0.16889
 Zero-point vibrational energy     496357.3 (Joules/Mol)
                                  118.63225 (Kcal/Mol)
 Warning -- explicit consideration of  26 degrees of freedom as
           vibrations may cause significant error
 Vibrational temperatures:     28.97    36.50    84.89   145.96   182.96
          (Kelvin)            233.44   240.91   275.31   279.95   362.97
                              377.27   407.39   488.17   557.50   617.64
                              649.08   705.33   719.59   752.55   771.37
                              775.77   801.16   858.47   874.95   881.43
                              886.50   982.52  1067.52  1069.38  1090.00
                             1119.72  1158.91  1177.30  1272.32  1332.00
                             1342.71  1364.69  1364.71  1418.65  1479.48
                             1577.48  1584.00  1629.99  1661.79  1710.59
                             1748.30  1834.41  1851.51  1903.65  1947.78
                             1982.78  2050.90  2093.43  2120.71  2142.43
                             2205.85  2280.04  2351.95  2366.92  2391.03
                             2415.08  2563.06  2600.24  3344.03  4550.97
                             4595.54  4618.01  4635.37  4700.75  5168.72
                             5176.52  5356.34

 Zero-point correction=                           0.189053 (Hartree/Particle)
 Thermal correction to Energy=                    0.203959
 Thermal correction to Enthalpy=                  0.204904
 Thermal correction to Gibbs Free Energy=         0.145014
 Sum of electronic and zero-point Energies=           -831.430033
 Sum of electronic and thermal Energies=              -831.415126
 Sum of electronic and thermal Enthalpies=            -831.414182
 Sum of electronic and thermal Free Energies=         -831.474072

                     E (Thermal)             CV                S
                      KCal/Mol        Cal/Mol-Kelvin    Cal/Mol-Kelvin
 Total                  127.986             56.487            126.048
 Electronic               0.000              0.000              0.000
 Translational            0.889              2.981             42.328
 Rotational               0.889              2.981             33.469
 Vibrational            126.209             50.526             50.251
 Vibration     1          0.593              1.986              6.621
 Vibration     2          0.593              1.985              6.162
 Vibration     3          0.596              1.974              4.490
 Vibration     4          0.604              1.948              3.426
 Vibration     5          0.611              1.926              2.988
 Vibration     6          0.622              1.889              2.523
 Vibration     7          0.624              1.883              2.464
 Vibration     8          0.634              1.852              2.215
 Vibration     9          0.635              1.847              2.184
 Vibration    10          0.664              1.759              1.715
 Vibration    11          0.670              1.742              1.647
 Vibration    12          0.682              1.705              1.515
 Vibration    13          0.719              1.597              1.215
 Vibration    14          0.756              1.497              1.010
 Vibration    15          0.791              1.406              0.861
 Vibration    16          0.810              1.358              0.792
 Vibration    17          0.846              1.272              0.683
 Vibration    18          0.856              1.250              0.658
 Vibration    19          0.878              1.199              0.603
 Vibration    20          0.891              1.170              0.574
 Vibration    21          0.894              1.163              0.567
 Vibration    22          0.912              1.125              0.530
 Vibration    23          0.955              1.039              0.455
 Vibration    24          0.967              1.015              0.436
 Vibration    25          0.972              1.005              0.428
 Vibration    26          0.976              0.998              0.423

                           ! Non-Optimized Parameters !
 Normal termination of Gaussian 16 at Fri Dec 11 21:16:59 2020.

 ----------------------------------------------------------------------
 # B3LYP/6-311++G(d,p) empiricaldispersion=gd3bj scf=xqc pop=npa geom=c
 heck
 ----------------------------------------------------------------------

 ---------------------------------------
 CID_137756705_JID_8537_Energie_neutraal
 ---------------------------------------
 Structure from the checkpoint file:  "JID_8537.chk"
 Charge =  0 Multiplicity = 1

 SCF Done:  E(RB3LYP) =  -831.851513035     A.U. after   15 cycles
 Normal termination of Gaussian 16 at Fri Dec 11 21:20:09 2020.

 ----------------------------------------------------------------------
 # B3LYP/6-311++G(d,p) empiricaldispersion=gd3bj scf=xqc pop=npa geom=c
 heck
 ----------------------------------------------------------------------

 -------------------------------------
 CID_137756705_JID_8537_Energie_kation
 -------------------------------------
 Structure from the checkpoint file:  "JID_8537.chk"
 Charge =  1 Multiplicity = 2

 SCF Done:  E(UB3LYP) =  -831.541939221     A.U. after   25 cycles
 Normal termination of Gaussian 16 at Fri Dec 11 21:27:09 2020.
 Gaussian 16:  ES64L-G16RevA.03 25-Dec-2016

 ----------------------------------------------------------------------
 # B3LYP/6-311++G(d,p) empiricaldispersion=gd3bj scf=xqc pop=npa geom=c
 heck
 ----------------------------------------------------------------------

 ------------------------------------
 CID_137756705_JID_8537_Energie_anion
 ------------------------------------
 Structure from the checkpoint file:  "JID_8537.chk"
 Charge = -1 Multiplicity = 2

                         Standard orientation:
 ---------------------------------------------------------------------
 Center     Atomic      Atomic             Coordinates (Angstroms)
 Number     Number       Type             X           Y           Z
 ---------------------------------------------------------------------
      1          6           0        0.142054   -1.333933   -0.001645
      2          6           0       -1.130536   -1.870238   -0.001410
      3          6           0       -2.270165   -1.043046   -0.000542
      4          6           0       -2.082286    0.361776    0.000003
      5          6           0       -0.796121    0.898704   -0.000320
      6          6           0        0.340230    0.073550   -0.001038
      7          6           0        1.613659    0.776066   -0.001284
      8          6           0        2.940027    0.439949   -0.000592
      9          6           0        3.848948    1.550100   -0.001117
     10          7           0        4.633313    2.411659   -0.001427
     11          6           0        3.587474   -0.919699    0.000935
     12          8           0        2.964816   -1.977153   -0.000003
     13          7           0        4.949212   -0.901600    0.003733
     14          6           0       -3.247736    1.252940    0.000868
     15          8           0       -3.236991    2.473488    0.001385
     16          7           0       -4.458416    0.539834    0.001006
     17          6           0       -4.539267   -0.827538    0.000433
     18          7           0       -3.527025   -1.629911   -0.000320
     19          1           0        1.011899   -1.975588   -0.002314
     20          1           0       -1.282338   -2.944388   -0.001924
     21          1           0       -0.700835    1.980402    0.000061
     22          1           0        1.462935    1.854104   -0.001990
     23          1           0        5.495683   -0.053041    0.002700
     24          1           0        5.421012   -1.793873    0.003470
     25          1           0       -5.300260    1.104885    0.001604
     26          1           0       -5.547960   -1.234848    0.000648
 ---------------------------------------------------------------------

 SCF Done:  E(UB3LYP) =  -831.910645329     A.U. after   24 cycles

 The electronic state is 2-A.
 Alpha  occ. eigenvalues --  -18.99411 -18.96708 -14.26896 -14.22002 -14.20418
 Alpha  occ. eigenvalues --  -14.17944 -10.17979 -10.15981 -10.14340 -10.09355
 Alpha  occ. eigenvalues --  -10.08316 -10.07034 -10.06749 -10.06331 -10.05863
 Alpha  occ. eigenvalues --  -10.05669 -10.05472 -10.04825  -0.94999  -0.92187
 Alpha  occ. eigenvalues --   -0.88197  -0.80013  -0.79900  -0.77866  -0.74087
 Alpha  occ. eigenvalues --   -0.68721  -0.65153  -0.63954  -0.57432  -0.55242
 Alpha  occ. eigenvalues --   -0.52714  -0.49126  -0.47561  -0.45503  -0.44192
 Alpha  occ. eigenvalues --   -0.43669  -0.40308  -0.39729  -0.35888  -0.35391
 Alpha  occ. eigenvalues --   -0.34837  -0.33379  -0.32435  -0.31344  -0.30933
 Alpha  occ. eigenvalues --   -0.29990  -0.28080  -0.27629  -0.26281  -0.25905
 Alpha  occ. eigenvalues --   -0.24561  -0.24228  -0.23027  -0.21490  -0.20431
 Alpha  occ. eigenvalues --   -0.17391  -0.16805  -0.16653  -0.15928  -0.14800
 Alpha  occ. eigenvalues --   -0.14274  -0.11234  -0.00514
 Alpha virt. eigenvalues --    0.06282   0.06386   0.08125   0.08251   0.09593
 Alpha virt. eigenvalues --    0.10427   0.11084   0.12242   0.12539   0.12997
 Alpha virt. eigenvalues --    0.13084   0.13959   0.13965   0.14679   0.15493

  Beta  occ. eigenvalues --  -18.99413 -18.96602 -14.26861 -14.21950 -14.20527
  Beta  occ. eigenvalues --  -14.17806 -10.17966 -10.15933 -10.14055 -10.09097
  Beta  occ. eigenvalues --  -10.08332 -10.07092 -10.06569 -10.06342 -10.05677
  Beta  occ. eigenvalues --  -10.05540 -10.05234 -10.04677  -0.94960  -0.92002
  Beta  occ. eigenvalues --   -0.88030  -0.79911  -0.79738  -0.77672  -0.73834
  Beta  occ. eigenvalues --   -0.68113  -0.64975  -0.63572  -0.56926  -0.54965
  Beta  occ. eigenvalues --   -0.52325  -0.48890  -0.47422  -0.45361  -0.44080
  Beta  occ. eigenvalues --   -0.43497  -0.40107  -0.39537  -0.35739  -0.34977
  Beta  occ. eigenvalues --   -0.34703  -0.33257  -0.32357  -0.31266  -0.30225
  Beta  occ. eigenvalues --   -0.29847  -0.27862  -0.27205  -0.25680  -0.25462
  Beta  occ. eigenvalues --   -0.24349  -0.23532  -0.22927  -0.21380  -0.19527
  Beta  occ. eigenvalues --   -0.17443  -0.16812  -0.16127  -0.14923  -0.14142
  Beta  occ. eigenvalues --   -0.14118  -0.10014
  Beta virt. eigenvalues --    0.04880   0.06267   0.06846   0.08129   0.09570
  Beta virt. eigenvalues --    0.10000   0.10424   0.11089   0.12239   0.12999
  Beta virt. eigenvalues --    0.13050   0.13288   0.13966   0.14619   0.14717

 Mulliken charges and spin densities:
               1          2
     1  C   -0.758901   0.121177
     2  C   -0.681164  -0.044988
     3  C   -0.802798   0.160641
     4  C    0.900508  -0.030150
     5  C   -0.446528   0.121377
     6  C    0.336216  -0.023591
     7  C    0.321670   0.338681
     8  C    1.438646   0.132177
     9  C   -1.503087  -0.041395
    10  N   -0.290067   0.075609
    11  C   -0.182637   0.028225
    12  O   -0.429272   0.039090
    13  N   -0.404534   0.023426
    14  C    0.374934   0.008884
    15  O   -0.371207   0.001895
    16  N   -0.296808   0.004969
    17  C    0.156592   0.202648
    18  N   -0.115314  -0.064142
    19  H    0.210559  -0.008402
    20  H    0.169259   0.003199
    21  H    0.188375  -0.008894
    22  H    0.118595  -0.020958
    23  H    0.284989  -0.001051
    24  H    0.279392  -0.001348
    25  H    0.331301  -0.000647
    26  H    0.171282  -0.016433
 Sum of Mulliken charges =  -1.00000   1.00000

 Dipole moment (field-independent basis, Debye):
    X=             -5.0230    Y=             -2.6320    Z=              0.0018  Tot=              5.6709
 Quadrupole moment (field-independent basis, Debye-Ang):
   XX=           -141.6893   YY=           -140.7298   ZZ=           -110.7227
   XY=            -14.9584   XZ=              0.0053   YZ=              0.0010

 Summary of Natural Population Analysis:

                                       Natural Population
                Natural  -----------------------------------------------
    Atom  No    Charge         Core      Valence    Rydberg      Total
 -----------------------------------------------------------------------
      C    1   -0.03905      0.99953     2.03079    0.00873     3.03905
      C    2   -0.12378      0.99954     2.11483    0.00941     3.12378
      C    3    0.12804      0.99947     1.85952    0.01297     2.87196
      C    4   -0.10882      0.99936     2.10147    0.00798     3.10882
      C    5   -0.01182      0.99944     2.00323    0.00915     3.01182
      C    6   -0.06845      0.99955     2.05529    0.01361     3.06845
      C    7    0.07463      0.99958     1.91439    0.01139     2.92537
      C    8   -0.08140      0.99939     2.06455    0.01746     3.08140
      C    9    0.13035      0.99971     1.84809    0.02184     2.86965
      N   10   -0.19957      0.99979     2.68841    0.01138     3.69957
      C   11    0.32498      0.99973     1.64964    0.02565     2.67502
      O   12   -0.32855      0.99987     3.32098    0.00770     4.32855
      N   13   -0.39611      0.99972     2.89255    0.00384     3.89611
      C   14    0.33348      0.99961     1.64490    0.02201     2.66652
      O   15   -0.32605      0.99988     3.31925    0.00692     4.32605
      N   16   -0.30171      0.99967     2.79486    0.00718     3.80171
      C   17    0.19878      0.99967     1.78513    0.01641     2.80122
      N   18   -0.27408      0.99969     2.76317    0.01122     3.77408
      H   19    0.12452      0.00000     0.37419    0.00129     0.37548
      H   20    0.10060      0.00000     0.39768    0.00172     0.39940
      H   21    0.10304      0.00000     0.39482    0.00215     0.39696
      H   22    0.08621      0.00000     0.41197    0.00183     0.41379
      H   23    0.20053      0.00000     0.29829    0.00118     0.29947
      H   24    0.18839      0.00000     0.30960    0.00201     0.31161
      H   25    0.19613      0.00000     0.30121    0.00266     0.30387
      H   26    0.07709      0.00000     0.42166    0.00125     0.42291
 =======================================================================
   * Total *    0.00740     17.99321    43.76049    0.23891    61.99260

 Normal termination of Gaussian 16 at Fri Dec 11 21:33:53 2020.
