 Gaussian 16, Revision A.03,

 -----------------------------------------------------------
 # opt freq B3LYP/6-31G(d) empiricaldispersion=gd3bj scf=xqc
 -----------------------------------------------------------

 ------------------------------
 CID_55063142_JID_8419_neutraal
 ------------------------------
 Symbolic Z-matrix:
 Charge =  0 Multiplicity = 1

 SCF Done:  E(RB3LYP) =  -717.706167202     A.U. after   14 cycles
 SCF Done:  E(RB3LYP) =  -717.710859632     A.U. after   12 cycles
 SCF Done:  E(RB3LYP) =  -717.711806970     A.U. after   11 cycles
 SCF Done:  E(RB3LYP) =  -717.711939248     A.U. after   11 cycles
 SCF Done:  E(RB3LYP) =  -717.712041346     A.U. after   11 cycles
 SCF Done:  E(RB3LYP) =  -717.712168964     A.U. after   10 cycles
 SCF Done:  E(RB3LYP) =  -717.712210566     A.U. after   11 cycles
 SCF Done:  E(RB3LYP) =  -717.712239219     A.U. after    9 cycles
 SCF Done:  E(RB3LYP) =  -717.712264119     A.U. after    9 cycles
 SCF Done:  E(RB3LYP) =  -717.712273180     A.U. after    9 cycles
 SCF Done:  E(RB3LYP) =  -717.712275994     A.U. after    8 cycles
 SCF Done:  E(RB3LYP) =  -717.712276616     A.U. after    7 cycles
 SCF Done:  E(RB3LYP) =  -717.712276695     A.U. after    7 cycles
 Optimization completed.
    -- Stationary point found.
 Normal termination of Gaussian 16 at Mon Dec 14 18:59:52 2020.

 --------------------------------------------------------------------
 #N Geom=AllCheck Guess=TCheck SCRF=Check GenChk RB3LYP/6-31G(d) Freq
 --------------------------------------------------------------------

 Structure from the checkpoint file:  "JID_8419.chk"
 ------------------------------
 CID_55063142_JID_8419_neutraal
 ------------------------------
 Charge =  0 Multiplicity = 1

 SCF Done:  E(RB3LYP) =  -717.712276695     A.U. after    1 cycles

  Exact polarizability: 206.814   4.033 186.650  -1.073  -3.050 128.919
 Approx polarizability: 289.929   1.419 285.160  -2.167  -9.153 198.974

                      1                      2                      3
                      A                      A                      A
 Frequencies --     51.2755                73.1794               105.5148
 Red. masses --      3.0893                 3.5989                 2.6310
 Frc consts  --      0.0048                 0.0114                 0.0173
 IR Inten    --      0.0355                 0.0962                 1.8201

                      4                      5                      6
                      A                      A                      A
 Frequencies --    130.2687               141.4004               171.2480
 Red. masses --      3.1225                 2.8043                 2.2134
 Frc consts  --      0.0312                 0.0330                 0.0382
 IR Inten    --      0.2833                 0.6871                 0.5781

                      7                      8                      9
                      A                      A                      A
 Frequencies --    187.4913               226.2794               229.9243
 Red. masses --      1.7727                 2.5245                 2.0294
 Frc consts  --      0.0367                 0.0762                 0.0632
 IR Inten    --      0.6499                 0.6395                 0.3304

                     10                     11                     12
                      A                      A                      A
 Frequencies --    244.7046               260.3307               269.1143
 Red. masses --      1.3502                 1.9493                 2.3821
 Frc consts  --      0.0476                 0.0778                 0.1016
 IR Inten    --      0.1755                 0.1957                 3.6380

                     13                     14                     15
                      A                      A                      A
 Frequencies --    275.6382               292.2460               301.4864
 Red. masses --      1.0795                 2.8210                 2.4225
 Frc consts  --      0.0483                 0.1420                 0.1297
 IR Inten    --      0.1904                 3.5602                 0.3529

                     16                     17                     18
                      A                      A                      A
 Frequencies --    341.1031               361.2606               381.5029
 Red. masses --      2.4383                 2.5755                 2.7190
 Frc consts  --      0.1672                 0.1980                 0.2332
 IR Inten    --      0.2146                 0.8151                 0.2765

                     19                     20                     21
                      A                      A                      A
 Frequencies --    397.9723               411.6125               461.3982
 Red. masses --      2.4802                 2.6456                 3.3346
 Frc consts  --      0.2314                 0.2641                 0.4183
 IR Inten    --      0.4943                 1.2737                 0.1676

                     22                     23                     24
                      A                      A                      A
 Frequencies --    475.9394               528.5180               531.2070
 Red. masses --      2.6321                 2.7861                 3.4067
 Frc consts  --      0.3513                 0.4585                 0.5664
 IR Inten    --     22.3601                 3.7748                 4.6951

                     25                     26                     27
                      A                      A                      A
 Frequencies --    553.4673               569.9906               583.2170
 Red. masses --      3.2202                 3.5624                 3.0772
 Frc consts  --      0.5812                 0.6819                 0.6167
 IR Inten    --      7.4281                 2.5362                 4.0184

                     28                     29                     30
                      A                      A                      A
 Frequencies --    615.1718               675.1056               701.5205
 Red. masses --      2.9617                 3.8135                 2.2830
 Frc consts  --      0.6604                 1.0240                 0.6620
 IR Inten    --     19.9764                 7.2735                22.9551

                     31                     32                     33
                      A                      A                      A
 Frequencies --    732.4177               776.3527               781.1316
 Red. masses --      2.6323                 2.2012                 1.9304
 Frc consts  --      0.8319                 0.7817                 0.6940
 IR Inten    --      9.5347                11.5440                 7.9073

                     34                     35                     36
                      A                      A                      A
 Frequencies --    787.9205               795.2260               830.4804
 Red. masses --      2.0321                 1.5466                 2.5635
 Frc consts  --      0.7433                 0.5763                 1.0417
 IR Inten    --     15.1567                 0.2848                 5.3708

                     37                     38                     39
                      A                      A                      A
 Frequencies --    847.1456               882.8583               900.4707
 Red. masses --      2.5008                 1.7197                 1.5047
 Frc consts  --      1.0574                 0.7897                 0.7188
 IR Inten    --      1.4851                 5.1743                 0.4868

                     40                     41                     42
                      A                      A                      A
 Frequencies --    914.9932               924.7138               951.0979
 Red. masses --      2.1167                 1.9980                 2.0061
 Frc consts  --      1.0441                 1.0066                 1.0692
 IR Inten    --      3.5668                 2.3634                 1.3147

                     43                     44                     45
                      A                      A                      A
 Frequencies --    953.7844               966.4348               971.0257
 Red. masses --      1.6018                 1.6269                 1.5292
 Frc consts  --      0.8586                 0.8953                 0.8495
 IR Inten    --      0.2803                 1.0198                 1.3020

                     46                     47                     48
                      A                      A                      A
 Frequencies --    996.6592              1011.9821              1018.5545
 Red. masses --      2.0420                 1.4424                 1.4020
 Frc consts  --      1.1951                 0.8703                 0.8570
 IR Inten    --      2.4289                 2.0105                 0.9957

                     49                     50                     51
                      A                      A                      A
 Frequencies --   1033.9130              1046.8747              1062.3342
 Red. masses --      1.7164                 1.9356                 1.9438
 Frc consts  --      1.0810                 1.2498                 1.2925
 IR Inten    --      2.2724                 3.5556                 5.2923

                     52                     53                     54
                      A                      A                      A
 Frequencies --   1078.1022              1086.4822              1091.2245
 Red. masses --      1.7577                 2.7051                 2.7355
 Frc consts  --      1.2037                 1.8814                 1.9192
 IR Inten    --      1.6474                 5.0879                 9.5289

                     55                     56                     57
                      A                      A                      A
 Frequencies --   1093.7015              1119.1659              1133.5018
 Red. masses --      2.2917                 2.0606                 1.7341
 Frc consts  --      1.6152                 1.5207                 1.3127
 IR Inten    --     13.9125                 4.3429                 2.6819

                     58                     59                     60
                      A                      A                      A
 Frequencies --   1148.1643              1167.3342              1187.2359
 Red. masses --      2.2723                 1.9353                 2.1672
 Frc consts  --      1.7649                 1.5538                 1.7998
 IR Inten    --      6.2826                 5.2770                 7.2710

                     61                     62                     63
                      A                      A                      A
 Frequencies --   1198.2756              1207.8401              1219.2063
 Red. masses --      1.9823                 1.1532                 2.4732
 Frc consts  --      1.6770                 0.9913                 2.1661
 IR Inten    --      2.1366                 1.5842                 6.7080

                     64                     65                     66
                      A                      A                      A
 Frequencies --   1226.9472              1246.5442              1260.0870
 Red. masses --      1.8902                 1.8509                 1.4045
 Frc consts  --      1.6765                 1.6945                 1.3140
 IR Inten    --      3.3027                 4.4471                 4.3061

                     67                     68                     69
                      A                      A                      A
 Frequencies --   1271.7567              1278.8598              1314.5697
 Red. masses --      1.8323                 1.5041                 1.5572
 Frc consts  --      1.7460                 1.4493                 1.5854
 IR Inten    --      1.0915                 3.6913                 1.7938

                     70                     71                     72
                      A                      A                      A
 Frequencies --   1319.4743              1330.9800              1339.7071
 Red. masses --      1.4996                 1.7641                 1.6642
 Frc consts  --      1.5383                 1.8412                 1.7598
 IR Inten    --      1.8251                 2.6586                 1.2266

                     73                     74                     75
                      A                      A                      A
 Frequencies --   1349.8975              1355.5078              1373.4679
 Red. masses --      1.6263                 1.6720                 1.4369
 Frc consts  --      1.7460                 1.8100                 1.5970
 IR Inten    --      0.9278                 4.5182                 7.7253

                     76                     77                     78
                      A                      A                      A
 Frequencies --   1397.4598              1403.2032              1412.6575
 Red. masses --      1.5287                 1.4286                 1.4135
 Frc consts  --      1.7589                 1.6573                 1.6619
 IR Inten    --      0.7406                 1.7263                 1.6869

                     79                     80                     81
                      A                      A                      A
 Frequencies --   1418.0282              1426.1707              1444.0355
 Red. masses --      1.2538                 1.2174                 1.2618
 Frc consts  --      1.4854                 1.4589                 1.5502
 IR Inten    --      0.5055                 5.3189                 8.7694

                     82                     83                     84
                      A                      A                      A
 Frequencies --   1449.5995              1466.9264              1490.4705
 Red. masses --      1.2231                 1.3481                 2.1290
 Frc consts  --      1.5143                 1.7092                 2.7866
 IR Inten    --      5.3520                20.7635                10.6489

                     85                     86                     87
                      A                      A                      A
 Frequencies --   1510.6718              1514.1359              1516.5172
 Red. masses --      1.0748                 1.0631                 1.0702
 Frc consts  --      1.4451                 1.4361                 1.4501
 IR Inten    --      1.5995                 1.9709                 0.3661

                     88                     89                     90
                      A                      A                      A
 Frequencies --   1521.1929              1527.4267              1531.6417
 Red. masses --      1.0774                 1.0617                 1.1460
 Frc consts  --      1.4688                 1.4594                 1.5839
 IR Inten    --      7.4018                 0.0835                 3.6795

                     91                     92                     93
                      A                      A                      A
 Frequencies --   1532.9038              1534.3069              1540.4659
 Red. masses --      1.1671                 1.0571                 1.1151
 Frc consts  --      1.6159                 1.4662                 1.5591
 IR Inten    --      0.4387                 7.1272                 1.3077

                     94                     95                     96
                      A                      A                      A
 Frequencies --   1541.2669              1545.0682              1554.5436
 Red. masses --      1.0613                 1.6315                 1.0936
 Frc consts  --      1.4854                 2.2948                 1.5571
 IR Inten    --      4.4443                29.0468                 3.1393

                     97                     98                     99
                      A                      A                      A
 Frequencies --   1631.1563              1664.5527              3012.0886
 Red. masses --      5.9799                 5.2662                 1.0797
 Frc consts  --      9.3742                 8.5969                 5.7716
 IR Inten    --      0.2641                 3.1966                27.2902

                    100                    101                    102
                      A                      A                      A
 Frequencies --   3027.6922              3031.5935              3038.6969
 Red. masses --      1.0653                 1.0742                 1.0578
 Frc consts  --      5.7536                 5.8168                 5.7550
 IR Inten    --     78.8262                37.2606                 9.5403

                    103                    104                    105
                      A                      A                      A
 Frequencies --   3042.5369              3045.0246              3050.0292
 Red. masses --      1.0470                 1.0570                 1.0412
 Frc consts  --      5.7107                 5.7745                 5.7070
 IR Inten    --      2.4994                47.4923                44.5607

                    106                    107                    108
                      A                      A                      A
 Frequencies --   3054.1388              3060.5358              3074.0873
 Red. masses --      1.0389                 1.0861                 1.0890
 Frc consts  --      5.7098                 5.9939                 6.0635
 IR Inten    --     19.1925                13.7179                34.8458

                    109                    110                    111
                      A                      A                      A
 Frequencies --   3075.8050              3077.6437              3106.3097
 Red. masses --      1.0875                 1.0919                 1.0954
 Frc consts  --      6.0617                 6.0935                 6.2275
 IR Inten    --     12.9555                68.2750                49.4801

                    112                    113                    114
                      A                      A                      A
 Frequencies --   3109.1485              3113.6968              3114.8732
 Red. masses --      1.1006                 1.1010                 1.0998
 Frc consts  --      6.2682                 6.2892                 6.2871
 IR Inten    --     17.0847                46.7443                60.9072

                    115                    116                    117
                      A                      A                      A
 Frequencies --   3122.0144              3125.1891              3127.7708
 Red. masses --      1.1023                 1.1023                 1.1014
 Frc consts  --      6.3304                 6.3429                 6.3485
 IR Inten    --     51.5862                17.2095                36.7396

                    118                    119                    120
                      A                      A                      A
 Frequencies --   3131.3635              3177.9652              3189.3952
 Red. masses --      1.0999                 1.0848                 1.0888
 Frc consts  --      6.3545                 6.4552                 6.5258
 IR Inten    --     27.2930                 1.9545                19.0067

                    121                    122                    123
                      A                      A                      A
 Frequencies --   3197.6516              3206.2040              3549.7846
 Red. masses --      1.0926                 1.0973                 1.0757
 Frc consts  --      6.5821                 6.6458                 7.9862
 IR Inten    --     10.5562                46.3603                 0.2228

 - Thermochemistry -
 -------------------
 Temperature   298.150 Kelvin.  Pressure   1.00000 Atm.
 Atom     1 has atomic number  6 and mass  12.00000

 Molecular mass:   243.19870 amu.
 Principal axes and moments of inertia in atomic units:
                           1         2         3
     Eigenvalues --  2747.612744997.661166489.57521
           X            0.99996  -0.00934   0.00161
           Y            0.00933   0.99995   0.00465
           Z           -0.00165  -0.00463   0.99999
 This molecule is an asymmetric top.
 Rotational symmetry number  1.
 Warning -- assumption of classical behavior for rotation
           may cause significant error
 Rotational temperatures (Kelvin)      0.03152     0.01733     0.01335
 Rotational constants (GHZ):           0.65684     0.36112     0.27810
 Zero-point vibrational energy    1026211.3 (Joules/Mol)
                                  245.27039 (Kcal/Mol)
 Warning -- explicit consideration of  28 degrees of freedom as
           vibrations may cause significant error
 Vibrational temperatures:     73.77   105.29   151.81   187.43   203.44
          (Kelvin)            246.39   269.76   325.57   330.81   352.08
                              374.56   387.20   396.58   420.48   433.77
                              490.77   519.77   548.90   572.59   592.22
                              663.85   684.77   760.42   764.29   796.32
                              820.09   839.12   885.09   971.33  1009.33
                             1053.79  1117.00  1123.87  1133.64  1144.15
                             1194.88  1218.85  1270.24  1295.58  1316.47
                             1330.46  1368.42  1372.28  1390.48  1397.09
                             1433.97  1456.02  1465.47  1487.57  1506.22
                             1528.46  1551.15  1563.21  1570.03  1573.59
                             1610.23  1630.86  1651.95  1679.53  1708.17
                             1724.05  1737.81  1754.17  1765.30  1793.50
                             1812.98  1829.77  1839.99  1891.37  1898.43
                             1914.98  1927.54  1942.20  1950.27  1976.11
                             2010.63  2018.90  2032.50  2040.23  2051.94
                             2077.65  2085.65  2110.58  2144.45  2173.52
                             2178.50  2181.93  2188.66  2197.63  2203.69
                             2205.51  2207.53  2216.39  2217.54  2223.01
                             2236.64  2346.87  2394.92  4333.72  4356.17
                             4361.79  4372.01  4377.53  4381.11  4388.31
                             4394.22  4403.43  4422.93  4425.40  4428.04
                             4469.29  4473.37  4479.92  4481.61  4491.88
                             4496.45  4500.16  4505.33  4572.38  4588.83
                             4600.71  4613.01  5107.35

 Zero-point correction=                           0.390863 (Hartree/Particle)
 Thermal correction to Energy=                    0.407462
 Thermal correction to Enthalpy=                  0.408406
 Thermal correction to Gibbs Free Energy=         0.348644
 Sum of electronic and zero-point Energies=           -717.321413
 Sum of electronic and thermal Energies=              -717.304815
 Sum of electronic and thermal Enthalpies=            -717.303871
 Sum of electronic and thermal Free Energies=         -717.363633

                     E (Thermal)             CV                S
                      KCal/Mol        Cal/Mol-Kelvin    Cal/Mol-Kelvin
 Total                  255.686             68.790            125.780
 Electronic               0.000              0.000              0.000
 Translational            0.889              2.981             42.367
 Rotational               0.889              2.981             32.855
 Vibrational            253.909             62.828             50.558
 Vibration     1          0.596              1.977              4.768
 Vibration     2          0.599              1.967              4.066
 Vibration     3          0.605              1.945              3.350
 Vibration     4          0.612              1.923              2.942
 Vibration     5          0.615              1.912              2.785
 Vibration     6          0.626              1.878              2.422
 Vibration     7          0.632              1.857              2.252
 Vibration     8          0.650              1.801              1.908
 Vibration     9          0.652              1.795              1.880
 Vibration    10          0.660              1.772              1.768
 Vibration    11          0.668              1.745              1.660
 Vibration    12          0.674              1.730              1.602
 Vibration    13          0.677              1.718              1.561
 Vibration    14          0.688              1.688              1.461
 Vibration    15          0.693              1.671              1.409
 Vibration    16          0.721              1.593              1.207
 Vibration    17          0.735              1.552              1.117
 Vibration    18          0.751              1.510              1.033
 Vibration    19          0.764              1.474              0.970
 Vibration    20          0.776              1.445              0.921
 Vibration    21          0.819              1.336              0.762
 Vibration    22          0.833              1.303              0.721
 Vibration    23          0.883              1.187              0.591
 Vibration    24          0.886              1.181              0.585
 Vibration    25          0.909              1.132              0.537
 Vibration    26          0.926              1.096              0.504
 Vibration    27          0.940              1.068              0.479
 Vibration    28          0.975              1.000              0.424

 Optimization completed.
    -- Stationary point found.
 Normal termination of Gaussian 16 at Mon Dec 14 19:28:05 2020.

 ----------------------------------------------------------------------
 # B3LYP/6-311++G(d,p) empiricaldispersion=gd3bj scf=xqc pop=npa geom=c
 heck
 ----------------------------------------------------------------------

 --------------------------------------
 CID_55063142_JID_8419_Energie_neutraal
 --------------------------------------
 Structure from the checkpoint file:  "JID_8419.chk"
 Charge =  0 Multiplicity = 1

 SCF Done:  E(RB3LYP) =  -717.899987089     A.U. after   14 cycles
 Normal termination of Gaussian 16 at Mon Dec 14 19:40:17 2020.

 ----------------------------------------------------------------------
 # B3LYP/6-311++G(d,p) empiricaldispersion=gd3bj scf=xqc pop=npa geom=c
 heck
 ----------------------------------------------------------------------

 ------------------------------------
 CID_55063142_JID_8419_Energie_kation
 ------------------------------------
 Structure from the checkpoint file:  "JID_8419.chk"
 Charge =  1 Multiplicity = 2

 SCF Done:  E(UB3LYP) =  -717.615362322     A.U. after   27 cycles
 Normal termination of Gaussian 16 at Mon Dec 14 20:13:32 2020.
 Gaussian 16:  ES64L-G16RevA.03 25-Dec-2016

 ----------------------------------------------------------------------
 # B3LYP/6-311++G(d,p) empiricaldispersion=gd3bj scf=xqc pop=npa geom=c
 heck
 ----------------------------------------------------------------------

 -----------------------------------
 CID_55063142_JID_8419_Energie_anion
 -----------------------------------
 Structure from the checkpoint file:  "JID_8419.chk"
 Charge = -1 Multiplicity = 2

                         Standard orientation:
 ---------------------------------------------------------------------
 Center     Atomic      Atomic             Coordinates (Angstroms)
 Number     Number       Type             X           Y           Z
 ---------------------------------------------------------------------
      1          6           0       -3.932011   -1.331681   -0.228234
      2          6           0       -3.086000   -0.600016   -1.276162
      3          6           0       -2.026503    0.400070   -0.762139
      4          6           0       -0.817324   -0.179357    0.043928
      5          6           0       -0.467989   -1.616900   -0.357994
      6          6           0        0.741058   -2.120836    0.420876
      7          6           0        2.025824   -1.333497    0.101228
      8          6           0        1.735058    0.167519   -0.042170
      9          6           0        2.829976    1.037784   -0.163815
     10          6           0        2.671938    2.407897   -0.336015
     11          6           0        1.385681    2.939152   -0.400227
     12          6           0        0.286415    2.093771   -0.291247
     13          6           0        0.431228    0.706410   -0.111289
     14          6           0        2.623407   -1.851135   -1.226835
     15          6           0        3.034073   -1.596244    1.237947
     16          6           0       -1.333810   -0.083234    1.507799
     17          6           0       -2.184624    1.193985    1.524400
     18          7           0       -2.608440    1.419424    0.130282
     19          1           0       -3.346955   -2.044612    0.359916
     20          1           0       -4.739937   -1.890596   -0.712859
     21          1           0       -4.394264   -0.629179    0.474620
     22          1           0       -2.605714   -1.325540   -1.943530
     23          1           0       -3.765045   -0.019456   -1.917215
     24          1           0       -1.622593    0.891796   -1.658157
     25          1           0       -0.263836   -1.656045   -1.436078
     26          1           0       -1.320520   -2.277002   -0.175495
     27          1           0        0.916232   -3.183983    0.213647
     28          1           0        0.526081   -2.049057    1.494628
     29          1           0        3.835332    0.629078   -0.127537
     30          1           0        3.544038    3.050485   -0.422047
     31          1           0        1.234376    4.006376   -0.538328
     32          1           0       -0.714172    2.511824   -0.344019
     33          1           0        3.533399   -1.302945   -1.490441
     34          1           0        2.878495   -2.914704   -1.142547
     35          1           0        1.917310   -1.732397   -2.055240
     36          1           0        2.677905   -1.167228    2.180934
     37          1           0        3.161722   -2.676316    1.380534
     38          1           0        4.021131   -1.173732    1.026798
     39          1           0       -1.948984   -0.960308    1.736840
     40          1           0       -0.519179   -0.045733    2.235731
     41          1           0       -1.583805    2.045308    1.871524
     42          1           0       -3.043753    1.105759    2.200150
     43          1           0       -3.616558    1.470109    0.035893
 ---------------------------------------------------------------------

 SCF Done:  E(UB3LYP) =  -717.886121045     A.U. after   33 cycles
 SCF Done:  E(UB3LYP) =  -717.886121045     a.u. after    1 cycles

 The electronic state is 2-A.
 Alpha  occ. eigenvalues --  -14.19747 -10.10152 -10.09587 -10.09535 -10.09254
 Alpha  occ. eigenvalues --  -10.08722 -10.08670 -10.08076 -10.07921 -10.07785
 Alpha  occ. eigenvalues --  -10.07193 -10.07162 -10.07130 -10.06936 -10.06858
 Alpha  occ. eigenvalues --  -10.06763 -10.06700 -10.06095  -0.82499  -0.77528
 Alpha  occ. eigenvalues --   -0.73195  -0.70625  -0.67908  -0.64860  -0.64467
 Alpha  occ. eigenvalues --   -0.63264  -0.60684  -0.59588  -0.54495  -0.52799
 Alpha  occ. eigenvalues --   -0.52065  -0.51092  -0.49163  -0.45638  -0.43130
 Alpha  occ. eigenvalues --   -0.41554  -0.40206  -0.38200  -0.37542  -0.37268
 Alpha  occ. eigenvalues --   -0.36033  -0.34893  -0.33961  -0.33758  -0.33033
 Alpha  occ. eigenvalues --   -0.31076  -0.30952  -0.30620  -0.30496  -0.30040
 Alpha  occ. eigenvalues --   -0.28844  -0.28119  -0.27345  -0.26993  -0.26777
 Alpha  occ. eigenvalues --   -0.26462  -0.25448  -0.24862  -0.24123  -0.23843
 Alpha  occ. eigenvalues --   -0.23376  -0.22260  -0.20763  -0.20342  -0.15505
 Alpha  occ. eigenvalues --   -0.14979  -0.12647   0.04149
 Alpha virt. eigenvalues --    0.05703   0.06542   0.07124   0.07781   0.07839
 Alpha virt. eigenvalues --    0.08033   0.08066   0.08474   0.08801   0.09581
 Alpha virt. eigenvalues --    0.10068   0.10219   0.10557   0.10975   0.11706

  Beta  occ. eigenvalues --  -14.19732 -10.10152 -10.09586 -10.09521 -10.09254
  Beta  occ. eigenvalues --  -10.08720 -10.08669 -10.08070 -10.07918 -10.07778
  Beta  occ. eigenvalues --  -10.07191 -10.07146 -10.07117 -10.06922 -10.06843
  Beta  occ. eigenvalues --  -10.06743 -10.06678 -10.06051  -0.82478  -0.77518
  Beta  occ. eigenvalues --   -0.73181  -0.70607  -0.67874  -0.64844  -0.64450
  Beta  occ. eigenvalues --   -0.63233  -0.60650  -0.59546  -0.54444  -0.52758
  Beta  occ. eigenvalues --   -0.52044  -0.51062  -0.49120  -0.45606  -0.43101
  Beta  occ. eigenvalues --   -0.41532  -0.40169  -0.38176  -0.37520  -0.37249
  Beta  occ. eigenvalues --   -0.36010  -0.34874  -0.33940  -0.33729  -0.33002
  Beta  occ. eigenvalues --   -0.31044  -0.30930  -0.30597  -0.30466  -0.30013
  Beta  occ. eigenvalues --   -0.28812  -0.28096  -0.27323  -0.26976  -0.26751
  Beta  occ. eigenvalues --   -0.26432  -0.25422  -0.24826  -0.24102  -0.23818
  Beta  occ. eigenvalues --   -0.23349  -0.22241  -0.20744  -0.20323  -0.15499
  Beta  occ. eigenvalues --   -0.14973  -0.12629
  Beta virt. eigenvalues --    0.05997   0.06720   0.07010   0.07533   0.07845
  Beta virt. eigenvalues --    0.08061   0.08301   0.08511   0.08792   0.09101
  Beta virt. eigenvalues --    0.10023   0.10273   0.10623   0.10821   0.11253

 Mulliken charges and spin densities:
               1          2
     1  C    1.292225  -1.790920
     2  C   -1.671793   1.220839
     3  C    1.146490  -1.224886
     4  C    0.202924   0.200534
     5  C   -0.561116   0.280584
     6  C    0.260420  -0.514059
     7  C   -0.292456   0.826003
     8  C   -0.655465   1.200254
     9  C    0.044405  -0.474778
    10  C    0.800888  -1.258353
    11  C   -0.448523   0.344208
    12  C    0.071171  -0.517293
    13  C   -0.191231   0.375945
    14  C    0.363163  -1.164787
    15  C    0.606908  -1.302357
    16  C   -0.424103  -0.048100
    17  C    0.462637  -1.114114
    18  N   -0.346573   0.170648
    19  H   -0.318227   0.453900
    20  H   -0.640059   0.799003
    21  H   -0.132017   0.295120
    22  H    0.032569   0.094668
    23  H   -0.407669   0.594812
    24  H    0.248364  -0.040818
    25  H    0.080287   0.090768
    26  H   -0.111660   0.269904
    27  H   -0.361492   0.561327
    28  H   -0.071937   0.247425
    29  H    0.117235   0.001995
    30  H   -0.115156   0.267134
    31  H    0.006775   0.148362
    32  H    0.273182  -0.021633
    33  H   -0.151229   0.306243
    34  H   -0.104358   0.255868
    35  H    0.070057   0.063812
    36  H    0.077112   0.066034
    37  H   -0.175910   0.334301
    38  H   -0.195758   0.332531
    39  H    0.225690  -0.080556
    40  H    0.050301   0.113561
    41  H    0.203998  -0.054459
    42  H   -0.403989   0.564949
    43  H    0.143922   0.126380
 Sum of Mulliken charges =  -1.00000   1.00000

 Dipole moment (field-independent basis, Debye):
    X=              3.7048    Y=              3.8023    Z=             -0.1603  Tot=              5.3112
 Quadrupole moment (field-independent basis, Debye-Ang):
   XX=           -206.4520   YY=           -167.6784   ZZ=           -147.7492
   XY=             -2.3016   XZ=             -0.7273   YZ=              0.2828

 Summary of Natural Population Analysis:

                                       Natural Population
                Natural  -----------------------------------------------
    Atom  No    Charge         Core      Valence    Rydberg      Total
 -----------------------------------------------------------------------
      C    1   -0.28906      0.99966     2.28374    0.00567     3.28906
      C    2   -0.19782      0.99961     2.18880    0.00941     3.19782
      C    3    0.00126      0.99956     1.98532    0.01386     2.99874
      C    4   -0.03880      0.99951     2.02588    0.01341     3.03880
      C    5   -0.18883      0.99959     2.17937    0.00987     3.18883
      C    6   -0.18354      0.99960     2.17346    0.01048     3.18354
      C    7   -0.04916      0.99954     2.03757    0.01205     3.04916
      C    8   -0.00727      0.99944     1.99612    0.01171     3.00727
      C    9   -0.09997      0.99951     2.09135    0.00910     3.09997
      C   10   -0.10540      0.99956     2.09599    0.00985     3.10540
      C   11   -0.10365      0.99956     2.09495    0.00915     3.10365
      C   12   -0.10598      0.99951     2.09824    0.00823     3.10598
      C   13   -0.00641      0.99945     1.99542    0.01154     3.00641
      C   14   -0.27898      0.99962     2.27277    0.00659     3.27898
      C   15   -0.27898      0.99963     2.27239    0.00696     3.27898
      C   16   -0.19362      0.99959     2.18535    0.00869     3.19362
      C   17   -0.08850      0.99963     2.07814    0.01074     3.08850
      N   18   -0.35289      0.99975     2.84193    0.01122     3.85289
      H   19    0.09586      0.00000     0.40257    0.00156     0.40414
      H   20    0.10264      0.00000     0.39592    0.00144     0.39736
      H   21    0.09656      0.00000     0.40147    0.00197     0.40344
      H   22    0.10009      0.00000     0.39875    0.00115     0.39991
      H   23    0.09764      0.00000     0.40130    0.00106     0.40236
      H   24    0.09348      0.00000     0.40466    0.00186     0.40652
      H   25    0.09759      0.00000     0.40049    0.00192     0.40241
      H   26    0.10516      0.00000     0.39342    0.00142     0.39484
      H   27    0.10223      0.00000     0.39655    0.00122     0.39777
      H   28    0.09840      0.00000     0.40009    0.00152     0.40160
      H   29    0.09952      0.00000     0.39900    0.00148     0.40048
      H   30    0.09849      0.00000     0.40072    0.00079     0.40151
      H   31    0.09813      0.00000     0.40113    0.00074     0.40187
      H   32    0.11632      0.00000     0.38195    0.00173     0.38368
      H   33    0.09968      0.00000     0.39937    0.00096     0.40032
      H   34    0.09934      0.00000     0.39965    0.00101     0.40066
      H   35    0.10067      0.00000     0.39835    0.00097     0.39933
      H   36    0.10096      0.00000     0.39812    0.00092     0.39904
      H   37    0.10073      0.00000     0.39826    0.00100     0.39927
      H   38    0.09809      0.00000     0.40092    0.00099     0.40191
      H   39    0.10167      0.00000     0.39686    0.00147     0.39833
      H   40    0.10356      0.00000     0.39540    0.00103     0.39644
      H   41    0.08637      0.00000     0.41219    0.00145     0.41363
      H   42    0.09382      0.00000     0.40507    0.00111     0.40618
      H   43    0.18060      0.00000     0.31673    0.00267     0.31940
 =======================================================================
   * Total *   -0.00000     17.99234    48.79570    0.21196    67.00000

 Normal termination of Gaussian 16 at Mon Dec 14 20:52:42 2020.
