 Gaussian 16, Revision A.03,

 -----------------------------------------------------------
 # opt freq B3LYP/6-31G(d) empiricaldispersion=gd3bj scf=xqc
 -----------------------------------------------------------

 ------------------------------
 CID_83961136_JID_5977_neutraal
 ------------------------------
 Symbolic Z-matrix:
 Charge =  0 Multiplicity = 1

 SCF Done:  E(RB3LYP) =  -961.046421195     A.U. after   14 cycles
 SCF Done:  E(RB3LYP) =  -961.049989930     A.U. after   12 cycles
 SCF Done:  E(RB3LYP) =  -961.048193819     A.U. after   14 cycles
 SCF Done:  E(RB3LYP) =  -961.050051853     A.U. after   12 cycles
 SCF Done:  E(RB3LYP) =  -961.050516848     A.U. after   12 cycles
 SCF Done:  E(RB3LYP) =  -961.050526346     A.U. after   12 cycles
 SCF Done:  E(RB3LYP) =  -961.050744305     A.U. after   12 cycles
 SCF Done:  E(RB3LYP) =  -961.050765549     A.U. after   10 cycles
 SCF Done:  E(RB3LYP) =  -961.050768715     A.U. after    8 cycles
 SCF Done:  E(RB3LYP) =  -961.050769404     A.U. after    8 cycles
 SCF Done:  E(RB3LYP) =  -961.050769611     A.U. after    7 cycles
 SCF Done:  E(RB3LYP) =  -961.050769673     A.U. after    7 cycles
 Optimization completed.
    -- Stationary point found.
 Normal termination of Gaussian 16 at Thu Dec 10 17:43:56 2020.

 --------------------------------------------------------------------
 #N Geom=AllCheck Guess=TCheck SCRF=Check GenChk RB3LYP/6-31G(d) Freq
 --------------------------------------------------------------------

 Structure from the checkpoint file:  "JID_5977.chk"
 ------------------------------
 CID_83961136_JID_5977_neutraal
 ------------------------------
 Charge =  0 Multiplicity = 1

 SCF Done:  E(RB3LYP) =  -961.050769673     A.U. after    1 cycles

  Exact polarizability: 223.439   8.120 128.468  -0.392   9.263 140.852
 Approx polarizability: 291.521  19.778 191.145  -0.240  22.874 236.923

                      1                      2                      3
                      A                      A                      A
 Frequencies --     26.0061                40.1082                51.7122
 Red. masses --      3.9943                 2.8498                 3.3185
 Frc consts  --      0.0016                 0.0027                 0.0052
 IR Inten    --      0.0883                 0.2922                 0.6146

                      4                      5                      6
                      A                      A                      A
 Frequencies --     67.3400                74.5339               103.5573
 Red. masses --      2.7305                 3.4618                 3.3428
 Frc consts  --      0.0073                 0.0113                 0.0211
 IR Inten    --      0.1474                 0.5260                 0.3757

                      7                      8                      9
                      A                      A                      A
 Frequencies --    130.6937               148.7802               172.6566
 Red. masses --      3.5686                 2.6528                 2.4580
 Frc consts  --      0.0359                 0.0346                 0.0432
 IR Inten    --      1.1790                 3.5729                 0.2584

                     10                     11                     12
                      A                      A                      A
 Frequencies --    201.2363               238.9606               252.9592
 Red. masses --      1.8462                 1.5290                 1.5907
 Frc consts  --      0.0440                 0.0514                 0.0600
 IR Inten    --      0.8600                 0.0824                 0.1459

                     13                     14                     15
                      A                      A                      A
 Frequencies --    261.7127               290.7928               322.8452
 Red. masses --      1.1090                 1.9070                 2.9404
 Frc consts  --      0.0448                 0.0950                 0.1806
 IR Inten    --      0.4447                 2.0750                 4.5972

                     16                     17                     18
                      A                      A                      A
 Frequencies --    330.5869               344.0834               357.8279
 Red. masses --      2.5382                 2.9590                 2.9797
 Frc consts  --      0.1634                 0.2064                 0.2248
 IR Inten    --      2.5337                 0.2507                 1.1021

                     19                     20                     21
                      A                      A                      A
 Frequencies --    410.2120               420.4089               434.4016
 Red. masses --      2.6090                 3.0450                 2.6471
 Frc consts  --      0.2587                 0.3171                 0.2943
 IR Inten    --     23.0936                 8.5949                27.4616

                     22                     23                     24
                      A                      A                      A
 Frequencies --    471.3933               514.7841               530.1141
 Red. masses --      2.9408                 1.6324                 2.7343
 Frc consts  --      0.3850                 0.2549                 0.4527
 IR Inten    --      0.4499               120.4717                 8.2148

                     25                     26                     27
                      A                      A                      A
 Frequencies --    597.8684               601.3855               655.1429
 Red. masses --      3.3305                 3.3157                 6.7424
 Frc consts  --      0.7014                 0.7065                 1.7050
 IR Inten    --      7.8781                 5.7504                 1.1128

                     28                     29                     30
                      A                      A                      A
 Frequencies --    691.9173               745.1598               780.2044
 Red. masses --      4.2163                 4.2439                 1.4743
 Frc consts  --      1.1893                 1.3884                 0.5288
 IR Inten    --     10.9274                 6.6760                 2.0413

                     31                     32                     33
                      A                      A                      A
 Frequencies --    811.3560               819.7176               831.7689
 Red. masses --      2.4801                 1.3081                 1.6693
 Frc consts  --      0.9619                 0.5179                 0.6804
 IR Inten    --      2.7102                 5.6234                33.3446

                     34                     35                     36
                      A                      A                      A
 Frequencies --    875.1502               890.2940               895.3578
 Red. masses --      4.0960                 2.0961                 2.3457
 Frc consts  --      1.8483                 0.9789                 1.1080
 IR Inten    --      1.2297                 2.7537                 2.3203

                     37                     38                     39
                      A                      A                      A
 Frequencies --    905.5657               938.6375               944.9725
 Red. masses --      2.0667                 1.2496                 1.1666
 Frc consts  --      0.9986                 0.6486                 0.6138
 IR Inten    --      2.2702                 1.3238                 1.2367

                     40                     41                     42
                      A                      A                      A
 Frequencies --    946.1503               954.9470               968.1888
 Red. masses --      1.2845                 1.3211                 1.4472
 Frc consts  --      0.6775                 0.7098                 0.7993
 IR Inten    --      0.0741                 1.1446                 0.0726

                     43                     44                     45
                      A                      A                      A
 Frequencies --   1021.6120              1035.5044              1096.1218
 Red. masses --      1.8847                 2.5323                 1.3514
 Frc consts  --      1.1590                 1.5998                 0.9566
 IR Inten    --     10.2592                 0.9450                13.2561

                     46                     47                     48
                      A                      A                      A
 Frequencies --   1102.2698              1141.0511              1143.6954
 Red. masses --      2.5014                 2.1413                 1.6589
 Frc consts  --      1.7906                 1.6426                 1.2784
 IR Inten    --      7.2904                 2.6465                 4.2475

                     49                     50                     51
                      A                      A                      A
 Frequencies --   1153.3119              1191.3271              1192.8784
 Red. masses --      1.6398                 1.9035                 1.3427
 Frc consts  --      1.2851                 1.5917                 1.1257
 IR Inten    --     22.9137                16.0960                 5.7703

                     52                     53                     54
                      A                      A                      A
 Frequencies --   1204.9103              1218.3752              1244.0251
 Red. masses --      1.5013                 1.1859                 2.3269
 Frc consts  --      1.2842                 1.0372                 2.1217
 IR Inten    --      3.0265                26.1647                 1.4407

                     55                     56                     57
                      A                      A                      A
 Frequencies --   1277.5235              1284.0361              1300.7816
 Red. masses --      1.3547                 1.4241                 1.4851
 Frc consts  --      1.3027                 1.3834                 1.4805
 IR Inten    --      4.7963                68.2753                35.0986

                     58                     59                     60
                      A                      A                      A
 Frequencies --   1323.1774              1329.9742              1355.4544
 Red. masses --      1.2593                 1.4083                 1.3279
 Frc consts  --      1.2990                 1.4677                 1.4374
 IR Inten    --      9.9427                25.2455                 1.9272

                     61                     62                     63
                      A                      A                      A
 Frequencies --   1362.0980              1376.7983              1396.3878
 Red. masses --      1.3915                 4.4308                 1.3776
 Frc consts  --      1.5210                 4.9484                 1.5827
 IR Inten    --     22.0007                87.5038                 8.6751

                     64                     65                     66
                      A                      A                      A
 Frequencies --   1412.5318              1427.5051              1444.7725
 Red. masses --      1.5161                 1.2459                 1.2733
 Frc consts  --      1.7823                 1.4958                 1.5660
 IR Inten    --      3.0869                 5.6011                 6.9073

                     67                     68                     69
                      A                      A                      A
 Frequencies --   1446.1957              1461.7456              1496.7211
 Red. masses --      1.2237                 2.2956                 1.1098
 Frc consts  --      1.5079                 2.8899                 1.4648
 IR Inten    --      1.3467                14.8871                 7.0541

                     70                     71                     72
                      A                      A                      A
 Frequencies --   1513.6410              1514.3276              1524.4928
 Red. masses --      1.0433                 1.1401                 1.0508
 Frc consts  --      1.4083                 1.5404                 1.4389
 IR Inten    --      0.7999                13.2909                 5.8430

                     73                     74                     75
                      A                      A                      A
 Frequencies --   1525.7949              1530.0500              1537.4992
 Red. masses --      1.0519                 1.0452                 1.1165
 Frc consts  --      1.4428                 1.4416                 1.5551
 IR Inten    --      0.5243                 9.2172                26.7651

                     76                     77                     78
                      A                      A                      A
 Frequencies --   1540.2130              1541.0966              1551.3114
 Red. masses --      1.3263                 1.1066                 1.1052
 Frc consts  --      1.8538                 1.5484                 1.5671
 IR Inten    --      2.3720                 2.2245                59.6232

                     79                     80                     81
                      A                      A                      A
 Frequencies --   1575.7557              1637.3022              1682.4027
 Red. masses --      2.5764                 4.7271                 5.7887
 Frc consts  --      3.7691                 7.4663                 9.6537
 IR Inten    --    157.4606                 4.3489               121.8845

                     82                     83                     84
                      A                      A                      A
 Frequencies --   2971.0792              3024.7846              3043.0324
 Red. masses --      1.0722                 1.0694                 1.0483
 Frc consts  --      5.5762                 5.7647                 5.7194
 IR Inten    --     65.0083                25.2804                23.3522

                     85                     86                     87
                      A                      A                      A
 Frequencies --   3049.2516              3052.6552              3054.1375
 Red. masses --      1.0592                 1.0548                 1.0605
 Frc consts  --      5.8023                 5.7912                 5.8282
 IR Inten    --     17.4679                 9.6717                27.9222

                     88                     89                     90
                      A                      A                      A
 Frequencies --   3054.8536              3059.9441              3078.1452
 Red. masses --      1.0689                 1.0618                 1.0950
 Frc consts  --      5.8771                 5.8575                 6.1129
 IR Inten    --     58.1484                23.6262                29.8707

                     91                     92                     93
                      A                      A                      A
 Frequencies --   3109.7386              3115.2160              3117.1618
 Red. masses --      1.1026                 1.0972                 1.1021
 Frc consts  --      6.2823                 6.2735                 6.3094
 IR Inten    --      9.5713                20.6865                40.3820

                     94                     95                     96
                      A                      A                      A
 Frequencies --   3121.0659              3132.2682              3138.5554
 Red. masses --      1.0925                 1.1019                 1.1029
 Frc consts  --      6.2699                 6.3697                 6.4012
 IR Inten    --     24.7445                45.9755                23.4427

                     97                     98                     99
                      A                      A                      A
 Frequencies --   3160.1120              3169.3267              3173.1692
 Red. masses --      1.1011                 1.0878                 1.0887
 Frc consts  --      6.4785                 6.4376                 6.4585
 IR Inten    --     13.8836                28.1524                12.2214

                    100                    101                    102
                      A                      A                      A
 Frequencies --   3196.9857              3219.9217              3568.9676
 Red. masses --      1.0930                 1.0909                 1.0753
 Frc consts  --      6.5818                 6.6641                 8.0695
 IR Inten    --     11.4474                16.3597                 8.8649

 - Thermochemistry -
 -------------------
 Temperature   298.150 Kelvin.  Pressure   1.00000 Atm.
 Atom     1 has atomic number  6 and mass  12.00000

 Molecular mass:   223.13947 amu.
 Principal axes and moments of inertia in atomic units:
                           1         2         3
     Eigenvalues --  1537.605718536.249448887.89713
           X            0.99997  -0.00206  -0.00713
           Y            0.00206   1.00000   0.00035
           Z            0.00713  -0.00037   0.99997
 This molecule is an asymmetric top.
 Rotational symmetry number  1.
 Warning -- assumption of classical behavior for rotation
           may cause significant error
 Rotational temperatures (Kelvin)      0.05633     0.01015     0.00975
 Rotational constants (GHZ):           1.17373     0.21142     0.20306
 Zero-point vibrational energy     836049.3 (Joules/Mol)
                                  199.82059 (Kcal/Mol)
 Warning -- explicit consideration of  26 degrees of freedom as
           vibrations may cause significant error
 Vibrational temperatures:     37.42    57.71    74.40    96.89   107.24
          (Kelvin)            149.00   188.04   214.06   248.41   289.53
                              343.81   363.95   376.55   418.39   464.50
                              475.64   495.06   514.83   590.20   604.87
                              625.01   678.23   740.66   762.72   860.20
                              865.26   942.60   995.51  1072.12  1122.54
                             1167.36  1179.39  1196.73  1259.15  1280.93
                             1288.22  1302.91  1350.49  1359.60  1361.30
                             1373.96  1393.01  1469.87  1489.86  1577.07
                             1585.92  1641.72  1645.52  1659.36  1714.05
                             1716.29  1733.60  1752.97  1789.87  1838.07
                             1847.44  1871.53  1903.76  1913.54  1950.20
                             1959.76  1980.91  2009.09  2032.32  2053.86
                             2078.71  2080.75  2103.13  2153.45  2177.79
                             2178.78  2193.41  2195.28  2201.40  2212.12
                             2216.02  2217.29  2231.99  2267.16  2355.71
                             2420.60  4274.72  4351.99  4378.24  4387.19
                             4392.09  4394.22  4395.25  4402.58  4428.76
                             4474.22  4482.10  4484.90  4490.52  4506.64
                             4515.68  4546.70  4559.95  4565.48  4599.75
                             4632.75  5134.95

 Zero-point correction=                           0.318434 (Hartree/Particle)
 Thermal correction to Energy=                    0.335395
 Thermal correction to Enthalpy=                  0.336339
 Thermal correction to Gibbs Free Energy=         0.272616
 Sum of electronic and zero-point Energies=           -960.732335
 Sum of electronic and thermal Energies=              -960.715375
 Sum of electronic and thermal Enthalpies=            -960.714431
 Sum of electronic and thermal Free Energies=         -960.778154

                     E (Thermal)             CV                S
                      KCal/Mol        Cal/Mol-Kelvin    Cal/Mol-Kelvin
 Total                  210.463             63.468            134.116
 Electronic               0.000              0.000              0.000
 Translational            0.889              2.981             42.110
 Rotational               0.889              2.981             33.122
 Vibrational            208.686             57.507             58.883
 Vibration     1          0.593              1.985              6.113
 Vibration     2          0.594              1.981              5.254
 Vibration     3          0.596              1.977              4.751
 Vibration     4          0.598              1.970              4.230
 Vibration     5          0.599              1.966              4.030
 Vibration     6          0.605              1.946              3.386
 Vibration     7          0.612              1.923              2.936
 Vibration     8          0.618              1.904              2.688
 Vibration     9          0.626              1.876              2.406
 Vibration    10          0.638              1.838              2.122
 Vibration    11          0.657              1.781              1.811
 Vibration    12          0.664              1.758              1.710
 Vibration    13          0.669              1.743              1.650
 Vibration    14          0.687              1.691              1.469
 Vibration    15          0.708              1.630              1.296
 Vibration    16          0.713              1.614              1.257
 Vibration    17          0.723              1.587              1.193
 Vibration    18          0.733              1.559              1.132
 Vibration    19          0.774              1.448              0.926
 Vibration    20          0.783              1.426              0.891
 Vibration    21          0.795              1.395              0.844
 Vibration    22          0.828              1.314              0.734
 Vibration    23          0.870              1.217              0.622
 Vibration    24          0.885              1.183              0.587
 Vibration    25          0.956              1.036              0.453
 Vibration    26          0.960              1.029              0.447

                           ! Non-Optimized Parameters !
 Normal termination of Gaussian 16 at Thu Dec 10 17:54:58 2020.

 ----------------------------------------------------------------------
 # B3LYP/6-311++G(d,p) empiricaldispersion=gd3bj scf=xqc pop=npa geom=c
 heck
 ----------------------------------------------------------------------

 --------------------------------------
 CID_83961136_JID_5977_Energie_neutraal
 --------------------------------------
 Structure from the checkpoint file:  "JID_5977.chk"
 Charge =  0 Multiplicity = 1

 SCF Done:  E(RB3LYP) =  -961.232164692     A.U. after   14 cycles
 Normal termination of Gaussian 16 at Thu Dec 10 17:59:52 2020.

 ----------------------------------------------------------------------
 # B3LYP/6-311++G(d,p) empiricaldispersion=gd3bj scf=xqc pop=npa geom=c
 heck
 ----------------------------------------------------------------------

 ------------------------------------
 CID_83961136_JID_5977_Energie_kation
 ------------------------------------
 Structure from the checkpoint file:  "JID_5977.chk"
 Charge =  1 Multiplicity = 2

 SCF Done:  E(UB3LYP) =  -960.972906759     A.U. after   22 cycles
 Normal termination of Gaussian 16 at Thu Dec 10 18:10:54 2020.
 Gaussian 16:  ES64L-G16RevA.03 25-Dec-2016

 ----------------------------------------------------------------------
 # B3LYP/6-311++G(d,p) empiricaldispersion=gd3bj scf=xqc pop=npa geom=c
 heck
 ----------------------------------------------------------------------

 -----------------------------------
 CID_83961136_JID_5977_Energie_anion
 -----------------------------------
 Structure from the checkpoint file:  "JID_5977.chk"
 Charge = -1 Multiplicity = 2

                         Standard orientation:
 ---------------------------------------------------------------------
 Center     Atomic      Atomic             Coordinates (Angstroms)
 Number     Number       Type             X           Y           Z
 ---------------------------------------------------------------------
      1          6           0        5.408123    1.398897   -0.689027
      2          6           0        5.297925    0.162396    0.206961
      3          6           0        3.889264   -0.067091    0.756606
      4          7           0        2.947908   -0.312620   -0.323687
      5          6           0        1.609330   -0.593573   -0.072722
      6          6           0        0.808903   -1.129645   -1.103460
      7          6           0       -0.539069   -1.377507   -0.904038
      8          6           0       -1.155095   -1.104323    0.326803
      9          6           0       -0.358826   -0.584835    1.347944
     10          6           0        1.001878   -0.332234    1.165709
     11          6           0       -2.625788   -1.345933    0.538508
     12         16           0       -3.762567   -0.450432   -0.607926
     13          6           0       -3.419781    1.341363   -0.277013
     14          6           0       -3.450234    1.681302    1.213404
     15          6           0       -2.151015    1.857185   -0.963451
     16          1           0        4.730821    1.330043   -1.545843
     17          1           0        6.428561    1.523022   -1.067068
     18          1           0        5.141817    2.305565   -0.133006
     19          1           0        5.617304   -0.733499   -0.345979
     20          1           0        5.984600    0.253082    1.057364
     21          1           0        3.898244   -0.896125    1.485667
     22          1           0        3.567360    0.830131    1.301022
     23          1           0        3.338570   -0.853294   -1.086044
     24          1           0        1.261924   -1.338600   -2.070379
     25          1           0       -1.138810   -1.766768   -1.722273
     26          1           0       -0.805513   -0.372894    2.316959
     27          1           0        1.583422    0.067363    1.988670
     28          1           0       -2.888055   -2.394857    0.356982
     29          1           0       -2.905648   -1.123110    1.572159
     30          1           0       -4.289146    1.808766   -0.756178
     31          1           0       -2.589118    1.249133    1.732512
     32          1           0       -3.400332    2.768842    1.348457
     33          1           0       -4.364896    1.315339    1.689740
     34          1           0       -2.149457    1.604230   -2.027352
     35          1           0       -2.098470    2.949924   -0.867575
     36          1           0       -1.251135    1.432945   -0.512552
 ---------------------------------------------------------------------

 SCF Done:  E(UB3LYP) =  -961.219001047     A.U. after   33 cycles
 SCF Done:  E(UB3LYP) =  -961.219001047     a.u. after    1 cycles

 The electronic state is 2-A.
 Alpha  occ. eigenvalues --  -88.74536 -14.22680 -10.12168 -10.11911 -10.11430
 Alpha  occ. eigenvalues --  -10.10542 -10.08352 -10.08277 -10.08147 -10.07830
 Alpha  occ. eigenvalues --  -10.07819 -10.07539 -10.07522 -10.06984 -10.06221
 Alpha  occ. eigenvalues --   -7.83159  -5.79557  -5.79183  -5.78525  -0.84369
 Alpha  occ. eigenvalues --   -0.76358  -0.73016  -0.69614  -0.67298  -0.65638
 Alpha  occ. eigenvalues --   -0.62510  -0.60219  -0.58706  -0.55524  -0.52799
 Alpha  occ. eigenvalues --   -0.50095  -0.48915  -0.46743  -0.43890  -0.39952
 Alpha  occ. eigenvalues --   -0.38657  -0.37221  -0.37003  -0.36151  -0.35376
 Alpha  occ. eigenvalues --   -0.34122  -0.33181  -0.33014  -0.32368  -0.31627
 Alpha  occ. eigenvalues --   -0.30534  -0.30251  -0.29155  -0.28439  -0.27555
 Alpha  occ. eigenvalues --   -0.26425  -0.26395  -0.25450  -0.24938  -0.24283
 Alpha  occ. eigenvalues --   -0.24255  -0.21259  -0.19586  -0.16518  -0.13766
 Alpha  occ. eigenvalues --   -0.10758   0.04097
 Alpha virt. eigenvalues --    0.05534   0.06542   0.06846   0.07483   0.07677
 Alpha virt. eigenvalues --    0.07802   0.07984   0.08719   0.08923   0.09341
 Alpha virt. eigenvalues --    0.09902   0.10264   0.10679   0.10975   0.11757

  Beta  occ. eigenvalues --  -88.74535 -14.22659 -10.12169 -10.11906 -10.11423
  Beta  occ. eigenvalues --  -10.10524 -10.08351 -10.08269 -10.08142 -10.07819
  Beta  occ. eigenvalues --  -10.07796 -10.07530 -10.07486 -10.06973 -10.06191
  Beta  occ. eigenvalues --   -7.83158  -5.79556  -5.79182  -5.78525  -0.84338
  Beta  occ. eigenvalues --   -0.76346  -0.72999  -0.69584  -0.67267  -0.65620
  Beta  occ. eigenvalues --   -0.62486  -0.60183  -0.58659  -0.55492  -0.52754
  Beta  occ. eigenvalues --   -0.50050  -0.48847  -0.46720  -0.43856  -0.39919
  Beta  occ. eigenvalues --   -0.38629  -0.37187  -0.36956  -0.36121  -0.35351
  Beta  occ. eigenvalues --   -0.34097  -0.33159  -0.32990  -0.32342  -0.31607
  Beta  occ. eigenvalues --   -0.30509  -0.30211  -0.29134  -0.28412  -0.27534
  Beta  occ. eigenvalues --   -0.26406  -0.26350  -0.25424  -0.24882  -0.24244
  Beta  occ. eigenvalues --   -0.24225  -0.21247  -0.19568  -0.16507  -0.13760
  Beta  occ. eigenvalues --   -0.10741
  Beta virt. eigenvalues --    0.05899   0.06620   0.07007   0.07141   0.07570
  Beta virt. eigenvalues --    0.07973   0.08247   0.08418   0.08902   0.09169
  Beta virt. eigenvalues --    0.09580   0.10260   0.10394   0.10973   0.11366

 Mulliken charges and spin densities:
               1          2
     1  C    0.631230  -1.102490
     2  C   -0.364784  -0.037841
     3  C    0.468981  -0.622295
     4  N   -0.036530   0.118357
     5  C    1.314093  -1.592904
     6  C   -0.535287   0.164731
     7  C   -1.071732   0.448622
     8  C    1.034977  -0.179517
     9  C   -0.875059   0.572021
    10  C   -0.179959   0.137934
    11  C    0.703576  -1.274110
    12  S    0.262649  -0.238325
    13  C   -0.481431   0.734674
    14  C    0.138394  -0.855592
    15  C   -0.212295  -0.467355
    16  H   -0.010487   0.148018
    17  H   -0.357263   0.500397
    18  H   -0.107576   0.229882
    19  H   -0.508408   0.659766
    20  H   -0.315381   0.462865
    21  H   -0.146035   0.312338
    22  H    0.046300   0.091676
    23  H    0.285943  -0.036770
    24  H   -0.570249   0.724372
    25  H    0.074586   0.067862
    26  H   -0.227735   0.369575
    27  H   -0.382776   0.548376
    28  H    0.158945   0.045457
    29  H    0.151054   0.054366
    30  H    0.034864   0.200770
    31  H   -0.033436   0.174912
    32  H   -0.186755   0.321610
    33  H   -0.047015   0.194287
    34  H    0.038746   0.072889
    35  H   -0.021952   0.158317
    36  H    0.327807  -0.106876
 Sum of Mulliken charges =  -1.00000   1.00000

 Dipole moment (field-independent basis, Debye):
    X=             -7.3949    Y=             -1.1969    Z=             -0.2937  Tot=              7.4969
 Quadrupole moment (field-independent basis, Debye-Ang):
   XX=           -226.1856   YY=           -139.1625   ZZ=           -140.0298
   XY=              3.2150   XZ=              4.6312   YZ=             -3.2666

 Summary of Natural Population Analysis:

                                       Natural Population
                Natural  -----------------------------------------------
    Atom  No    Charge         Core      Valence    Rydberg      Total
 -----------------------------------------------------------------------
      C    1   -0.28527      0.99967     2.28081    0.00479     3.28527
      C    2   -0.19156      0.99964     2.18386    0.00806     3.19156
      C    3   -0.08734      0.99962     2.07463    0.01309     3.08734
      N    4   -0.31126      0.99967     2.80060    0.01098     3.81126
      C    5    0.08968      0.99952     1.89908    0.01172     2.91032
      C    6   -0.11651      0.99953     2.10711    0.00987     3.11651
      C    7   -0.08909      0.99951     2.07942    0.01016     3.08909
      C    8   -0.05910      0.99949     2.04805    0.01156     3.05910
      C    9   -0.09710      0.99954     2.08478    0.01279     3.09710
      C   10   -0.11699      0.99953     2.11153    0.00594     3.11699
      C   11   -0.25109      0.99954     2.24155    0.01000     3.25109
      S   12    0.08044      4.99962     2.90307    0.01687     7.91956
      C   13   -0.16779      0.99959     2.15518    0.01302     3.16779
      C   14   -0.29213      0.99963     2.28596    0.00654     3.29213
      C   15   -0.29141      0.99963     2.28517    0.00661     3.29141
      H   16    0.09974      0.00000     0.39869    0.00157     0.40026
      H   17    0.09910      0.00000     0.39948    0.00142     0.40090
      H   18    0.09556      0.00000     0.40317    0.00127     0.40444
      H   19    0.09511      0.00000     0.40255    0.00233     0.40489
      H   20    0.10039      0.00000     0.39797    0.00164     0.39961
      H   21    0.08868      0.00000     0.40958    0.00174     0.41132
      H   22    0.09227      0.00000     0.40591    0.00182     0.40773
      H   23    0.18428      0.00000     0.31222    0.00351     0.31572
      H   24    0.10077      0.00000     0.39807    0.00116     0.39923
      H   25    0.10279      0.00000     0.39601    0.00120     0.39721
      H   26    0.09881      0.00000     0.39989    0.00129     0.40119
      H   27    0.10285      0.00000     0.39547    0.00168     0.39715
      H   28    0.10884      0.00000     0.39009    0.00107     0.39116
      H   29    0.10415      0.00000     0.39427    0.00158     0.39585
      H   30    0.10013      0.00000     0.39875    0.00111     0.39987
      H   31    0.10089      0.00000     0.39768    0.00143     0.39911
      H   32    0.10238      0.00000     0.39648    0.00114     0.39762
      H   33    0.10195      0.00000     0.39689    0.00116     0.39805
      H   34    0.10208      0.00000     0.39683    0.00109     0.39792
      H   35    0.09749      0.00000     0.40157    0.00094     0.40251
      H   36    0.10827      0.00000     0.39014    0.00159     0.39173
 =======================================================================
   * Total *    0.00002     18.99372    41.82254    0.18372    60.99998

 Normal termination of Gaussian 16 at Thu Dec 10 18:26:14 2020.
