 Gaussian 16, Revision A.03,

 -----------------------------------------------------------
 # opt freq B3LYP/6-31G(d) empiricaldispersion=gd3bj scf=xqc
 -----------------------------------------------------------

 ------------------------------
 CID_81168798_JID_9430_neutraal
 ------------------------------
 Symbolic Z-matrix:
 Charge =  0 Multiplicity = 1

 SCF Done:  E(RB3LYP) =  -883.183895959     A.U. after   14 cycles
 SCF Done:  E(RB3LYP) =  -883.192854643     A.U. after   12 cycles
 SCF Done:  E(RB3LYP) =  -883.193292876     A.U. after   12 cycles
 SCF Done:  E(RB3LYP) =  -883.193666677     A.U. after   11 cycles
 SCF Done:  E(RB3LYP) =  -883.193881679     A.U. after   12 cycles
 SCF Done:  E(RB3LYP) =  -883.193992459     A.U. after   11 cycles
 SCF Done:  E(RB3LYP) =  -883.194003852     A.U. after   11 cycles
 SCF Done:  E(RB3LYP) =  -883.194035820     A.U. after    9 cycles
 SCF Done:  E(RB3LYP) =  -883.194046948     A.U. after   10 cycles
 SCF Done:  E(RB3LYP) =  -883.194055407     A.U. after   10 cycles
 SCF Done:  E(RB3LYP) =  -883.194063681     A.U. after    7 cycles
 SCF Done:  E(RB3LYP) =  -883.194064069     A.U. after    7 cycles
 SCF Done:  E(RB3LYP) =  -883.194064169     A.U. after    7 cycles
 SCF Done:  E(RB3LYP) =  -883.194064255     A.U. after    7 cycles
 SCF Done:  E(RB3LYP) =  -883.194064282     A.U. after    6 cycles
 Optimization completed.
    -- Stationary point found.
 Normal termination of Gaussian 16 at Sun Dec 13 12:44:25 2020.

 --------------------------------------------------------------------
 #N Geom=AllCheck Guess=TCheck SCRF=Check GenChk RB3LYP/6-31G(d) Freq
 --------------------------------------------------------------------

 Structure from the checkpoint file:  "JID_9430.chk"
 ------------------------------
 CID_81168798_JID_9430_neutraal
 ------------------------------
 Charge =  0 Multiplicity = 1

 SCF Done:  E(RB3LYP) =  -883.194064282     A.U. after    1 cycles

  Exact polarizability: 196.186  -2.410 150.224  -2.040   6.535 138.536
 Approx polarizability: 235.754  -4.034 221.372  -5.784  24.557 224.657

                      1                      2                      3
                      A                      A                      A
 Frequencies --     22.8879                32.6953                35.9466
 Red. masses --      4.3289                 4.3774                 6.3274
 Frc consts  --      0.0013                 0.0028                 0.0048
 IR Inten    --      0.6680                 0.4114                 0.1617

                      4                      5                      6
                      A                      A                      A
 Frequencies --     52.5122                58.3973                78.1332
 Red. masses --      4.6417                 4.4049                 2.2150
 Frc consts  --      0.0075                 0.0089                 0.0080
 IR Inten    --      1.8497                 1.5657                 0.1188

                      7                      8                      9
                      A                      A                      A
 Frequencies --    110.2735               124.2550               140.0747
 Red. masses --      3.2014                 4.9433                 2.5799
 Frc consts  --      0.0229                 0.0450                 0.0298
 IR Inten    --      1.0468                 0.4086                 0.2250

                     10                     11                     12
                      A                      A                      A
 Frequencies --    170.0193               181.6559               193.0862
 Red. masses --      3.5209                 2.5452                 1.6674
 Frc consts  --      0.0600                 0.0495                 0.0366
 IR Inten    --      3.7287                 1.6550                 0.2970

                     13                     14                     15
                      A                      A                      A
 Frequencies --    199.6855               211.4026               216.8172
 Red. masses --      1.9483                 1.4574                 2.9978
 Frc consts  --      0.0458                 0.0384                 0.0830
 IR Inten    --     12.2160                29.3751                 1.9380

                     16                     17                     18
                      A                      A                      A
 Frequencies --    256.9711               270.7512               277.1984
 Red. masses --      2.3060                 2.1814                 3.4550
 Frc consts  --      0.0897                 0.0942                 0.1564
 IR Inten    --      0.9663                 5.1313                12.8384

                     19                     20                     21
                      A                      A                      A
 Frequencies --    295.8875               342.4551               351.3247
 Red. masses --      2.1203                 3.7326                 2.5857
 Frc consts  --      0.1094                 0.2579                 0.1880
 IR Inten    --      0.9310                 8.2715                 2.8114

                     22                     23                     24
                      A                      A                      A
 Frequencies --    368.6792               371.1683               414.6639
 Red. masses --      2.1443                 2.4255                 3.0798
 Frc consts  --      0.1717                 0.1969                 0.3120
 IR Inten    --      1.1903                 0.2002                 5.1288

                     25                     26                     27
                      A                      A                      A
 Frequencies --    448.8859               496.1292               532.5520
 Red. masses --      3.2403                 3.4885                 3.8106
 Frc consts  --      0.3847                 0.5059                 0.6367
 IR Inten    --     13.9596                 1.9566                 3.8321

                     28                     29                     30
                      A                      A                      A
 Frequencies --    536.2845               603.8462               640.0055
 Red. masses --      5.0013                 3.2549                 1.4453
 Frc consts  --      0.8475                 0.6993                 0.3488
 IR Inten    --     11.8699                14.2339                52.9119

                     31                     32                     33
                      A                      A                      A
 Frequencies --    659.7801               665.4945               710.3888
 Red. masses --      2.1958                 2.6009                 1.9647
 Frc consts  --      0.5632                 0.6787                 0.5842
 IR Inten    --     23.2634                42.3447                10.8938

                     34                     35                     36
                      A                      A                      A
 Frequencies --    734.6016               773.7403               782.1429
 Red. masses --      2.4965                 2.4692                 2.0620
 Frc consts  --      0.7938                 0.8710                 0.7432
 IR Inten    --     11.0605                 5.5972                22.6162

                     37                     38                     39
                      A                      A                      A
 Frequencies --    800.7973               806.2242               834.6753
 Red. masses --      1.9741                 1.6933                 1.9788
 Frc consts  --      0.7459                 0.6485                 0.8122
 IR Inten    --      7.1740                12.8255                33.7957

                     40                     41                     42
                      A                      A                      A
 Frequencies --    843.1893               872.7047               886.6632
 Red. masses --      1.4555                 1.9144                 1.8480
 Frc consts  --      0.6097                 0.8591                 0.8560
 IR Inten    --     58.8202                21.1449                 9.5997

                     43                     44                     45
                      A                      A                      A
 Frequencies --    895.9571               920.9291               934.7039
 Red. masses --      2.0265                 2.4602                 1.8490
 Frc consts  --      0.9585                 1.2293                 0.9518
 IR Inten    --      0.5252                 1.1254                14.9852

                     46                     47                     48
                      A                      A                      A
 Frequencies --    952.4739               961.0640               995.6733
 Red. masses --      2.3784                 2.2156                 2.4703
 Frc consts  --      1.2713                 1.2057                 1.4429
 IR Inten    --      0.5662                 2.8411                 7.9502

                     49                     50                     51
                      A                      A                      A
 Frequencies --    997.2639              1006.1065              1015.3196
 Red. masses --      2.0784                 1.9283                 1.5778
 Frc consts  --      1.2179                 1.1501                 0.9583
 IR Inten    --      0.0619                 2.2815                 2.0866

                     52                     53                     54
                      A                      A                      A
 Frequencies --   1035.4393              1045.0188              1055.2031
 Red. masses --      2.7426                 1.9764                 2.1728
 Frc consts  --      1.7325                 1.2717                 1.4254
 IR Inten    --      2.6695                 3.2337                 2.8645

                     55                     56                     57
                      A                      A                      A
 Frequencies --   1064.8697              1077.5395              1089.7851
 Red. masses --      1.2762                 2.3649                 2.3331
 Frc consts  --      0.8526                 1.6178                 1.6326
 IR Inten    --      4.6705                16.0505                13.0711

                     58                     59                     60
                      A                      A                      A
 Frequencies --   1138.5033              1140.3531              1158.3429
 Red. masses --      2.1955                 2.1423                 2.0896
 Frc consts  --      1.6767                 1.6414                 1.6520
 IR Inten    --     28.5635                70.6901                99.8199

                     61                     62                     63
                      A                      A                      A
 Frequencies --   1191.1530              1204.3818              1209.2971
 Red. masses --      1.7845                 1.7736                 1.6324
 Frc consts  --      1.4918                 1.5158                 1.4065
 IR Inten    --     10.0779                69.6737                 9.9723

                     64                     65                     66
                      A                      A                      A
 Frequencies --   1217.0898              1223.4355              1230.4680
 Red. masses --      1.5440                 1.5794                 1.3372
 Frc consts  --      1.3476                 1.3929                 1.1929
 IR Inten    --      0.7189                31.5388                14.8178

                     67                     68                     69
                      A                      A                      A
 Frequencies --   1247.8768              1248.4194              1261.2649
 Red. masses --      1.5836                 3.1741                 1.4129
 Frc consts  --      1.4529                 2.9147                 1.3242
 IR Inten    --     16.3466                10.7961                31.2877

                     70                     71                     72
                      A                      A                      A
 Frequencies --   1269.5820              1289.7550              1295.8472
 Red. masses --      1.2523                 1.3955                 1.6290
 Frc consts  --      1.1893                 1.3677                 1.6116
 IR Inten    --      1.0290                 0.8307                14.6025

                     73                     74                     75
                      A                      A                      A
 Frequencies --   1311.3470              1324.0556              1325.2944
 Red. masses --      1.6323                 1.3563                 1.5616
 Frc consts  --      1.6538                 1.4010                 1.6160
 IR Inten    --      3.1033                22.3793                 4.3909

                     76                     77                     78
                      A                      A                      A
 Frequencies --   1339.0259              1348.1267              1369.2752
 Red. masses --      1.3965                 1.4996                 1.6331
 Frc consts  --      1.4753                 1.6058                 1.8041
 IR Inten    --      5.4394                33.0573                 6.9103

                     79                     80                     81
                      A                      A                      A
 Frequencies --   1379.9852              1382.6588              1397.8287
 Red. masses --      1.3463                 1.3799                 1.5149
 Frc consts  --      1.5106                 1.5543                 1.7439
 IR Inten    --      3.7576                 7.9218                 8.0321

                     82                     83                     84
                      A                      A                      A
 Frequencies --   1412.5836              1440.0833              1449.1458
 Red. masses --      2.1746                 1.6591                 1.2474
 Frc consts  --      2.5566                 2.0272                 1.5434
 IR Inten    --    108.7221                64.6371                 9.5525

                     85                     86                     87
                      A                      A                      A
 Frequencies --   1451.8090              1505.2787              1512.6812
 Red. masses --      2.7506                 1.0885                 1.0899
 Frc consts  --      3.4158                 1.4531                 1.4694
 IR Inten    --    207.2361                 1.0750                 2.8100

                     88                     89                     90
                      A                      A                      A
 Frequencies --   1517.7154              1519.3165              1520.4617
 Red. masses --      1.0732                 1.0890                 1.1020
 Frc consts  --      1.4565                 1.4810                 1.5010
 IR Inten    --      1.8368                16.1066                 5.8838

                     91                     92                     93
                      A                      A                      A
 Frequencies --   1530.2353              1532.9491              1538.5786
 Red. masses --      1.0963                 1.0645                 1.0597
 Frc consts  --      1.5125                 1.4739                 1.4780
 IR Inten    --     15.1038                 9.8875                 4.5257

                     94                     95                     96
                      A                      A                      A
 Frequencies --   1539.7213              1547.1332              1560.8643
 Red. masses --      1.1198                 1.0803                 1.0948
 Frc consts  --      1.5642                 1.5235                 1.5715
 IR Inten    --      2.8294                 2.3194                 4.5250

                     97                     98                     99
                      A                      A                      A
 Frequencies --   1694.6918              1739.7481              1839.3718
 Red. masses --      1.0908                 9.9715                 9.9385
 Frc consts  --      1.8458                17.7822                19.8112
 IR Inten    --     36.0661               245.2948               248.0779

                    100                    101                    102
                      A                      A                      A
 Frequencies --   2960.8350              3036.2929              3053.3792
 Red. masses --      1.0733                 1.0649                 1.0718
 Frc consts  --      5.5439                 5.7845                 5.8874
 IR Inten    --     80.8358                37.9281                33.4711

                    103                    104                    105
                      A                      A                      A
 Frequencies --   3057.4001              3058.5118              3059.8776
 Red. masses --      1.0548                 1.0417                 1.0571
 Frc consts  --      5.8095                 5.7415                 5.8312
 IR Inten    --      8.7894                39.4373                57.7330

                    106                    107                    108
                      A                      A                      A
 Frequencies --   3063.9730              3077.0203              3078.5015
 Red. masses --      1.0581                 1.0651                 1.0812
 Frc consts  --      5.8527                 5.9415                 6.0371
 IR Inten    --     18.8492                29.8313                20.7174

                    109                    110                    111
                      A                      A                      A
 Frequencies --   3081.9000              3092.1091              3094.6840
 Red. masses --      1.0619                 1.0939                 1.0870
 Frc consts  --      5.9427                 6.1623                 6.1338
 IR Inten    --     16.0363                17.1543                32.5908

                    112                    113                    114
                      A                      A                      A
 Frequencies --   3100.6188              3108.5706              3122.8483
 Red. masses --      1.1076                 1.1079                 1.1020
 Frc consts  --      6.2737                 6.3076                 6.3319
 IR Inten    --     24.2159                 5.6281                34.1275

                    115                    116                    117
                      A                      A                      A
 Frequencies --   3126.4967              3128.4492              3129.6323
 Red. masses --      1.1034                 1.0917                 1.1032
 Frc consts  --      6.3547                 6.2951                 6.3662
 IR Inten    --      5.9615                 3.1230                44.2366

                    118                    119                    120
                      A                      A                      A
 Frequencies --   3130.2251              3147.9651              3148.4215
 Red. masses --      1.1057                 1.0994                 1.0939
 Frc consts  --      6.3831                 6.4190                 6.3888
 IR Inten    --     64.8577                20.4169                 7.5848

                    121                    122                    123
                      A                      A                      A
 Frequencies --   3484.9031              3570.5670              3675.0242
 Red. masses --      1.0499                 1.0927                 1.0639
 Frc consts  --      7.5123                 8.2074                 8.4657
 IR Inten    --      1.8193                 0.0347                54.0538

 - Thermochemistry -
 -------------------
 Temperature   298.150 Kelvin.  Pressure   1.00000 Atm.
 Atom     1 has atomic number  6 and mass  12.00000

 Molecular mass:   268.17869 amu.
 Principal axes and moments of inertia in atomic units:
                           1         2         3
     Eigenvalues --  2288.778959589.59601**********
           X            0.99998  -0.00577  -0.00232
           Y            0.00573   0.99980  -0.01893
           Z            0.00243   0.01892   0.99982
 This molecule is an asymmetric top.
 Rotational symmetry number  1.
 Warning -- assumption of classical behavior for rotation
           may cause significant error
 Rotational temperatures (Kelvin)      0.03784     0.00903     0.00827
 Rotational constants (GHZ):           0.78852     0.18820     0.17228
 Zero-point vibrational energy     995271.1 (Joules/Mol)
                                  237.87550 (Kcal/Mol)
 Warning -- explicit consideration of  29 degrees of freedom as
           vibrations may cause significant error
 Vibrational temperatures:     32.93    47.04    51.72    75.55    84.02
          (Kelvin)            112.42   158.66   178.78   201.54   244.62
                              261.36   277.81   287.30   304.16   311.95
                              369.72   389.55   398.83   425.72   492.72
                              505.48   530.45   534.03   596.61   645.85
                              713.82   766.22   771.59   868.80   920.83
                              949.28   957.50  1022.09  1056.93  1113.24
                             1125.33  1152.17  1159.98  1200.91  1213.16
                             1255.63  1275.71  1289.08  1325.01  1344.83
                             1370.40  1382.76  1432.55  1434.84  1447.56
                             1460.82  1489.77  1503.55  1518.20  1532.11
                             1550.34  1567.96  1638.05  1640.71  1666.60
                             1713.80  1732.84  1739.91  1751.12  1760.25
                             1770.37  1795.42  1796.20  1814.68  1826.65
                             1855.67  1864.44  1886.74  1905.02  1906.80
                             1926.56  1939.65  1970.08  1985.49  1989.34
                             2011.16  2032.39  2071.96  2085.00  2088.83
                             2165.76  2176.41  2183.65  2185.96  2187.61
                             2201.67  2205.57  2213.67  2215.32  2225.98
                             2245.74  2438.28  2503.11  2646.45  4259.98
                             4368.55  4393.13  4398.92  4400.52  4402.48
                             4408.37  4427.15  4429.28  4434.17  4448.86
                             4452.56  4461.10  4472.54  4493.08  4498.33
                             4501.14  4502.84  4503.70  4529.22  4529.88
                             5014.00  5137.25  5287.54

 Zero-point correction=                           0.379079 (Hartree/Particle)
 Thermal correction to Energy=                    0.399139
 Thermal correction to Enthalpy=                  0.400083
 Thermal correction to Gibbs Free Energy=         0.328985
 Sum of electronic and zero-point Energies=           -882.814986
 Sum of electronic and thermal Energies=              -882.794925
 Sum of electronic and thermal Enthalpies=            -882.793981
 Sum of electronic and thermal Free Energies=         -882.865079

                     E (Thermal)             CV                S
                      KCal/Mol        Cal/Mol-Kelvin    Cal/Mol-Kelvin
 Total                  250.464             75.345            149.639
 Electronic               0.000              0.000              0.000
 Translational            0.889              2.981             42.659
 Rotational               0.889              2.981             33.797
 Vibrational            248.686             69.384             73.184
 Vibration     1          0.593              1.985              6.366
 Vibration     2          0.594              1.983              5.659
 Vibration     3          0.594              1.982              5.471
 Vibration     4          0.596              1.977              4.720
 Vibration     5          0.596              1.974              4.511
 Vibration     6          0.599              1.964              3.937
 Vibration     7          0.606              1.941              3.264
 Vibration     8          0.610              1.929              3.033
 Vibration     9          0.615              1.913              2.803
 Vibration    10          0.625              1.879              2.435
 Vibration    11          0.630              1.865              2.311
 Vibration    12          0.635              1.849              2.198
 Vibration    13          0.638              1.840              2.136
 Vibration    14          0.643              1.823              2.032
 Vibration    15          0.646              1.815              1.986
 Vibration    16          0.667              1.751              1.682
 Vibration    17          0.674              1.727              1.591
 Vibration    18          0.678              1.716              1.551
 Vibration    19          0.690              1.681              1.440
 Vibration    20          0.722              1.591              1.201
 Vibration    21          0.728              1.573              1.160
 Vibration    22          0.741              1.537              1.085
 Vibration    23          0.743              1.531              1.075
 Vibration    24          0.778              1.438              0.910
 Vibration    25          0.808              1.363              0.799
 Vibration    26          0.852              1.259              0.668
 Vibration    27          0.888              1.178              0.582
 Vibration    28          0.891              1.170              0.573
 Vibration    29          0.962              1.024              0.443

                           ! Non-Optimized Parameters !
 Normal termination of Gaussian 16 at Sun Dec 13 13:08:21 2020.

 ----------------------------------------------------------------------
 # B3LYP/6-311++G(d,p) empiricaldispersion=gd3bj scf=xqc pop=npa geom=c
 heck
 ----------------------------------------------------------------------

 --------------------------------------
 CID_81168798_JID_9430_Energie_neutraal
 --------------------------------------
 Structure from the checkpoint file:  "JID_9430.chk"
 Charge =  0 Multiplicity = 1

 SCF Done:  E(RB3LYP) =  -883.458467095     A.U. after   16 cycles
 Normal termination of Gaussian 16 at Sun Dec 13 13:20:39 2020.

 ----------------------------------------------------------------------
 # B3LYP/6-311++G(d,p) empiricaldispersion=gd3bj scf=xqc pop=npa geom=c
 heck
 ----------------------------------------------------------------------

 ------------------------------------
 CID_81168798_JID_9430_Energie_kation
 ------------------------------------
 Structure from the checkpoint file:  "JID_9430.chk"
 Charge =  1 Multiplicity = 2

 SCF Done:  E(UB3LYP) =  -883.156320083     A.U. after   28 cycles
 Normal termination of Gaussian 16 at Sun Dec 13 13:51:19 2020.
 Gaussian 16:  ES64L-G16RevA.03 25-Dec-2016

 ----------------------------------------------------------------------
 # B3LYP/6-311++G(d,p) empiricaldispersion=gd3bj scf=xqc pop=npa geom=c
 heck
 ----------------------------------------------------------------------

 -----------------------------------
 CID_81168798_JID_9430_Energie_anion
 -----------------------------------
 Structure from the checkpoint file:  "JID_9430.chk"
 Charge = -1 Multiplicity = 2

                         Standard orientation:
 ---------------------------------------------------------------------
 Center     Atomic      Atomic             Coordinates (Angstroms)
 Number     Number       Type             X           Y           Z
 ---------------------------------------------------------------------
      1          6           0       -3.059160    2.379983   -0.721663
      2          6           0       -2.224053    1.119737   -0.955124
      3          6           0       -2.502845   -0.062679    0.014237
      4          6           0       -2.205452    0.285111    1.488308
      5          6           0       -0.675986    0.194178    1.583587
      6          7           0       -0.323817   -0.780018    0.543701
      7          6           0       -1.481144   -1.186657   -0.255013
      8          6           0        0.923562   -1.233499    0.213487
      9          8           0        1.071307   -2.045815   -0.700593
     10          6           0        2.107013   -0.656697    0.973232
     11          6           0        2.972216    0.225357    0.053565
     12          6           0        2.239488    1.351590   -0.738319
     13          6           0        3.369230    2.337344   -0.344379
     14          6           0        3.813012    1.339375    0.755321
     15          6           0        3.828124   -0.641784   -0.881844
     16          7           0        4.763903   -1.471882   -0.116068
     17          6           0       -3.911279   -0.555194   -0.243193
     18          8           0       -4.230093   -1.279885   -1.160151
     19          8           0       -4.817423   -0.065429    0.641262
     20          1           0       -4.132443    2.173124   -0.785409
     21          1           0       -2.818528    3.136300   -1.476095
     22          1           0       -2.866560    2.823643    0.260872
     23          1           0       -2.392536    0.748419   -1.972479
     24          1           0       -1.156443    1.361394   -0.888042
     25          1           0       -2.667501   -0.464223    2.138436
     26          1           0       -2.588012    1.260583    1.793622
     27          1           0       -0.206630    1.166865    1.388254
     28          1           0       -0.350875   -0.136793    2.575444
     29          1           0       -1.863394   -2.163907    0.065679
     30          1           0       -1.198775   -1.275369   -1.304733
     31          1           0        1.786246   -0.075927    1.841742
     32          1           0        2.726165   -1.487459    1.326592
     33          1           0        2.067222    1.168109   -1.804197
     34          1           0        1.283153    1.622059   -0.277580
     35          1           0        3.067521    3.336773   -0.017127
     36          1           0        4.117654    2.447185   -1.134731
     37          1           0        3.403322    1.599488    1.737240
     38          1           0        4.887248    1.160565    0.874045
     39          1           0        3.152816   -1.306607   -1.425865
     40          1           0        4.323881    0.011183   -1.621976
     41          1           0        5.097863   -2.240281   -0.692123
     42          1           0        5.583977   -0.930620    0.148658
     43          1           0       -5.682642   -0.419154    0.358993
 ---------------------------------------------------------------------

 SCF Done:  E(UB3LYP) =  -883.451134502     A.U. after   33 cycles
 SCF Done:  E(UB3LYP) =  -883.451134502     a.u. after    1 cycles

 The electronic state is 2-A.
 Alpha  occ. eigenvalues --  -19.08441 -19.03100 -18.99029 -14.25062 -14.20840
 Alpha  occ. eigenvalues --  -10.22071 -10.17566 -10.12312 -10.11655 -10.11573
 Alpha  occ. eigenvalues --  -10.09762 -10.09583 -10.09185 -10.09056 -10.07983
 Alpha  occ. eigenvalues --  -10.07855 -10.07836 -10.07799 -10.07380  -1.02526
 Alpha  occ. eigenvalues --   -0.94372  -0.93620  -0.85733  -0.80281  -0.75849
 Alpha  occ. eigenvalues --   -0.74321  -0.67402  -0.66676  -0.64807  -0.60110
 Alpha  occ. eigenvalues --   -0.57890  -0.57153  -0.55096  -0.53739  -0.52070
 Alpha  occ. eigenvalues --   -0.47805  -0.47043  -0.43839  -0.42094  -0.41605
 Alpha  occ. eigenvalues --   -0.40802  -0.40354  -0.39045  -0.38920  -0.37505
 Alpha  occ. eigenvalues --   -0.37054  -0.36107  -0.35796  -0.35419  -0.34244
 Alpha  occ. eigenvalues --   -0.33345  -0.32495  -0.31380  -0.31017  -0.30256
 Alpha  occ. eigenvalues --   -0.30038  -0.29419  -0.28891  -0.28170  -0.27055
 Alpha  occ. eigenvalues --   -0.26670  -0.26276  -0.25724  -0.25282  -0.24537
 Alpha  occ. eigenvalues --   -0.23491  -0.23009  -0.21815  -0.20972  -0.19608
 Alpha  occ. eigenvalues --   -0.16083  -0.15814  -0.15301   0.03595
 Alpha virt. eigenvalues --    0.04985   0.05916   0.06643   0.07432   0.07622
 Alpha virt. eigenvalues --    0.07810   0.08546   0.08745   0.09334   0.09949
 Alpha virt. eigenvalues --    0.10148   0.10488   0.10962   0.11035   0.11288

  Beta  occ. eigenvalues --  -19.08392 -19.03088 -18.99029 -14.25063 -14.20823
  Beta  occ. eigenvalues --  -10.22070 -10.17566 -10.12286 -10.11648 -10.11569
  Beta  occ. eigenvalues --  -10.09753 -10.09583 -10.09176 -10.09031 -10.07966
  Beta  occ. eigenvalues --  -10.07835 -10.07828 -10.07793 -10.07348  -1.02466
  Beta  occ. eigenvalues --   -0.94369  -0.93569  -0.85723  -0.80256  -0.75831
  Beta  occ. eigenvalues --   -0.74300  -0.67375  -0.66653  -0.64778  -0.60074
  Beta  occ. eigenvalues --   -0.57852  -0.57112  -0.55034  -0.53678  -0.52028
  Beta  occ. eigenvalues --   -0.47740  -0.47006  -0.43801  -0.42068  -0.41584
  Beta  occ. eigenvalues --   -0.40780  -0.40326  -0.39017  -0.38900  -0.37484
  Beta  occ. eigenvalues --   -0.37030  -0.36080  -0.35774  -0.35390  -0.34217
  Beta  occ. eigenvalues --   -0.33319  -0.32475  -0.31342  -0.30995  -0.30236
  Beta  occ. eigenvalues --   -0.30012  -0.29378  -0.28858  -0.28154  -0.27036
  Beta  occ. eigenvalues --   -0.26657  -0.26248  -0.25700  -0.25256  -0.24511
  Beta  occ. eigenvalues --   -0.23465  -0.22990  -0.21797  -0.20955  -0.19559
  Beta  occ. eigenvalues --   -0.16066  -0.15807  -0.15293
  Beta virt. eigenvalues --    0.05465   0.06067   0.06734   0.07184   0.07689
  Beta virt. eigenvalues --    0.07882   0.07981   0.08860   0.09064   0.09562
  Beta virt. eigenvalues --    0.10151   0.10159   0.10576   0.11121   0.11161

 Mulliken charges and spin densities:
               1          2
     1  C    0.313575  -1.018196
     2  C   -0.809064   0.627721
     3  C    0.112806   0.536723
     4  C    0.992030  -1.822166
     5  C   -0.269269   0.080704
     6  N    0.132113   0.056923
     7  C   -0.590010   0.050193
     8  C   -0.590150   0.275982
     9  O   -0.290052  -0.000477
    10  C    0.180428  -0.653282
    11  C    0.395218   0.692770
    12  C   -0.383532   0.168695
    13  C    0.427514  -0.807770
    14  C   -0.498990   0.094475
    15  C   -0.227833  -0.846940
    16  N   -0.384532   0.077110
    17  C    0.563731  -0.608932
    18  O   -0.242803   0.014820
    19  O   -0.121256   0.019148
    20  H   -0.069194   0.241103
    21  H   -0.114182   0.265061
    22  H   -0.239105   0.383736
    23  H    0.106532   0.065879
    24  H    0.030050   0.167605
    25  H    0.049502   0.172414
    26  H   -0.061650   0.278548
    27  H   -0.071358   0.227325
    28  H   -0.262571   0.442682
    29  H    0.112088   0.120495
    30  H    0.255745  -0.016551
    31  H    0.213238  -0.046386
    32  H    0.236022   0.025242
    33  H    0.081775   0.114827
    34  H    0.469830  -0.513785
    35  H   -0.261199   0.427391
    36  H    0.006381   0.121179
    37  H   -0.183699   0.314815
    38  H   -0.087191   0.215082
    39  H    0.251927   0.003342
    40  H   -0.005772   0.135934
    41  H    0.165468   0.070020
    42  H    0.055348   0.160281
    43  H   -0.387912   0.686262
 Sum of Mulliken charges =  -1.00000   1.00000

 Dipole moment (field-independent basis, Debye):
    X=              3.8104    Y=             -1.0240    Z=             -1.2133  Tot=              4.1279
 Quadrupole moment (field-independent basis, Debye-Ang):
   XX=           -222.7105   YY=           -166.0291   ZZ=           -152.0721
   XY=             -1.9177   XZ=             -1.3247   YZ=             -7.0292

 Summary of Natural Population Analysis:

                                       Natural Population
                Natural  -----------------------------------------------
    Atom  No    Charge         Core      Valence    Rydberg      Total
 -----------------------------------------------------------------------
      C    1   -0.28767      0.99966     2.28293    0.00509     3.28767
      C    2   -0.18600      0.99960     2.17736    0.00904     3.18600
      C    3   -0.08452      0.99950     2.07061    0.01441     3.08452
      C    4   -0.19157      0.99960     2.18149    0.01048     3.19157
      C    5   -0.08277      0.99962     2.07333    0.00982     3.08277
      N    6   -0.25783      0.99964     2.74915    0.00905     3.75783
      C    7   -0.07364      0.99958     2.06284    0.01121     3.07364
      C    8    0.35258      0.99963     1.62564    0.02215     2.64742
      O    9   -0.33302      0.99988     3.32835    0.00479     4.33302
      C   10   -0.23486      0.99953     2.22622    0.00911     3.23486
      C   11   -0.03307      0.99956     2.01923    0.01428     3.03307
      C   12   -0.18814      0.99959     2.17993    0.00861     3.18814
      C   13   -0.19176      0.99965     2.18370    0.00841     3.19176
      C   14   -0.18391      0.99960     2.17569    0.00862     3.18391
      C   15   -0.09536      0.99954     2.08372    0.01210     3.09536
      N   16   -0.42595      0.99977     2.91598    0.01020     3.92595
      C   17    0.41732      0.99960     1.55640    0.02668     2.58268
      O   18   -0.30646      0.99987     3.30068    0.00590     4.30646
      O   19   -0.34188      0.99988     3.33497    0.00703     4.34188
      H   20    0.10092      0.00000     0.39775    0.00132     0.39908
      H   21    0.10111      0.00000     0.39814    0.00075     0.39889
      H   22    0.09976      0.00000     0.39907    0.00117     0.40024
      H   23    0.10296      0.00000     0.39599    0.00105     0.39704
      H   24    0.10150      0.00000     0.39667    0.00183     0.39850
      H   25    0.10614      0.00000     0.39242    0.00144     0.39386
      H   26    0.11288      0.00000     0.38584    0.00127     0.38712
      H   27    0.09551      0.00000     0.40272    0.00176     0.40449
      H   28    0.10102      0.00000     0.39777    0.00121     0.39898
      H   29    0.10009      0.00000     0.39890    0.00101     0.39991
      H   30    0.11350      0.00000     0.38537    0.00113     0.38650
      H   31    0.10236      0.00000     0.39605    0.00159     0.39764
      H   32    0.12408      0.00000     0.37446    0.00146     0.37592
      H   33    0.09865      0.00000     0.40033    0.00102     0.40135
      H   34    0.09792      0.00000     0.40023    0.00185     0.40208
      H   35    0.09811      0.00000     0.40079    0.00109     0.40189
      H   36    0.09500      0.00000     0.40370    0.00130     0.40500
      H   37    0.09905      0.00000     0.39961    0.00134     0.40095
      H   38    0.09485      0.00000     0.40403    0.00112     0.40515
      H   39    0.11114      0.00000     0.38768    0.00117     0.38886
      H   40    0.07962      0.00000     0.41899    0.00139     0.42038
      H   41    0.17576      0.00000     0.32302    0.00122     0.32424
      H   42    0.17285      0.00000     0.32555    0.00161     0.32715
      H   43    0.24372      0.00000     0.24488    0.01140     0.25628
 =======================================================================
   * Total *   -0.00000     18.99329    53.75820    0.24850    73.00000

 Normal termination of Gaussian 16 at Sun Dec 13 14:27:52 2020.
