 Gaussian 16, Revision A.03,

 -----------------------------------------------------------
 # opt freq B3LYP/6-31G(d) empiricaldispersion=gd3bj scf=xqc
 -----------------------------------------------------------

 ------------------------------
 CID_80820103_JID_9196_neutraal
 ------------------------------
 Symbolic Z-matrix:
 Charge =  0 Multiplicity = 1

 SCF Done:  E(RB3LYP) =  -887.977987336     A.U. after   14 cycles
 SCF Done:  E(RB3LYP) =  -887.986696777     A.U. after   12 cycles
 SCF Done:  E(RB3LYP) =  -887.988521006     A.U. after   12 cycles
 SCF Done:  E(RB3LYP) =  -887.989273003     A.U. after   12 cycles
 SCF Done:  E(RB3LYP) =  -887.989815194     A.U. after   12 cycles
 SCF Done:  E(RB3LYP) =  -887.990035399     A.U. after   11 cycles
 SCF Done:  E(RB3LYP) =  -887.990112063     A.U. after   11 cycles
 SCF Done:  E(RB3LYP) =  -887.990143774     A.U. after   10 cycles
 SCF Done:  E(RB3LYP) =  -887.990166284     A.U. after   11 cycles
 SCF Done:  E(RB3LYP) =  -887.990178191     A.U. after   10 cycles
 SCF Done:  E(RB3LYP) =  -887.990191461     A.U. after    8 cycles
 SCF Done:  E(RB3LYP) =  -887.990192508     A.U. after    8 cycles
 SCF Done:  E(RB3LYP) =  -887.990192647     A.U. after    7 cycles
 SCF Done:  E(RB3LYP) =  -887.990192708     A.U. after    7 cycles
 SCF Done:  E(RB3LYP) =  -887.990192692     A.U. after    7 cycles
 Optimization completed.
    -- Stationary point found.
 Normal termination of Gaussian 16 at Sun Dec 13 16:14:53 2020.

 --------------------------------------------------------------------
 #N Geom=AllCheck Guess=TCheck SCRF=Check GenChk RB3LYP/6-31G(d) Freq
 --------------------------------------------------------------------

 Structure from the checkpoint file:  "JID_9196.chk"
 ------------------------------
 CID_80820103_JID_9196_neutraal
 ------------------------------
 Charge =  0 Multiplicity = 1

 SCF Done:  E(RB3LYP) =  -887.990192693     A.U. after    1 cycles

  Exact polarizability: 211.735 -13.846 153.752  18.449   1.876 115.413
 Approx polarizability: 268.943 -24.981 243.909  36.532   3.299 188.757

                      1                      2                      3
                      A                      A                      A
 Frequencies --     15.7802                20.8635                26.0938
 Red. masses --      4.9751                 5.3037                 4.3224
 Frc consts  --      0.0007                 0.0014                 0.0017
 IR Inten    --      1.5439                 0.3973                 1.1119

                      4                      5                      6
                      A                      A                      A
 Frequencies --     39.9077                54.5087                95.6033
 Red. masses --      4.9849                 4.6325                 3.7147
 Frc consts  --      0.0047                 0.0081                 0.0200
 IR Inten    --      2.5417                 0.6148                11.8138

                      7                      8                      9
                      A                      A                      A
 Frequencies --    116.0308               128.3043               157.2629
 Red. masses --      4.3081                 4.2575                 1.3302
 Frc consts  --      0.0342                 0.0413                 0.0194
 IR Inten    --      2.0179                 0.1559                 1.2069

                     10                     11                     12
                      A                      A                      A
 Frequencies --    184.7635               201.6533               212.2043
 Red. masses --      3.9794                 4.5961                 3.5315
 Frc consts  --      0.0800                 0.1101                 0.0937
 IR Inten    --      0.3538                 0.6610                 4.0854

                     13                     14                     15
                      A                      A                      A
 Frequencies --    231.3925               245.1661               262.9918
 Red. masses --      3.5006                 3.2043                 3.0281
 Frc consts  --      0.1104                 0.1135                 0.1234
 IR Inten    --      1.0015                 0.3067                 0.3795

                     16                     17                     18
                      A                      A                      A
 Frequencies --    314.6878               356.1094               363.1276
 Red. masses --      3.3566                 1.2644                 2.1835
 Frc consts  --      0.1958                 0.0945                 0.1696
 IR Inten    --      5.6544               308.3695                 3.8631

                     19                     20                     21
                      A                      A                      A
 Frequencies --    375.3551               426.1338               444.2202
 Red. masses --      2.2741                 2.5203                 1.2072
 Frc consts  --      0.1888                 0.2696                 0.1404
 IR Inten    --      6.4865                19.1779                77.7581

                     22                     23                     24
                      A                      A                      A
 Frequencies --    477.2561               522.6930               546.5916
 Red. masses --      2.5755                 1.5737                 2.0899
 Frc consts  --      0.3456                 0.2533                 0.3679
 IR Inten    --     14.4461                 3.8491                 2.6087

                     25                     26                     27
                      A                      A                      A
 Frequencies --    564.5256               613.7542               620.7543
 Red. masses --      3.3354                 5.5431                 5.3633
 Frc consts  --      0.6263                 1.2302                 1.2176
 IR Inten    --      1.5789                 1.8806                 5.3483

                     28                     29                     30
                      A                      A                      A
 Frequencies --    635.6596               669.8172               677.4964
 Red. masses --      3.9503                 2.2689                 3.9324
 Frc consts  --      0.9404                 0.5998                 1.0635
 IR Inten    --      4.2675                 4.5716                20.2475

                     31                     32                     33
                      A                      A                      A
 Frequencies --    716.5473               726.1753               734.7569
 Red. masses --      1.2361                 3.8590                10.3572
 Frc consts  --      0.3739                 1.1990                 3.2944
 IR Inten    --     14.7315                10.9615                 1.4885

                     34                     35                     36
                      A                      A                      A
 Frequencies --    744.7735               776.3307               796.7797
 Red. masses --     10.1969                 1.7656                 1.3321
 Frc consts  --      3.3325                 0.6269                 0.4983
 IR Inten    --      0.4542                19.3195                35.8090

                     37                     38                     39
                      A                      A                      A
 Frequencies --    818.2984               826.3522               848.6128
 Red. masses --      2.6767                10.2597                 1.3171
 Frc consts  --      1.0560                 4.1278                 0.5588
 IR Inten    --      6.3789                52.6390                 2.6112

                     40                     41                     42
                      A                      A                      A
 Frequencies --    913.6108               923.5418               958.6313
 Red. masses --      2.0948                 6.2233                 2.2763
 Frc consts  --      1.0302                 3.1274                 1.2325
 IR Inten    --      2.9058                12.2131                 1.8235

                     43                     44                     45
                      A                      A                      A
 Frequencies --    987.6275              1000.2186              1021.5112
 Red. masses --      6.9461                 4.5915                 1.8078
 Frc consts  --      3.9919                 2.7064                 1.1114
 IR Inten    --      6.9088                 4.6199                 2.6535

                     46                     47                     48
                      A                      A                      A
 Frequencies --   1052.9690              1071.1454              1094.1828
 Red. masses --      3.3093                 2.6968                 2.2324
 Frc consts  --      2.1618                 1.8231                 1.5747
 IR Inten    --     15.5644                 3.9682                22.5963

                     49                     50                     51
                      A                      A                      A
 Frequencies --   1099.0257              1108.7671              1119.3758
 Red. masses --      1.7904                 1.6899                 2.5259
 Frc consts  --      1.2742                 1.2240                 1.8647
 IR Inten    --     58.9230                 1.0684                 3.1038

                     52                     53                     54
                      A                      A                      A
 Frequencies --   1151.8179              1153.1895              1186.4253
 Red. masses --      2.5515                 2.1072                 1.2666
 Frc consts  --      1.9944                 1.6510                 1.0504
 IR Inten    --     18.3589                35.1534                 0.6292

                     55                     56                     57
                      A                      A                      A
 Frequencies --   1190.2699              1210.3471              1229.5957
 Red. masses --      1.4523                 1.8348                 1.7174
 Frc consts  --      1.2123                 1.5837                 1.5298
 IR Inten    --      6.8627                22.5876                43.3971

                     58                     59                     60
                      A                      A                      A
 Frequencies --   1243.9509              1270.3908              1300.2876
 Red. masses --      1.8093                 1.6455                 1.5699
 Frc consts  --      1.6495                 1.5647                 1.5639
 IR Inten    --     39.5194                31.6592                14.7435

                     61                     62                     63
                      A                      A                      A
 Frequencies --   1317.0384              1326.8895              1347.2181
 Red. masses --      1.9671                 3.6660                 1.1489
 Frc consts  --      2.0104                 3.8029                 1.2285
 IR Inten    --     36.0665                 6.7084                 2.2248

                     64                     65                     66
                      A                      A                      A
 Frequencies --   1382.2527              1386.2073              1399.1435
 Red. masses --      1.7762                 1.4998                 3.8876
 Frc consts  --      1.9995                 1.6980                 4.4839
 IR Inten    --      1.8603               195.8707                11.8575

                     67                     68                     69
                      A                      A                      A
 Frequencies --   1410.1827              1417.8909              1430.8222
 Red. masses --      1.8794                 1.6997                 1.5846
 Frc consts  --      2.2020                 2.0133                 1.9113
 IR Inten    --    105.5649                22.5364                74.9933

                     70                     71                     72
                      A                      A                      A
 Frequencies --   1436.9237              1448.8585              1488.4530
 Red. masses --      1.9135                 1.6507                 2.2856
 Frc consts  --      2.3278                 2.0416                 2.9835
 IR Inten    --     29.2898               248.4185               196.1825

                     73                     74                     75
                      A                      A                      A
 Frequencies --   1506.4874              1511.2541              1513.1257
 Red. masses --      1.2048                 1.0492                 1.1752
 Frc consts  --      1.6110                 1.4119                 1.5854
 IR Inten    --     15.3487                 4.5488                55.9165

                     76                     77                     78
                      A                      A                      A
 Frequencies --   1519.2663              1522.3136              1525.9219
 Red. masses --      1.2031                 1.2135                 1.0959
 Frc consts  --      1.6361                 1.6569                 1.5034
 IR Inten    --     19.9429                33.3064                58.5753

                     79                     80                     81
                      A                      A                      A
 Frequencies --   1535.5070              1547.4614              1554.1950
 Red. masses --      1.8322                 2.4030                 3.1506
 Frc consts  --      2.5452                 3.3904                 4.4839
 IR Inten    --    239.7661                14.9062                32.0520

                     82                     83                     84
                      A                      A                      A
 Frequencies --   1600.2649              1625.8180              1638.9871
 Red. masses --      3.1136                 3.5446                 6.4486
 Frc consts  --      4.6978                 5.5203                10.2063
 IR Inten    --    134.2514               349.3443              1429.5937

                     85                     86                     87
                      A                      A                      A
 Frequencies --   1680.4189              3053.1472              3063.1468
 Red. masses --      2.1962                 1.0615                 1.0643
 Frc consts  --      3.6539                 5.8297                 5.8837
 IR Inten    --    171.9421                13.4807                39.3212

                     88                     89                     90
                      A                      A                      A
 Frequencies --   3065.2939              3069.9982              3080.0823
 Red. masses --      1.0641                 1.0296                 1.0613
 Frc consts  --      5.8906                 5.7171                 5.9323
 IR Inten    --      9.0930                45.6224                25.2659

                     91                     92                     93
                      A                      A                      A
 Frequencies --   3090.2665              3110.2541              3116.6303
 Red. masses --      1.0996                 1.1025                 1.1019
 Frc consts  --      6.1871                 6.2837                 6.3062
 IR Inten    --     34.1436                38.2631                11.2207

                     94                     95                     96
                      A                      A                      A
 Frequencies --   3129.3489              3142.6470              3173.2333
 Red. masses --      1.1037                 1.1072                 1.1068
 Frc consts  --      6.3679                 6.4427                 6.5662
 IR Inten    --     30.8250                25.3472                25.0676

                     97                     98                     99
                      A                      A                      A
 Frequencies --   3253.2871              3258.9510              3288.8247
 Red. masses --      1.0950                 1.0924                 1.1034
 Frc consts  --      6.8280                 6.8357                 7.0320
 IR Inten    --      7.6658                 6.0758                 2.9521

                    100                    101                    102
                      A                      A                      A
 Frequencies --   3607.4528              3648.5391              3732.3423
 Red. masses --      1.0451                 1.0771                 1.1042
 Frc consts  --      8.0135                 8.4478                 9.0628
 IR Inten    --     72.6750                41.7000                40.8451

 - Thermochemistry -
 -------------------
 Temperature   298.150 Kelvin.  Pressure   1.00000 Atm.
 Atom     1 has atomic number  6 and mass  12.00000

 Molecular mass:   263.14946 amu.
 Principal axes and moments of inertia in atomic units:
                           1         2         3
     Eigenvalues --  1956.87006********************
           X            0.99999   0.00338  -0.00158
           Y           -0.00337   0.99995   0.00965
           Z            0.00161  -0.00964   0.99995
 This molecule is an asymmetric top.
 Rotational symmetry number  1.
 Warning -- assumption of classical behavior for rotation
           may cause significant error
 Rotational temperatures (Kelvin)      0.04426     0.00683     0.00632
 Rotational constants (GHZ):           0.92226     0.14227     0.13174
 Zero-point vibrational energy     788533.8 (Joules/Mol)
                                  188.46411 (Kcal/Mol)
 Warning -- explicit consideration of  27 degrees of freedom as
           vibrations may cause significant error
 Vibrational temperatures:     22.70    30.02    37.54    57.42    78.43
          (Kelvin)            137.55   166.94   184.60   226.27   265.83
                              290.13   305.31   332.92   352.74   378.39
                              452.77   512.36   522.46   540.05   613.11
                              639.13   686.67   752.04   786.42   812.23
                              883.06   893.13   914.57   963.72   974.77
                             1030.95  1044.80  1057.15  1071.56  1116.97
                             1146.39  1177.35  1188.94  1220.96  1314.48
                             1328.77  1379.26  1420.98  1439.09  1469.73
                             1514.99  1541.14  1574.28  1581.25  1595.27
                             1610.53  1657.21  1659.18  1707.00  1712.53
                             1741.42  1769.11  1789.77  1827.81  1870.82
                             1894.92  1909.10  1938.35  1988.75  1994.44
                             2013.06  2028.94  2040.03  2058.63  2067.41
                             2084.58  2141.55  2167.50  2174.36  2177.05
                             2185.89  2190.27  2195.46  2209.25  2226.45
                             2236.14  2302.42  2339.19  2358.14  2417.75
                             4392.80  4407.18  4410.27  4417.04  4431.55
                             4446.20  4474.96  4484.14  4502.44  4521.57
                             4565.57  4680.75  4688.90  4731.89  5190.32
                             5249.43  5370.01

 Zero-point correction=                           0.300337 (Hartree/Particle)
 Thermal correction to Energy=                    0.318441
 Thermal correction to Enthalpy=                  0.319385
 Thermal correction to Gibbs Free Energy=         0.250558
 Sum of electronic and zero-point Energies=           -887.689856
 Sum of electronic and thermal Energies=              -887.671752
 Sum of electronic and thermal Enthalpies=            -887.670808
 Sum of electronic and thermal Free Energies=         -887.739634

                     E (Thermal)             CV                S
                      KCal/Mol        Cal/Mol-Kelvin    Cal/Mol-Kelvin
 Total                  199.825             67.271            144.858
 Electronic               0.000              0.000              0.000
 Translational            0.889              2.981             42.602
 Rotational               0.889              2.981             34.185
 Vibrational            198.047             61.309             68.070
 Vibration     1          0.593              1.986              7.105
 Vibration     2          0.593              1.986              6.550
 Vibration     3          0.593              1.985              6.106
 Vibration     4          0.594              1.981              5.264
 Vibration     5          0.596              1.976              4.647
 Vibration     6          0.603              1.952              3.542
 Vibration     7          0.608              1.936              3.165
 Vibration     8          0.611              1.925              2.971
 Vibration     9          0.621              1.895              2.582
 Vibration    10          0.631              1.861              2.280
 Vibration    11          0.639              1.838              2.118
 Vibration    12          0.643              1.822              2.025
 Vibration    13          0.653              1.793              1.868
 Vibration    14          0.660              1.771              1.765
 Vibration    15          0.670              1.741              1.642
 Vibration    16          0.702              1.646              1.338
 Vibration    17          0.732              1.563              1.139
 Vibration    18          0.737              1.548              1.109
 Vibration    19          0.746              1.523              1.058
 Vibration    20          0.788              1.413              0.871
 Vibration    21          0.804              1.374              0.813
 Vibration    22          0.834              1.301              0.718
 Vibration    23          0.878              1.200              0.604
 Vibration    24          0.902              1.147              0.551
 Vibration    25          0.920              1.108              0.515
 Vibration    26          0.973              1.003              0.427
 Vibration    27          0.981              0.988              0.415

                           ! Non-Optimized Parameters !
 Normal termination of Gaussian 16 at Sun Dec 13 16:31:18 2020.

 ----------------------------------------------------------------------
 # B3LYP/6-311++G(d,p) empiricaldispersion=gd3bj scf=xqc pop=npa geom=c
 heck
 ----------------------------------------------------------------------

 --------------------------------------
 CID_80820103_JID_9196_Energie_neutraal
 --------------------------------------
 Structure from the checkpoint file:  "JID_9196.chk"
 Charge =  0 Multiplicity = 1

 SCF Done:  E(RB3LYP) =  -888.243096352     A.U. after   14 cycles
 Normal termination of Gaussian 16 at Sun Dec 13 16:38:18 2020.

 ----------------------------------------------------------------------
 # B3LYP/6-311++G(d,p) empiricaldispersion=gd3bj scf=xqc pop=npa geom=c
 heck
 ----------------------------------------------------------------------

 ------------------------------------
 CID_80820103_JID_9196_Energie_kation
 ------------------------------------
 Structure from the checkpoint file:  "JID_9196.chk"
 Charge =  1 Multiplicity = 2

 SCF Done:  E(UB3LYP) =  -887.947552850     A.U. after   33 cycles
 SCF Done:  E(UB3LYP) =  -887.947554199     a.u. after    2 cycles
 Normal termination of Gaussian 16 at Sun Dec 13 17:24:54 2020.
 Gaussian 16:  ES64L-G16RevA.03 25-Dec-2016

 ----------------------------------------------------------------------
 # B3LYP/6-311++G(d,p) empiricaldispersion=gd3bj scf=xqc pop=npa geom=c
 heck
 ----------------------------------------------------------------------

 -----------------------------------
 CID_80820103_JID_9196_Energie_anion
 -----------------------------------
 Structure from the checkpoint file:  "JID_9196.chk"
 Charge = -1 Multiplicity = 2

                         Standard orientation:
 ---------------------------------------------------------------------
 Center     Atomic      Atomic             Coordinates (Angstroms)
 Number     Number       Type             X           Y           Z
 ---------------------------------------------------------------------
      1          6           0       -4.882764   -2.458976   -0.244144
      2          8           0       -3.526161   -2.154289    0.094198
      3          6           0       -3.177721   -0.861899    0.119920
      4          7           0       -4.099246    0.057350   -0.164612
      5          6           0       -3.630352    1.324272   -0.107573
      6          7           0       -2.383890    1.690353    0.205294
      7          6           0       -1.563027    0.650653    0.468037
      8          7           0       -1.899235   -0.651015    0.439418
      9          7           0       -0.287150    0.963609    0.795748
     10          6           0        0.748467   -0.017044    1.089532
     11          6           0        1.266814   -0.765635   -0.147021
     12          6           0        1.732378    0.139639   -1.291313
     13          6           0        2.890006    1.079474   -0.931765
     14          7           0        4.041357    0.375006   -0.383282
     15          6           0        4.815731   -0.570048   -1.028939
     16          6           0        5.719946   -1.009729   -0.092137
     17          7           0        5.523777   -0.367983    1.111155
     18          6           0        4.511919    0.448156    0.899706
     19          7           0       -4.512407    2.309241   -0.426250
     20          1           0       -4.946011   -3.547513   -0.210928
     21          1           0       -5.128917   -2.090672   -1.243818
     22          1           0       -5.574999   -2.013300    0.475538
     23          1           0       -0.076113    1.950000    0.795595
     24          1           0        1.560451    0.518935    1.590102
     25          1           0        0.349869   -0.744628    1.802457
     26          1           0        2.089490   -1.417977    0.170497
     27          1           0        0.462447   -1.411506   -0.511057
     28          1           0        2.033314   -0.485778   -2.140472
     29          1           0        0.896452    0.757451   -1.641844
     30          1           0        3.205470    1.646764   -1.814799
     31          1           0        2.580161    1.809968   -0.177890
     32          1           0        4.652667   -0.825516   -2.065154
     33          1           0        6.502280   -1.746342   -0.215649
     34          1           0        4.079152    1.125208    1.624879
     35          1           0       -5.490556    2.064314   -0.449747
     36          1           0       -4.256691    3.255794   -0.189400
 ---------------------------------------------------------------------

 SCF Done:  E(UB3LYP) =  -888.235883232     A.U. after   32 cycles

 The electronic state is 2-A.
 Alpha  occ. eigenvalues --  -19.07991 -14.28774 -14.24596 -14.23787 -14.21199
 Alpha  occ. eigenvalues --  -14.21121 -14.20808 -14.20698 -10.21003 -10.19154
 Alpha  occ. eigenvalues --  -10.18893 -10.14136 -10.13804 -10.13169 -10.12074
 Alpha  occ. eigenvalues --  -10.11492 -10.10294 -10.08975 -10.08139  -1.01199
 Alpha  occ. eigenvalues --   -0.93659  -0.93198  -0.87321  -0.83025  -0.80722
 Alpha  occ. eigenvalues --   -0.78527  -0.77326  -0.71074  -0.66740  -0.65091
 Alpha  occ. eigenvalues --   -0.64555  -0.59444  -0.55996  -0.55127  -0.51867
 Alpha  occ. eigenvalues --   -0.51046  -0.49811  -0.48819  -0.46848  -0.44453
 Alpha  occ. eigenvalues --   -0.42222  -0.41778  -0.40413  -0.39905  -0.38900
 Alpha  occ. eigenvalues --   -0.38733  -0.36423  -0.36078  -0.35491  -0.35180
 Alpha  occ. eigenvalues --   -0.34254  -0.33684  -0.33188  -0.32041  -0.30863
 Alpha  occ. eigenvalues --   -0.29456  -0.28697  -0.28108  -0.27380  -0.26653
 Alpha  occ. eigenvalues --   -0.25707  -0.25316  -0.19754  -0.19323  -0.19016
 Alpha  occ. eigenvalues --   -0.18369  -0.18037  -0.16192  -0.15274  -0.15182
 Alpha  occ. eigenvalues --    0.03611
 Alpha virt. eigenvalues --    0.05087   0.06103   0.06448   0.07256   0.07938
 Alpha virt. eigenvalues --    0.08101   0.08599   0.08767   0.09297   0.09479
 Alpha virt. eigenvalues --    0.09669   0.09904   0.10517   0.10754   0.11063

  Beta  occ. eigenvalues --  -19.07989 -14.28772 -14.24573 -14.23733 -14.21186
  Beta  occ. eigenvalues --  -14.21120 -14.20802 -14.20680 -10.21003 -10.19149
  Beta  occ. eigenvalues --  -10.18892 -10.14122 -10.13785 -10.13126 -10.12065
  Beta  occ. eigenvalues --  -10.11476 -10.10292 -10.08961 -10.08138  -1.01194
  Beta  occ. eigenvalues --   -0.93647  -0.93181  -0.87287  -0.82988  -0.80705
  Beta  occ. eigenvalues --   -0.78505  -0.77282  -0.71048  -0.66711  -0.65067
  Beta  occ. eigenvalues --   -0.64524  -0.59404  -0.55943  -0.55087  -0.51848
  Beta  occ. eigenvalues --   -0.51017  -0.49778  -0.48773  -0.46811  -0.44385
  Beta  occ. eigenvalues --   -0.42175  -0.41739  -0.40398  -0.39864  -0.38855
  Beta  occ. eigenvalues --   -0.38708  -0.36393  -0.36048  -0.35468  -0.35164
  Beta  occ. eigenvalues --   -0.34222  -0.33661  -0.33165  -0.32016  -0.30824
  Beta  occ. eigenvalues --   -0.29420  -0.28671  -0.28082  -0.27367  -0.26636
  Beta  occ. eigenvalues --   -0.25680  -0.25297  -0.19736  -0.19315  -0.18993
  Beta  occ. eigenvalues --   -0.18340  -0.18009  -0.16152  -0.15236  -0.15161
  Beta virt. eigenvalues --    0.05795   0.06116   0.06872   0.07260   0.07522
  Beta virt. eigenvalues --    0.07951   0.08153   0.08716   0.09206   0.09524
  Beta virt. eigenvalues --    0.09638   0.09842   0.10333   0.10751   0.11004

 Mulliken charges and spin densities:
               1          2
     1  C    0.207929  -0.445536
     2  O   -0.123442   0.014338
     3  C    0.571921  -0.399444
     4  N   -0.111942  -0.091658
     5  C   -0.279230   0.459354
     6  N   -0.187658   0.059660
     7  C    0.284851  -0.763151
     8  N   -0.357878   0.039885
     9  N   -0.301647   0.065763
    10  C    0.971652  -1.242418
    11  C   -0.496575   0.418216
    12  C    0.077508  -0.310342
    13  C    0.149100  -0.740353
    14  N    0.121674   0.030971
    15  C   -0.076780  -0.079956
    16  C    0.052246  -0.222133
    17  N   -0.169569   0.022519
    18  C    0.095624  -0.292415
    19  N   -0.500090   0.221911
    20  H    0.110338   0.032685
    21  H    0.006927   0.169801
    22  H   -0.041136   0.217056
    23  H   -0.073055   0.431693
    24  H    0.074737   0.088503
    25  H    0.249825  -0.035087
    26  H    0.167142  -0.007509
    27  H    0.226075  -0.005865
    28  H   -0.060043   0.228866
    29  H   -0.034827   0.220837
    30  H   -0.519468   0.733304
    31  H   -0.316793   0.490065
    32  H   -0.136034   0.256901
    33  H    0.123636   0.015094
    34  H   -0.102056   0.245273
    35  H   -0.386827   0.672570
    36  H   -0.216137   0.500602
 Sum of Mulliken charges =  -1.00000   1.00000

 Dipole moment (field-independent basis, Debye):
    X=              1.2413    Y=             -6.1374    Z=              0.2292  Tot=              6.2659
 Quadrupole moment (field-independent basis, Debye-Ang):
   XX=           -234.9756   YY=           -159.1655   ZZ=           -143.4436
   XY=             11.4800   XZ=             -7.2918   YZ=              6.2415

 Summary of Natural Population Analysis:

                                       Natural Population
                Natural  -----------------------------------------------
    Atom  No    Charge         Core      Valence    Rydberg      Total
 -----------------------------------------------------------------------
      C    1   -0.10183      0.99960     2.09424    0.00799     3.10183
      O    2   -0.26349      0.99985     3.25506    0.00859     4.26349
      C    3    0.38046      0.99955     1.59914    0.02084     2.61954
      N    4   -0.32683      0.99963     2.81721    0.00999     3.82683
      C    5    0.31307      0.99963     1.66884    0.01846     2.68693
      N    6   -0.30774      0.99964     2.79799    0.01011     3.80774
      C    7    0.31499      0.99961     1.66662    0.01878     2.68501
      N    8   -0.31137      0.99963     2.80280    0.00895     3.81137
      N    9   -0.30241      0.99965     2.79216    0.01060     3.80241
      C   10   -0.08978      0.99962     2.07868    0.01148     3.08978
      C   11   -0.20095      0.99962     2.19411    0.00723     3.20095
      C   12   -0.19664      0.99962     2.18856    0.00846     3.19664
      C   13   -0.08263      0.99960     2.07104    0.01199     3.08263
      N   14   -0.20861      0.99966     2.69706    0.01189     3.70861
      C   15   -0.03812      0.99955     2.02670    0.01187     3.03812
      C   16   -0.03722      0.99959     2.02465    0.01298     3.03722
      N   17   -0.25841      0.99973     2.74869    0.00999     3.75841
      C   18    0.10591      0.99963     1.87622    0.01824     2.89409
      N   19   -0.38051      0.99969     2.87193    0.00888     3.88051
      H   20    0.08766      0.00000     0.41138    0.00096     0.41234
      H   21    0.09187      0.00000     0.40662    0.00151     0.40813
      H   22    0.09179      0.00000     0.40661    0.00160     0.40821
      H   23    0.20177      0.00000     0.29465    0.00357     0.29823
      H   24    0.09592      0.00000     0.40281    0.00127     0.40408
      H   25    0.10472      0.00000     0.39411    0.00117     0.39528
      H   26    0.10044      0.00000     0.39851    0.00105     0.39956
      H   27    0.11085      0.00000     0.38790    0.00125     0.38915
      H   28    0.09880      0.00000     0.40020    0.00101     0.40120
      H   29    0.10785      0.00000     0.39094    0.00121     0.39215
      H   30    0.10496      0.00000     0.39278    0.00227     0.39504
      H   31    0.10265      0.00000     0.39480    0.00255     0.39735
      H   32    0.10507      0.00000     0.39400    0.00093     0.39493
      H   33    0.09511      0.00000     0.40405    0.00085     0.40489
      H   34    0.09483      0.00000     0.40357    0.00160     0.40517
      H   35    0.19876      0.00000     0.29564    0.00560     0.30124
      H   36    0.19906      0.00000     0.29685    0.00409     0.30094
 =======================================================================
   * Total *    0.00000     18.99308    50.74712    0.25979    70.00000

 Normal termination of Gaussian 16 at Sun Dec 13 17:47:33 2020.
