 Gaussian 16, Revision A.03,

 -----------------------------------------------------------
 # opt freq B3LYP/6-31G(d) empiricaldispersion=gd3bj scf=xqc
 -----------------------------------------------------------

 ------------------------------
 CID_81188268_JID_4945_neutraal
 ------------------------------
 Symbolic Z-matrix:
 Charge =  0 Multiplicity = 1

 SCF Done:  E(RB3LYP) =  -957.578036600     A.U. after   15 cycles
 SCF Done:  E(RB3LYP) =  -957.579345288     A.U. after   13 cycles
 SCF Done:  E(RB3LYP) =  -957.580777513     A.U. after   13 cycles
 SCF Done:  E(RB3LYP) =  -957.581038678     A.U. after   14 cycles
 SCF Done:  E(RB3LYP) =  -957.583222375     A.U. after   13 cycles
 SCF Done:  E(RB3LYP) =  -957.583897014     A.U. after   13 cycles
 SCF Done:  E(RB3LYP) =  -957.584541258     A.U. after   12 cycles
 SCF Done:  E(RB3LYP) =  -957.584510372     A.U. after   13 cycles
 SCF Done:  E(RB3LYP) =  -957.584825800     A.U. after   12 cycles
 SCF Done:  E(RB3LYP) =  -957.584878797     A.U. after   12 cycles
 SCF Done:  E(RB3LYP) =  -957.584965948     A.U. after   10 cycles
 SCF Done:  E(RB3LYP) =  -957.584965748     A.U. after   10 cycles
 SCF Done:  E(RB3LYP) =  -957.584966779     A.U. after   10 cycles
 SCF Done:  E(RB3LYP) =  -957.584967846     A.U. after    9 cycles
 SCF Done:  E(RB3LYP) =  -957.584967951     A.U. after    8 cycles
 Optimization completed.
    -- Stationary point found.
 Normal termination of Gaussian 16 at Thu Dec 10 11:09:06 2020.

 --------------------------------------------------------------------
 #N Geom=AllCheck Guess=TCheck SCRF=Check GenChk RB3LYP/6-31G(d) Freq
 --------------------------------------------------------------------

 Structure from the checkpoint file:  "JID_4945.chk"
 ------------------------------
 CID_81188268_JID_4945_neutraal
 ------------------------------
 Charge =  0 Multiplicity = 1

 SCF Done:  E(RB3LYP) =  -957.584967951     A.U. after    1 cycles

  Exact polarizability: 129.195  17.827 135.686  -0.112  -2.861 137.356
 Approx polarizability: 169.974  36.401 221.096   1.017   4.552 241.497

                      1                      2                      3
                      A                      A                      A
 Frequencies --     30.3155                40.3308                56.4213
 Red. masses --      3.6583                 4.2974                 3.8250
 Frc consts  --      0.0020                 0.0041                 0.0072
 IR Inten    --      0.9625                 1.1050                 0.7782

                      4                      5                      6
                      A                      A                      A
 Frequencies --     78.3051                95.2061               139.9096
 Red. masses --      3.9914                 4.0373                 3.3475
 Frc consts  --      0.0144                 0.0216                 0.0386
 IR Inten    --      2.0448                 0.8827                 3.4625

                      7                      8                      9
                      A                      A                      A
 Frequencies --    172.1157               187.5816               253.3289
 Red. masses --      4.8139                 5.7929                 3.2736
 Frc consts  --      0.0840                 0.1201                 0.1238
 IR Inten    --      5.6336                 3.4131                 1.3734

                     10                     11                     12
                      A                      A                      A
 Frequencies --    267.9227               290.8180               307.0374
 Red. masses --      1.0991                 4.0891                 1.3399
 Frc consts  --      0.0465                 0.2038                 0.0744
 IR Inten    --      0.9159                19.2123                22.1865

                     13                     14                     15
                      A                      A                      A
 Frequencies --    314.7108               352.4704               391.0068
 Red. masses --      2.3404                 2.0095                 1.8252
 Frc consts  --      0.1366                 0.1471                 0.1644
 IR Inten    --     11.3645                 1.7496                 0.4638

                     16                     17                     18
                      A                      A                      A
 Frequencies --    418.6092               422.8921               472.0422
 Red. masses --      2.9677                 2.5347                 4.0297
 Frc consts  --      0.3064                 0.2671                 0.5290
 IR Inten    --      0.6103                 6.0269                 9.0748

                     19                     20                     21
                      A                      A                      A
 Frequencies --    506.9463               516.8341               583.7834
 Red. masses --      4.1258                 3.6879                 2.9674
 Frc consts  --      0.6247                 0.5804                 0.5958
 IR Inten    --      3.1197                 8.6855                 2.4594

                     22                     23                     24
                      A                      A                      A
 Frequencies --    604.1664               638.0943               710.6193
 Red. masses --      4.4564                 6.3246                 3.5722
 Frc consts  --      0.9584                 1.5172                 1.0628
 IR Inten    --      9.6639                 0.1265                 7.8574

                     25                     26                     27
                      A                      A                      A
 Frequencies --    716.9190               770.4653               774.3957
 Red. masses --      1.8940                 1.6946                 3.2697
 Frc consts  --      0.5736                 0.5927                 1.1553
 IR Inten    --     34.3865                30.2637                 3.4024

                     28                     29                     30
                      A                      A                      A
 Frequencies --    825.4707               852.5186               865.4851
 Red. masses --      2.8853                 1.5409                 1.2540
 Frc consts  --      1.1584                 0.6598                 0.5534
 IR Inten    --     17.5117                40.1539                 1.2671

                     31                     32                     33
                      A                      A                      A
 Frequencies --    899.5865               917.9258               935.7601
 Red. masses --      1.5726                 1.6967                 1.5545
 Frc consts  --      0.7498                 0.8423                 0.8020
 IR Inten    --     54.7875               159.7615                 3.7833

                     34                     35                     36
                      A                      A                      A
 Frequencies --    946.8839               967.8568               972.6862
 Red. masses --      1.9612                 1.5858                 1.3596
 Frc consts  --      1.0360                 0.8752                 0.7579
 IR Inten    --      4.8124                 3.8534                 2.1272

                     37                     38                     39
                      A                      A                      A
 Frequencies --    997.8919              1023.4031              1024.4177
 Red. masses --      1.2840                 5.5807                 2.7161
 Frc consts  --      0.7533                 3.4438                 1.6794
 IR Inten    --      2.5128                 0.4775                 0.9514

                     40                     41                     42
                      A                      A                      A
 Frequencies --   1030.2699              1051.1849              1062.2298
 Red. masses --      1.6415                 4.9799                 2.1874
 Frc consts  --      1.0266                 3.2421                 1.4542
 IR Inten    --     13.0048                83.6331                 2.6122

                     43                     44                     45
                      A                      A                      A
 Frequencies --   1076.4850              1102.4929              1111.1425
 Red. masses --      1.4875                 1.3795                 1.5436
 Frc consts  --      1.0156                 0.9879                 1.1229
 IR Inten    --     13.0755                19.8639                 2.7230

                     46                     47                     48
                      A                      A                      A
 Frequencies --   1158.4693              1193.6835              1217.4962
 Red. masses --      1.1689                 1.0968                 1.1614
 Frc consts  --      0.9243                 0.9208                 1.0143
 IR Inten    --      5.4764                 0.0099                 0.5087

                     49                     50                     51
                      A                      A                      A
 Frequencies --   1227.6802              1234.7950              1245.3349
 Red. masses --      1.5065                 1.4518                 1.6258
 Frc consts  --      1.3378                 1.3042                 1.4856
 IR Inten    --      1.4676                 1.7604                 0.9652

                     52                     53                     54
                      A                      A                      A
 Frequencies --   1259.3813              1298.7934              1316.6206
 Red. masses --      1.6503                 1.5572                 1.4260
 Frc consts  --      1.5422                 1.5477                 1.4564
 IR Inten    --     16.9096                 2.6243                 6.2412

                     55                     56                     57
                      A                      A                      A
 Frequencies --   1363.6678              1371.7136              1375.1340
 Red. masses --      3.1568                 1.4416                 1.2966
 Frc consts  --      3.4587                 1.5981                 1.4446
 IR Inten    --      7.7633                12.7360                 9.5032

                     58                     59                     60
                      A                      A                      A
 Frequencies --   1393.5540              1421.8280              1442.6154
 Red. masses --      1.3825                 1.2419                 1.3718
 Frc consts  --      1.5819                 1.4792                 1.6820
 IR Inten    --      2.1373                 3.6950                11.3086

                     61                     62                     63
                      A                      A                      A
 Frequencies --   1478.7452              1493.0666              1502.1407
 Red. masses --      1.0997                 1.0950                 1.5507
 Frc consts  --      1.4168                 1.4382                 2.0615
 IR Inten    --      6.9924                 3.2374                10.1921

                     64                     65                     66
                      A                      A                      A
 Frequencies --   1510.8104              1519.9827              1535.7940
 Red. masses --      1.3929                 1.0470                 1.0477
 Frc consts  --      1.8732                 1.4252                 1.4560
 IR Inten    --      8.6896                 4.9428                 7.3902

                     67                     68                     69
                      A                      A                      A
 Frequencies --   1549.4472              1646.1515              1668.1306
 Red. masses --      2.2199                 5.4902                 5.5143
 Frc consts  --      3.1401                 8.7656                 9.0406
 IR Inten    --     10.0703                 1.1150                 3.8527

                     70                     71                     72
                      A                      A                      A
 Frequencies --   1700.8106              3035.2811              3047.0461
 Red. masses --      1.0911                 1.0830                 1.0406
 Frc consts  --      1.8596                 5.8787                 5.6923
 IR Inten    --     22.9079                16.1915                19.8111

                     73                     74                     75
                      A                      A                      A
 Frequencies --   3052.5372              3076.0232              3089.1063
 Red. masses --      1.0665                 1.0585                 1.0614
 Frc consts  --      5.8551                 5.9011                 5.9678
 IR Inten    --     20.3540                22.3437                 2.1323

                     76                     77                     78
                      A                      A                      A
 Frequencies --   3109.3768              3114.6144              3134.5564
 Red. masses --      1.0996                 1.0974                 1.1059
 Frc consts  --      6.2640                 6.2721                 6.4018
 IR Inten    --     30.2787                 2.0327                12.3642

                     79                     80                     81
                      A                      A                      A
 Frequencies --   3143.1143              3157.3841              3167.8191
 Red. masses --      1.1010                 1.1045                 1.0873
 Frc consts  --      6.4086                 6.4876                 6.4289
 IR Inten    --     23.7504                 3.6411                10.4929

                     82                     83                     84
                      A                      A                      A
 Frequencies --   3183.8385              3194.1636              3206.9722
 Red. masses --      1.0865                 1.0916                 1.0957
 Frc consts  --      6.4892                 6.5617                 6.6394
 IR Inten    --      0.9794                28.6201                24.2874

                     85                     86                     87
                      A                      A                      A
 Frequencies --   3217.4140              3461.6157              3547.3293
 Red. masses --      1.0946                 1.0491                 1.0924
 Frc consts  --      6.6758                 7.4070                 8.0991
 IR Inten    --      5.0678                 0.4006                 0.1209

 - Thermochemistry -
 -------------------
 Temperature   298.150 Kelvin.  Pressure   1.00000 Atm.
 Atom     1 has atomic number  6 and mass  12.00000

 Molecular mass:   211.10309 amu.
 Principal axes and moments of inertia in atomic units:
                           1         2         3
     Eigenvalues --  2049.779944406.841344943.64897
           X            0.99985  -0.01517  -0.00788
           Y            0.01491   0.99938  -0.03184
           Z            0.00835   0.03172   0.99946
 This molecule is an asymmetric top.
 Rotational symmetry number  1.
 Warning -- assumption of classical behavior for rotation
           may cause significant error
 Rotational temperatures (Kelvin)      0.04226     0.01965     0.01752
 Rotational constants (GHZ):           0.88046     0.40953     0.36506
 Zero-point vibrational energy     698864.2 (Joules/Mol)
                                  167.03256 (Kcal/Mol)
 Warning -- explicit consideration of  22 degrees of freedom as
           vibrations may cause significant error
 Vibrational temperatures:     43.62    58.03    81.18   112.66   136.98
          (Kelvin)            201.30   247.64   269.89   364.48   385.48
                              418.42   441.76   452.80   507.13   562.57
                              602.29   608.45   679.16   729.38   743.61
                              839.93   869.26   918.08  1022.42  1031.49
                             1108.53  1114.18  1187.67  1226.58  1245.24
                             1294.30  1320.69  1346.35  1362.35  1392.53
                             1399.48  1435.74  1472.45  1473.91  1482.33
                             1512.42  1528.31  1548.82  1586.24  1598.69
                             1666.78  1717.44  1751.71  1766.36  1776.59
                             1791.76  1811.97  1868.67  1894.32  1962.01
                             1973.59  1978.51  2005.01  2045.69  2075.60
                             2127.58  2148.19  2161.25  2173.72  2186.92
                             2209.67  2229.31  2368.44  2400.07  2447.09
                             4367.09  4384.02  4391.92  4425.71  4444.54
                             4473.70  4481.24  4509.93  4522.24  4542.77
                             4557.79  4580.83  4595.69  4614.12  4629.14
                             4980.49  5103.82

 Zero-point correction=                           0.266183 (Hartree/Particle)
 Thermal correction to Energy=                    0.280880
 Thermal correction to Enthalpy=                  0.281824
 Thermal correction to Gibbs Free Energy=         0.223422
 Sum of electronic and zero-point Energies=           -957.318785
 Sum of electronic and thermal Energies=              -957.304088
 Sum of electronic and thermal Enthalpies=            -957.303144
 Sum of electronic and thermal Free Energies=         -957.361546

                     E (Thermal)             CV                S
                      KCal/Mol        Cal/Mol-Kelvin    Cal/Mol-Kelvin
 Total                  176.255             55.913            122.918
 Electronic               0.000              0.000              0.000
 Translational            0.889              2.981             41.945
 Rotational               0.889              2.981             32.168
 Vibrational            174.477             49.951             48.804
 Vibration     1          0.594              1.984              5.809
 Vibration     2          0.594              1.981              5.243
 Vibration     3          0.596              1.975              4.579
 Vibration     4          0.600              1.964              3.933
 Vibration     5          0.603              1.953              3.550
 Vibration     6          0.615              1.913              2.805
 Vibration     7          0.626              1.877              2.412
 Vibration     8          0.632              1.857              2.252
 Vibration     9          0.664              1.757              1.707
 Vibration    10          0.673              1.732              1.610
 Vibration    11          0.687              1.691              1.469
 Vibration    12          0.697              1.660              1.378
 Vibration    13          0.702              1.646              1.337
 Vibration    14          0.729              1.570              1.155
 Vibration    15          0.759              1.489              0.996
 Vibration    16          0.781              1.430              0.897
 Vibration    17          0.785              1.420              0.882
 Vibration    18          0.829              1.312              0.732
 Vibration    19          0.862              1.235              0.641
 Vibration    20          0.872              1.213              0.617
 Vibration    21          0.941              1.066              0.478
 Vibration    22          0.963              1.023              0.443

 Optimization completed.
    -- Stationary point found.
 Normal termination of Gaussian 16 at Thu Dec 10 11:18:18 2020.

 ----------------------------------------------------------------------
 # B3LYP/6-311++G(d,p) empiricaldispersion=gd3bj scf=xqc pop=npa geom=c
 heck
 ----------------------------------------------------------------------

 --------------------------------------
 CID_81188268_JID_4945_Energie_neutraal
 --------------------------------------
 Structure from the checkpoint file:  "JID_4945.chk"
 Charge =  0 Multiplicity = 1

 SCF Done:  E(RB3LYP) =  -957.776396683     A.U. after   16 cycles
 Normal termination of Gaussian 16 at Thu Dec 10 11:22:23 2020.

 ----------------------------------------------------------------------
 # B3LYP/6-311++G(d,p) empiricaldispersion=gd3bj scf=xqc pop=npa geom=c
 heck
 ----------------------------------------------------------------------

 ------------------------------------
 CID_81188268_JID_4945_Energie_kation
 ------------------------------------
 Structure from the checkpoint file:  "JID_4945.chk"
 Charge =  1 Multiplicity = 2

 SCF Done:  E(UB3LYP) =  -957.479255488     A.U. after   29 cycles
 Normal termination of Gaussian 16 at Thu Dec 10 11:33:42 2020.
 Gaussian 16:  ES64L-G16RevA.03 25-Dec-2016

 ----------------------------------------------------------------------
 # B3LYP/6-311++G(d,p) empiricaldispersion=gd3bj scf=xqc pop=npa geom=c
 heck
 ----------------------------------------------------------------------

 -----------------------------------
 CID_81188268_JID_4945_Energie_anion
 -----------------------------------
 Structure from the checkpoint file:  "JID_4945.chk"
 Charge = -1 Multiplicity = 2

                         Standard orientation:
 ---------------------------------------------------------------------
 Center     Atomic      Atomic             Coordinates (Angstroms)
 Number     Number       Type             X           Y           Z
 ---------------------------------------------------------------------
      1          6           0       -2.618550    1.467389    1.435834
      2          6           0       -2.312218    1.537449   -0.062384
      3          6           0       -1.106427    0.659328   -0.450162
      4         16           0       -1.485917   -1.144510   -0.202206
      5          8           0       -0.886479   -1.925792   -1.362562
      6          6           0       -0.414480   -1.470027    1.283827
      7          6           0        1.022952   -1.831601    0.893360
      8          6           0        1.832866   -0.668231    0.368373
      9          6           0        2.392903    0.263126    1.251749
     10          6           0        3.093419    1.370250    0.772911
     11          6           0        3.249149    1.555967   -0.602084
     12          6           0        2.701023    0.628856   -1.489697
     13          6           0        1.996169   -0.474790   -1.008754
     14          7           0       -3.539796    1.266290   -0.815383
     15          1           0       -2.942445    0.459673    1.725922
     16          1           0       -3.427456    2.159437    1.684387
     17          1           0       -1.735733    1.724577    2.031819
     18          1           0       -2.020625    2.570031   -0.297880
     19          1           0       -0.898791    0.723331   -1.522994
     20          1           0       -0.199736    0.941791    0.088341
     21          1           0       -0.474123   -0.592698    1.934848
     22          1           0       -0.889005   -2.314028    1.795008
     23          1           0        1.506365   -2.255836    1.782349
     24          1           0        0.974112   -2.622102    0.138537
     25          1           0        2.278651    0.118972    2.324392
     26          1           0        3.522285    2.083378    1.471736
     27          1           0        3.796360    2.416098   -0.977681
     28          1           0        2.817838    0.767001   -2.561195
     29          1           0        1.527593   -1.173974   -1.694111
     30          1           0       -3.352960    1.305312   -1.816582
     31          1           0       -3.858095    0.317213   -0.621255
 ---------------------------------------------------------------------

 SCF Done:  E(UB3LYP) =  -957.765750183     A.U. after   33 cycles
 SCF Done:  E(UB3LYP) =  -957.765750183     a.u. after    1 cycles

 The electronic state is 2-A.
 Alpha  occ. eigenvalues --  -88.84749 -18.98716 -14.21005 -10.12205 -10.10745
 Alpha  occ. eigenvalues --  -10.10059 -10.08618 -10.08505 -10.08102 -10.07981
 Alpha  occ. eigenvalues --  -10.07927 -10.07657 -10.07399 -10.07220  -7.92508
 Alpha  occ. eigenvalues --   -5.88781  -5.88640  -5.88089  -0.91307  -0.80987
 Alpha  occ. eigenvalues --   -0.76630  -0.71374  -0.68289  -0.65139  -0.65025
 Alpha  occ. eigenvalues --   -0.62323  -0.57435  -0.52374  -0.51206  -0.48918
 Alpha  occ. eigenvalues --   -0.47479  -0.42013  -0.41422  -0.38751  -0.37964
 Alpha  occ. eigenvalues --   -0.37849  -0.36230  -0.35511  -0.34232  -0.33009
 Alpha  occ. eigenvalues --   -0.32671  -0.32037  -0.31148  -0.29233  -0.28958
 Alpha  occ. eigenvalues --   -0.27954  -0.27364  -0.27131  -0.25774  -0.25591
 Alpha  occ. eigenvalues --   -0.24391  -0.24107  -0.17862  -0.16599  -0.16123
 Alpha  occ. eigenvalues --   -0.15426  -0.13376   0.04099
 Alpha virt. eigenvalues --    0.06178   0.06587   0.07253   0.07777   0.08095
 Alpha virt. eigenvalues --    0.08113   0.08617   0.09156   0.09600   0.10184
 Alpha virt. eigenvalues --    0.10696   0.11383   0.11807   0.12444   0.12678

  Beta  occ. eigenvalues --  -88.84746 -18.98713 -14.20990 -10.12195 -10.10713
  Beta  occ. eigenvalues --  -10.10050 -10.08607 -10.08493 -10.08097 -10.07962
  Beta  occ. eigenvalues --  -10.07908 -10.07631 -10.07391 -10.07189  -7.92505
  Beta  occ. eigenvalues --   -5.88778  -5.88638  -5.88083  -0.91300  -0.80958
  Beta  occ. eigenvalues --   -0.76594  -0.71334  -0.68256  -0.65098  -0.64981
  Beta  occ. eigenvalues --   -0.62280  -0.57396  -0.52319  -0.51169  -0.48872
  Beta  occ. eigenvalues --   -0.47429  -0.41961  -0.41376  -0.38716  -0.37925
  Beta  occ. eigenvalues --   -0.37821  -0.36199  -0.35470  -0.34198  -0.32970
  Beta  occ. eigenvalues --   -0.32636  -0.32008  -0.31127  -0.29190  -0.28923
  Beta  occ. eigenvalues --   -0.27921  -0.27335  -0.27097  -0.25738  -0.25555
  Beta  occ. eigenvalues --   -0.24356  -0.24076  -0.17843  -0.16568  -0.16078
  Beta  occ. eigenvalues --   -0.15372  -0.13349
  Beta virt. eigenvalues --    0.06274   0.06928   0.07131   0.07841   0.07874
  Beta virt. eigenvalues --    0.08307   0.08644   0.08992   0.09674   0.09907
  Beta virt. eigenvalues --    0.10686   0.11178   0.11604   0.11991   0.12652

 Mulliken charges and spin densities:
               1          2
     1  C    0.752061  -1.356376
     2  C   -0.648604   0.128028
     3  C   -0.665775   0.219308
     4  S    0.920712  -0.165229
     5  O   -0.443019   0.005818
     6  C   -0.062424  -0.494123
     7  C    1.288101  -2.118069
     8  C   -0.262155   0.965305
     9  C   -0.404295   0.246351
    10  C    0.378670  -0.581941
    11  C    1.102108  -1.455345
    12  C   -0.502533   0.250604
    13  C   -0.771995   0.603200
    14  N   -0.272794   0.039986
    15  H   -0.194644   0.350222
    16  H   -0.040844   0.211136
    17  H   -0.303763   0.474915
    18  H   -0.272120   0.488693
    19  H    0.126236   0.116889
    20  H    0.895688  -0.740124
    21  H    0.112271   0.033870
    22  H   -0.318352   0.565316
    23  H   -0.366519   0.548005
    24  H    0.200989   0.010355
    25  H   -0.749272   0.940266
    26  H   -0.692542   0.881432
    27  H   -0.185714   0.335235
    28  H   -0.100654   0.270795
    29  H    0.219966   0.019095
    30  H    0.061888   0.170121
    31  H    0.199328   0.036260
 Sum of Mulliken charges =  -1.00000   1.00000

 Dipole moment (field-independent basis, Debye):
    X=             -1.5884    Y=             -1.4775    Z=             -4.4047  Tot=              4.9099
 Quadrupole moment (field-independent basis, Debye-Ang):
   XX=           -155.4482   YY=           -143.3305   ZZ=           -142.8436
   XY=             -2.2083   XZ=             -6.9985   YZ=             -3.6846

 Summary of Natural Population Analysis:

                                       Natural Population
                Natural  -----------------------------------------------
    Atom  No    Charge         Core      Valence    Rydberg      Total
 -----------------------------------------------------------------------
      C    1   -0.29237      0.99964     2.28572    0.00701     3.29237
      C    2   -0.02414      0.99961     2.01153    0.01300     3.02414
      C    3   -0.28152      0.99956     2.26992    0.01205     3.28152
      S    4    0.56410      4.99945     2.38240    0.05405     7.43590
      O    5   -0.48640      0.99993     3.48097    0.00550     4.48640
      C    6   -0.26402      0.99958     2.25277    0.01167     3.26402
      C    7   -0.21147      0.99958     2.19950    0.01239     3.21147
      C    8   -0.02182      0.99950     2.00977    0.01256     3.02182
      C    9   -0.10114      0.99950     2.09051    0.01113     3.10114
      C   10   -0.09765      0.99956     2.08745    0.01064     3.09765
      C   11   -0.10397      0.99956     2.09416    0.01026     3.10397
      C   12   -0.10292      0.99956     2.09328    0.01009     3.10292
      C   13   -0.10265      0.99950     2.09416    0.00899     3.10265
      N   14   -0.42058      0.99977     2.91138    0.00943     3.92058
      H   15    0.09569      0.00000     0.40266    0.00165     0.40431
      H   16    0.10620      0.00000     0.39274    0.00106     0.39380
      H   17    0.10488      0.00000     0.39357    0.00156     0.39512
      H   18    0.09585      0.00000     0.40237    0.00178     0.40415
      H   19    0.11312      0.00000     0.38549    0.00139     0.38688
      H   20    0.11655      0.00000     0.38064    0.00281     0.38345
      H   21    0.11058      0.00000     0.38648    0.00294     0.38942
      H   22    0.10864      0.00000     0.38930    0.00206     0.39136
      H   23    0.11107      0.00000     0.38740    0.00154     0.38893
      H   24    0.11480      0.00000     0.38387    0.00133     0.38520
      H   25    0.10466      0.00000     0.39276    0.00258     0.39534
      H   26    0.10340      0.00000     0.39493    0.00167     0.39660
      H   27    0.10065      0.00000     0.39836    0.00099     0.39935
      H   28    0.09897      0.00000     0.40023    0.00079     0.40103
      H   29    0.11359      0.00000     0.38510    0.00131     0.38641
      H   30    0.17449      0.00000     0.32380    0.00171     0.32551
      H   31    0.17343      0.00000     0.32417    0.00240     0.32657
 =======================================================================
   * Total *    0.00000     17.99430    38.78739    0.21832    57.00000

 Normal termination of Gaussian 16 at Thu Dec 10 11:44:53 2020.
