 Gaussian 16, Revision A.03,

 -----------------------------------------------------------
 # opt freq B3LYP/6-31G(d) empiricaldispersion=gd3bj scf=xqc
 -----------------------------------------------------------

 -------------------------------
 CID_116331375_JID_4567_neutraal
 -------------------------------
 Symbolic Z-matrix:
 Charge =  0 Multiplicity = 1

 SCF Done:  E(RB3LYP) =  -632.015768448     A.U. after   14 cycles
 SCF Done:  E(RB3LYP) =  -632.016576529     A.U. after   12 cycles
 SCF Done:  E(RB3LYP) =  -631.986268437     A.U. after   13 cycles
 SCF Done:  E(RB3LYP) =  -632.014804244     A.U. after   12 cycles
 SCF Done:  E(RB3LYP) =  -632.016954994     A.U. after   10 cycles
 SCF Done:  E(RB3LYP) =  -632.017850633     A.U. after   12 cycles
 SCF Done:  E(RB3LYP) =  -632.017910416     A.U. after   12 cycles
 SCF Done:  E(RB3LYP) =  -632.018950133     A.U. after   12 cycles
 SCF Done:  E(RB3LYP) =  -632.019117372     A.U. after   10 cycles
 SCF Done:  E(RB3LYP) =  -632.019161396     A.U. after   10 cycles
 SCF Done:  E(RB3LYP) =  -632.019234821     A.U. after   10 cycles
 SCF Done:  E(RB3LYP) =  -632.019238442     A.U. after    8 cycles
 SCF Done:  E(RB3LYP) =  -632.019239667     A.U. after    8 cycles
 SCF Done:  E(RB3LYP) =  -632.019240063     A.U. after    7 cycles
 SCF Done:  E(RB3LYP) =  -632.019240180     A.U. after    7 cycles
 SCF Done:  E(RB3LYP) =  -632.019240259     A.U. after    7 cycles
 Optimization completed.
    -- Stationary point found.
 Normal termination of Gaussian 16 at Thu Dec 10 10:10:24 2020.

 --------------------------------------------------------------------
 #N Geom=AllCheck Guess=TCheck SCRF=Check GenChk RB3LYP/6-31G(d) Freq
 --------------------------------------------------------------------

 Structure from the checkpoint file:  "JID_4567.chk"
 -------------------------------
 CID_116331375_JID_4567_neutraal
 -------------------------------
 Charge =  0 Multiplicity = 1

 SCF Done:  E(RB3LYP) =  -632.019240258     A.U. after    1 cycles

  Exact polarizability: 142.561  -6.022 136.007  -0.784  -4.696  94.285
 Approx polarizability: 192.132  -1.563 191.553  -3.701 -12.576 142.763

                      1                      2                      3
                      A                      A                      A
 Frequencies --     37.3956                46.8314                62.2582
 Red. masses --      3.5029                 3.2220                 3.1319
 Frc consts  --      0.0029                 0.0042                 0.0072
 IR Inten    --      0.3540                 1.2932                 0.1364

                      4                      5                      6
                      A                      A                      A
 Frequencies --     84.4357               113.6250               118.6428
 Red. masses --      3.9459                 2.7130                 4.0627
 Frc consts  --      0.0166                 0.0206                 0.0337
 IR Inten    --      3.3287                 4.5841                 2.6064

                      7                      8                      9
                      A                      A                      A
 Frequencies --    135.2461               160.1836               217.6645
 Red. masses --      3.6533                 3.7505                 1.5937
 Frc consts  --      0.0394                 0.0567                 0.0445
 IR Inten    --      1.6863                 1.9885                 2.5920

                     10                     11                     12
                      A                      A                      A
 Frequencies --    247.8063               257.0348               290.6660
 Red. masses --      3.3340                 1.5290                 2.0319
 Frc consts  --      0.1206                 0.0595                 0.1011
 IR Inten    --      1.9767                 2.2834                 2.4370

                     13                     14                     15
                      A                      A                      A
 Frequencies --    308.9475               316.2666               354.5705
 Red. masses --      1.9287                 2.1200                 2.0312
 Frc consts  --      0.1085                 0.1249                 0.1505
 IR Inten    --      3.2555                 4.0242                 3.4921

                     16                     17                     18
                      A                      A                      A
 Frequencies --    379.6848               424.0446               467.6188
 Red. masses --      2.0165                 2.8177                 2.7197
 Frc consts  --      0.1713                 0.2985                 0.3504
 IR Inten    --      0.2592                 1.9613                 3.2347

                     19                     20                     21
                      A                      A                      A
 Frequencies --    495.5788               624.8242               627.0918
 Red. masses --      1.9330                 2.1562                 4.0379
 Frc consts  --      0.2797                 0.4960                 0.9356
 IR Inten    --     12.5735                 1.8033                 3.7627

                     22                     23                     24
                      A                      A                      A
 Frequencies --    659.2230               694.8444               717.1914
 Red. masses --      3.6967                 2.0548                 1.2863
 Frc consts  --      0.9465                 0.5845                 0.3898
 IR Inten    --      6.0817                48.7172                28.1326

                     25                     26                     27
                      A                      A                      A
 Frequencies --    737.3969               794.8080               802.6883
 Red. masses --      3.0138                 1.9115                 1.3530
 Frc consts  --      0.9655                 0.7115                 0.5136
 IR Inten    --      6.1860                32.7302                34.8866

                     28                     29                     30
                      A                      A                      A
 Frequencies --    845.1316               862.2168               879.8523
 Red. masses --      1.1841                 1.9554                 2.3425
 Frc consts  --      0.4983                 0.8565                 1.0684
 IR Inten    --     43.3878                 7.6025                 3.1488

                     31                     32                     33
                      A                      A                      A
 Frequencies --    926.2043               944.4230               957.4312
 Red. masses --      1.9078                 5.6643                 2.1702
 Frc consts  --      0.9643                 2.9767                 1.1721
 IR Inten    --     11.2156                 1.2005                 1.9128

                     34                     35                     36
                      A                      A                      A
 Frequencies --    987.2253               998.7765              1012.9746
 Red. masses --      2.1915                 2.0653                 1.8486
 Frc consts  --      1.2584                 1.2139                 1.1176
 IR Inten    --     15.8783                 5.4316                 0.8621

                     37                     38                     39
                      A                      A                      A
 Frequencies --   1026.4002              1071.1381              1097.4475
 Red. masses --      1.8315                 1.9065                 2.0310
 Frc consts  --      1.1368                 1.2888                 1.4412
 IR Inten    --      6.1976                 6.0074                13.1118

                     40                     41                     42
                      A                      A                      A
 Frequencies --   1119.6560              1138.4947              1145.4421
 Red. masses --      1.5433                 2.5610                 1.7208
 Frc consts  --      1.1399                 1.9558                 1.3302
 IR Inten    --     18.6500                19.3814                14.7525

                     43                     44                     45
                      A                      A                      A
 Frequencies --   1162.5923              1178.6664              1183.2838
 Red. masses --      3.8729                 1.9734                 1.6446
 Frc consts  --      3.0842                 1.6153                 1.3567
 IR Inten    --    117.4778                13.5222                19.3287

                     46                     47                     48
                      A                      A                      A
 Frequencies --   1192.9801              1198.2194              1227.5633
 Red. masses --      2.8093                 1.4856                 1.4944
 Frc consts  --      2.3557                 1.2566                 1.3268
 IR Inten    --      5.4424                13.2346                32.1893

                     49                     50                     51
                      A                      A                      A
 Frequencies --   1248.9843              1278.2648              1287.9694
 Red. masses --      1.7454                 1.1825                 1.3741
 Frc consts  --      1.6042                 1.1384                 1.3430
 IR Inten    --     11.1035                 6.3460                15.8250

                     52                     53                     54
                      A                      A                      A
 Frequencies --   1306.8636              1315.8547              1354.0079
 Red. masses --      1.5151                 1.2727                 1.3360
 Frc consts  --      1.5246                 1.2984                 1.4431
 IR Inten    --     17.9977                 3.8142                 9.1552

                     55                     56                     57
                      A                      A                      A
 Frequencies --   1378.4104              1402.9677              1409.7130
 Red. masses --      1.6061                 1.6060                 1.4138
 Frc consts  --      1.7980                 1.8625                 1.6553
 IR Inten    --     35.0553                 2.1741                11.5262

                     58                     59                     60
                      A                      A                      A
 Frequencies --   1411.2710              1430.7970              1438.2630
 Red. masses --      1.3156                 1.6865                 1.3011
 Frc consts  --      1.5438                 2.0342                 1.5857
 IR Inten    --     20.6455                17.3542                18.5267

                     61                     62                     63
                      A                      A                      A
 Frequencies --   1451.5083              1476.6172              1503.0574
 Red. masses --      1.3868                 3.1709                 1.1530
 Frc consts  --      1.7215                 4.0735                 1.5347
 IR Inten    --      9.6997                43.5353                 1.1254

                     64                     65                     66
                      A                      A                      A
 Frequencies --   1506.2199              1511.4991              1514.7831
 Red. masses --      1.1489                 1.2751                 1.0512
 Frc consts  --      1.5357                 1.7163                 1.4212
 IR Inten    --      3.5760                 4.9603                 5.1986

                     67                     68                     69
                      A                      A                      A
 Frequencies --   1516.5830              1521.4922              1524.0260
 Red. masses --      1.1641                 2.2124                 1.2961
 Frc consts  --      1.5775                 3.0175                 1.7736
 IR Inten    --      7.5905                 3.0297                 1.4752

                     70                     71                     72
                      A                      A                      A
 Frequencies --   1524.7694              1531.9412              1540.7747
 Red. masses --      1.0612                 1.0638                 1.0633
 Frc consts  --      1.4537                 1.4709                 1.4872
 IR Inten    --     10.8535                 4.5881                 2.4181

                     73                     74                     75
                      A                      A                      A
 Frequencies --   1560.8426              1596.0651              2946.1368
 Red. masses --      1.0873                 3.7836                 1.0732
 Frc consts  --      1.5606                 5.6788                 5.4885
 IR Inten    --      0.9593                44.2509                98.8450

                     76                     77                     78
                      A                      A                      A
 Frequencies --   2975.2770              2984.0594              2999.9113
 Red. masses --      1.0832                 1.0524                 1.0395
 Frc consts  --      5.6498                 5.5214                 5.5115
 IR Inten    --     43.2829                30.1560                91.4488

                     79                     80                     81
                      A                      A                      A
 Frequencies --   3012.2209              3023.5670              3045.1041
 Red. masses --      1.1057                 1.0719                 1.1053
 Frc consts  --      5.9109                 5.7736                 6.0383
 IR Inten    --     56.3115                33.8430                56.0575

                     82                     83                     84
                      A                      A                      A
 Frequencies --   3046.8496              3050.6213              3086.5634
 Red. masses --      1.0547                 1.0495                 1.0891
 Frc consts  --      5.7686                 5.7545                 6.1129
 IR Inten    --     30.9983                31.9630                33.2047

                     85                     86                     87
                      A                      A                      A
 Frequencies --   3110.9178              3113.8601              3117.6978
 Red. masses --      1.0909                 1.0945                 1.1028
 Frc consts  --      6.2206                 6.2525                 6.3158
 IR Inten    --     28.4802                14.6984                29.7906

                     88                     89                     90
                      A                      A                      A
 Frequencies --   3121.0770              3140.6381              3252.1816
 Red. masses --      1.1022                 1.0976                 1.0917
 Frc consts  --      6.3260                 6.3788                 6.8029
 IR Inten    --     29.7620                24.8078                13.2228

                     91                     92                     93
                      A                      A                      A
 Frequencies --   3284.7740              3507.3291              3541.3011
 Red. masses --      1.1030                 1.0842                 1.0754
 Frc consts  --      7.0119                 7.8581                 7.9463
 IR Inten    --      9.8961               417.5186                 0.5423

 - Thermochemistry -
 -------------------
 Temperature   298.150 Kelvin.  Pressure   1.00000 Atm.
 Atom     1 has atomic number  6 and mass  12.00000

 Molecular mass:   197.15281 amu.
 Principal axes and moments of inertia in atomic units:
                           1         2         3
     Eigenvalues --  1962.626853513.868114874.36922
           X            1.00000   0.00112   0.00197
           Y           -0.00111   1.00000  -0.00147
           Z           -0.00197   0.00146   1.00000
 This molecule is an asymmetric top.
 Rotational symmetry number  1.
 Warning -- assumption of classical behavior for rotation
           may cause significant error
 Rotational temperatures (Kelvin)      0.04413     0.02465     0.01777
 Rotational constants (GHZ):           0.91955     0.51361     0.37025
 Zero-point vibrational energy     773004.9 (Joules/Mol)
                                  184.75260 (Kcal/Mol)
 Warning -- explicit consideration of  19 degrees of freedom as
           vibrations may cause significant error
 Vibrational temperatures:     53.80    67.38    89.58   121.48   163.48
          (Kelvin)            170.70   194.59   230.47   313.17   356.54
                              369.82   418.20   444.51   455.04   510.15
                              546.28   610.11   672.80   713.03   898.98
                              902.25   948.47   999.73  1031.88  1060.95
                             1143.55  1154.89  1215.96  1240.54  1265.91
                             1332.60  1358.81  1377.53  1420.40  1437.02
                             1457.44  1476.76  1541.13  1578.98  1610.94
                             1638.04  1648.04  1672.71  1695.84  1702.48
                             1716.43  1723.97  1766.19  1797.01  1839.14
                             1853.10  1880.29  1893.22  1948.12  1983.23
                             2018.56  2028.26  2030.50  2058.60  2069.34
                             2088.40  2124.52  2162.56  2167.11  2174.71
                             2179.43  2182.02  2189.09  2192.73  2193.80
                             2204.12  2216.83  2245.70  2296.38  4238.83
                             4280.76  4293.40  4316.20  4333.91  4350.24
                             4381.23  4383.74  4389.16  4440.88  4475.92
                             4480.15  4485.67  4490.53  4518.68  4679.16
                             4726.06  5046.26  5095.14

 Zero-point correction=                           0.294422 (Hartree/Particle)
 Thermal correction to Energy=                    0.309192
 Thermal correction to Enthalpy=                  0.310136
 Thermal correction to Gibbs Free Energy=         0.251899
 Sum of electronic and zero-point Energies=           -631.724818
 Sum of electronic and thermal Energies=              -631.710049
 Sum of electronic and thermal Enthalpies=            -631.709104
 Sum of electronic and thermal Free Energies=         -631.767341

                     E (Thermal)             CV                S
                      KCal/Mol        Cal/Mol-Kelvin    Cal/Mol-Kelvin
 Total                  194.021             55.085            122.569
 Electronic               0.000              0.000              0.000
 Translational            0.889              2.981             41.741
 Rotational               0.889              2.981             31.886
 Vibrational            192.243             49.123             48.942
 Vibration     1          0.594              1.982              5.392
 Vibration     2          0.595              1.979              4.947
 Vibration     3          0.597              1.972              4.384
 Vibration     4          0.601              1.960              3.785
 Vibration     5          0.607              1.938              3.206
 Vibration     6          0.609              1.934              3.122
 Vibration     7          0.613              1.918              2.870
 Vibration     8          0.622              1.891              2.548
 Vibration     9          0.646              1.814              1.978
 Vibration    10          0.661              1.766              1.746
 Vibration    11          0.667              1.751              1.682
 Vibration    12          0.687              1.691              1.470
 Vibration    13          0.698              1.657              1.368
 Vibration    14          0.703              1.643              1.329
 Vibration    15          0.730              1.566              1.146
 Vibration    16          0.750              1.513              1.040
 Vibration    17          0.786              1.418              0.878
 Vibration    18          0.825              1.322              0.744
 Vibration    19          0.851              1.260              0.669

                           ! Non-Optimized Parameters !
 Normal termination of Gaussian 16 at Thu Dec 10 10:20:58 2020.

 ----------------------------------------------------------------------
 # B3LYP/6-311++G(d,p) empiricaldispersion=gd3bj scf=xqc pop=npa geom=c
 heck
 ----------------------------------------------------------------------

 ---------------------------------------
 CID_116331375_JID_4567_Energie_neutraal
 ---------------------------------------
 Structure from the checkpoint file:  "JID_4567.chk"
 Charge =  0 Multiplicity = 1

 SCF Done:  E(RB3LYP) =  -632.203440582     A.U. after   14 cycles
 Normal termination of Gaussian 16 at Thu Dec 10 10:25:19 2020.

 ----------------------------------------------------------------------
 # B3LYP/6-311++G(d,p) empiricaldispersion=gd3bj scf=xqc pop=npa geom=c
 heck
 ----------------------------------------------------------------------

 -------------------------------------
 CID_116331375_JID_4567_Energie_kation
 -------------------------------------
 Structure from the checkpoint file:  "JID_4567.chk"
 Charge =  1 Multiplicity = 2

 SCF Done:  E(UB3LYP) =  -631.923177532     A.U. after   20 cycles
 Normal termination of Gaussian 16 at Thu Dec 10 10:37:36 2020.
 Gaussian 16:  ES64L-G16RevA.03 25-Dec-2016

 ----------------------------------------------------------------------
 # B3LYP/6-311++G(d,p) empiricaldispersion=gd3bj scf=xqc pop=npa geom=c
 heck
 ----------------------------------------------------------------------

 ------------------------------------
 CID_116331375_JID_4567_Energie_anion
 ------------------------------------
 Structure from the checkpoint file:  "JID_4567.chk"
 Charge = -1 Multiplicity = 2

                         Standard orientation:
 ---------------------------------------------------------------------
 Center     Atomic      Atomic             Coordinates (Angstroms)
 Number     Number       Type             X           Y           Z
 ---------------------------------------------------------------------
      1          6           0        3.153366   -1.321522   -0.410868
      2          6           0        1.766532   -1.332733    0.237535
      3          6           0        1.617673   -0.232917    1.312861
      4          6           0        2.061670    1.168215    0.907994
      5          8           0        1.361890    1.597648   -0.251345
      6          6           0        1.648540    2.937057   -0.595772
      7          7           0        0.723958   -1.227488   -0.797427
      8          6           0       -0.358100   -2.209962   -0.730585
      9          6           0       -1.388426   -1.876287    0.358500
     10          6           0       -2.087776   -0.566399    0.160836
     11          7           0       -3.384011   -0.359411    0.339526
     12          6           0       -3.580553    0.980741    0.083507
     13          6           0       -2.393464    1.586480   -0.252092
     14          7           0       -1.446670    0.587547   -0.197497
     15          1           0        3.277768   -0.426427   -1.031091
     16          1           0        3.287708   -2.201430   -1.049795
     17          1           0        3.948563   -1.325492    0.342609
     18          1           0        1.648638   -2.296934    0.759607
     19          1           0        0.574438   -0.193701    1.640743
     20          1           0        2.215047   -0.514752    2.190977
     21          1           0        1.869001    1.865535    1.739893
     22          1           0        3.145537    1.195197    0.709851
     23          1           0        1.362297    3.631539    0.209370
     24          1           0        2.719330    3.076527   -0.811287
     25          1           0        1.070749    3.170732   -1.493377
     26          1           0        1.147886   -1.244951   -1.718754
     27          1           0       -0.862665   -2.209340   -1.703058
     28          1           0        0.019013   -3.234890   -0.555239
     29          1           0       -2.158645   -2.653198    0.383552
     30          1           0       -0.893297   -1.905605    1.340270
     31          1           0       -4.563270    1.427749    0.153715
     32          1           0       -2.138806    2.600235   -0.523063
     33          1           0       -0.454126    0.657450   -0.417862
 ---------------------------------------------------------------------

 SCF Done:  E(UB3LYP) =  -632.193272286     A.U. after   29 cycles

 The electronic state is 2-A.
 Alpha  occ. eigenvalues --  -19.03409 -14.25029 -14.20059 -14.18968 -10.12432
 Alpha  occ. eigenvalues --  -10.11791 -10.11530 -10.10578 -10.10476 -10.09557
 Alpha  occ. eigenvalues --  -10.08460 -10.08251 -10.06992 -10.05945  -0.94613
 Alpha  occ. eigenvalues --   -0.90847  -0.81551  -0.76235  -0.70254  -0.67703
 Alpha  occ. eigenvalues --   -0.63508  -0.61064  -0.58418  -0.54317  -0.52462
 Alpha  occ. eigenvalues --   -0.49827  -0.48430  -0.47136  -0.42617  -0.40430
 Alpha  occ. eigenvalues --   -0.40073  -0.38882  -0.37296  -0.36116  -0.35256
 Alpha  occ. eigenvalues --   -0.34273  -0.33738  -0.33025  -0.32416  -0.30104
 Alpha  occ. eigenvalues --   -0.29434  -0.29172  -0.28172  -0.27817  -0.27220
 Alpha  occ. eigenvalues --   -0.25059  -0.24635  -0.24077  -0.22204  -0.18221
 Alpha  occ. eigenvalues --   -0.17613  -0.16939  -0.13429  -0.12515   0.04141
 Alpha virt. eigenvalues --    0.06295   0.07047   0.07570   0.08469   0.08893
 Alpha virt. eigenvalues --    0.09291   0.09419   0.10206   0.10746   0.11385
 Alpha virt. eigenvalues --    0.11713   0.12045   0.12484   0.12753   0.13403

  Beta  occ. eigenvalues --  -19.03401 -14.25028 -14.20047 -14.18967 -10.12432
  Beta  occ. eigenvalues --  -10.11760 -10.11483 -10.10563 -10.10465 -10.09550
  Beta  occ. eigenvalues --  -10.08458 -10.08251 -10.06978 -10.05895  -0.94599
  Beta  occ. eigenvalues --   -0.90844  -0.81530  -0.76231  -0.70225  -0.67678
  Beta  occ. eigenvalues --   -0.63464  -0.61035  -0.58335  -0.54241  -0.52415
  Beta  occ. eigenvalues --   -0.49818  -0.48423  -0.47083  -0.42600  -0.40383
  Beta  occ. eigenvalues --   -0.39998  -0.38849  -0.37257  -0.36089  -0.35216
  Beta  occ. eigenvalues --   -0.34246  -0.33718  -0.33016  -0.32400  -0.30066
  Beta  occ. eigenvalues --   -0.29406  -0.29131  -0.28156  -0.27767  -0.27187
  Beta  occ. eigenvalues --   -0.25025  -0.24584  -0.24038  -0.22153  -0.18213
  Beta  occ. eigenvalues --   -0.17607  -0.16919  -0.13406  -0.12506
  Beta virt. eigenvalues --    0.06516   0.07132   0.07727   0.07987   0.08775
  Beta virt. eigenvalues --    0.09386   0.09781   0.10014   0.10670   0.10993
  Beta virt. eigenvalues --    0.11791   0.12008   0.12385   0.12780   0.12968

 Mulliken charges and spin densities:
               1          2
     1  C    2.035688  -2.752126
     2  C   -1.195310   1.168082
     3  C    0.229421  -0.442326
     4  C    0.182093  -0.572322
     5  O   -0.226868   0.078688
     6  C    0.628656  -0.916234
     7  N   -0.245655   0.058218
     8  C    0.006463  -0.343922
     9  C   -0.467679   0.327204
    10  C   -0.047167  -0.433098
    11  N   -0.123570   0.027008
    12  C    0.259616  -0.397099
    13  C   -0.269110   0.234341
    14  N   -0.276912   0.046479
    15  H   -0.137113   0.308179
    16  H   -0.495760   0.653112
    17  H   -0.390677   0.545260
    18  H   -0.005398   0.166755
    19  H    0.365099  -0.236014
    20  H   -0.624363   0.812878
    21  H   -0.200850   0.358515
    22  H    0.056450   0.119872
    23  H   -0.168458   0.310808
    24  H   -0.489585   0.629315
    25  H   -0.334438   0.465536
    26  H    0.161496   0.102517
    27  H   -0.009720   0.144716
    28  H   -0.172435   0.328309
    29  H    0.138893   0.043168
    30  H    0.031681   0.121804
    31  H    0.134131   0.015267
    32  H   -0.115993   0.255447
    33  H    0.767375  -0.228337
 Sum of Mulliken charges =  -1.00000   1.00000

 Dipole moment (field-independent basis, Debye):
    X=             -5.6434    Y=             -0.5597    Z=             -0.2614  Tot=              5.6771
 Quadrupole moment (field-independent basis, Debye-Ang):
   XX=           -166.9657   YY=           -137.9318   ZZ=           -120.8021
   XY=             -1.8497   XZ=              1.6489   YZ=              0.2523

 Summary of Natural Population Analysis:

                                       Natural Population
                Natural  -----------------------------------------------
    Atom  No    Charge         Core      Valence    Rydberg      Total
 -----------------------------------------------------------------------
      C    1   -0.29315      0.99964     2.28716    0.00635     3.29315
      C    2   -0.01006      0.99960     1.99635    0.01411     3.01006
      C    3   -0.20135      0.99959     2.19167    0.01008     3.20135
      C    4   -0.00775      0.99957     1.99596    0.01221     3.00775
      O    5   -0.30633      0.99988     3.29576    0.01069     4.30633
      C    6   -0.09571      0.99962     2.08687    0.00922     3.09571
      N    7   -0.35160      0.99972     2.83943    0.01245     3.85160
      C    8   -0.07977      0.99962     2.06876    0.01139     3.07977
      C    9   -0.21478      0.99958     2.20747    0.00773     3.21478
      C   10    0.18714      0.99962     1.79588    0.01735     2.81286
      N   11   -0.26795      0.99970     2.75822    0.01003     3.76795
      C   12   -0.04356      0.99959     2.03074    0.01323     3.04356
      C   13   -0.04471      0.99958     2.03268    0.01245     3.04471
      N   14   -0.28171      0.99964     2.77420    0.00787     3.78171
      H   15    0.10206      0.00000     0.39607    0.00186     0.39794
      H   16    0.10206      0.00000     0.39619    0.00175     0.39794
      H   17    0.10499      0.00000     0.39331    0.00169     0.39501
      H   18    0.08558      0.00000     0.41194    0.00247     0.41442
      H   19    0.09879      0.00000     0.39913    0.00208     0.40121
      H   20    0.10342      0.00000     0.39544    0.00115     0.39658
      H   21    0.08261      0.00000     0.41598    0.00140     0.41739
      H   22    0.08403      0.00000     0.41389    0.00208     0.41597
      H   23    0.07920      0.00000     0.41896    0.00184     0.42080
      H   24    0.08316      0.00000     0.41494    0.00189     0.41684
      H   25    0.08972      0.00000     0.40890    0.00138     0.41028
      H   26    0.17985      0.00000     0.31739    0.00276     0.32015
      H   27    0.09407      0.00000     0.40482    0.00111     0.40593
      H   28    0.08209      0.00000     0.41639    0.00152     0.41791
      H   29    0.11121      0.00000     0.38738    0.00141     0.38879
      H   30    0.10239      0.00000     0.39604    0.00158     0.39761
      H   31    0.09260      0.00000     0.40652    0.00088     0.40740
      H   32    0.10226      0.00000     0.39683    0.00092     0.39774
      H   33    0.23119      0.00000     0.26543    0.00338     0.26881
 =======================================================================
   * Total *    0.00000     13.99497    39.81671    0.18832    54.00000

 Normal termination of Gaussian 16 at Thu Dec 10 10:53:50 2020.
