 Gaussian 16, Revision A.03,

 -----------------------------------------------------------
 # opt freq B3LYP/6-31G(d) empiricaldispersion=gd3bj scf=xqc
 -----------------------------------------------------------

 -----------------------------
 CID_11029982_JID_332_neutraal
 -----------------------------
 Symbolic Z-matrix:
 Charge =  0 Multiplicity = 1

 SCF Done:  E(RB3LYP) =  -516.919731508     A.U. after   14 cycles
 SCF Done:  E(RB3LYP) =  -516.923549985     A.U. after   12 cycles
 SCF Done:  E(RB3LYP) =  -516.922259600     A.U. after   13 cycles
 SCF Done:  E(RB3LYP) =  -516.924215584     A.U. after   11 cycles
 SCF Done:  E(RB3LYP) =  -516.924300685     A.U. after   11 cycles
 SCF Done:  E(RB3LYP) =  -516.924354073     A.U. after   11 cycles
 SCF Done:  E(RB3LYP) =  -516.924356096     A.U. after   10 cycles
 SCF Done:  E(RB3LYP) =  -516.924363245     A.U. after    9 cycles
 SCF Done:  E(RB3LYP) =  -516.924364226     A.U. after    8 cycles
 SCF Done:  E(RB3LYP) =  -516.924364625     A.U. after    8 cycles
 SCF Done:  E(RB3LYP) =  -516.924364794     A.U. after    8 cycles
 SCF Done:  E(RB3LYP) =  -516.924364828     A.U. after    7 cycles
 Optimization completed.
    -- Stationary point found.
 Normal termination of Gaussian 16 at Tue Dec  8 10:23:59 2020.

 --------------------------------------------------------------------
 #N Geom=AllCheck Guess=TCheck SCRF=Check GenChk RB3LYP/6-31G(d) Freq
 --------------------------------------------------------------------

 Structure from the checkpoint file:  "JID_332.chk"
 -----------------------------
 CID_11029982_JID_332_neutraal
 -----------------------------
 Charge =  0 Multiplicity = 1

 SCF Done:  E(RB3LYP) =  -516.924364828     A.U. after    1 cycles

  Exact polarizability:  82.932  -1.054  82.812  -3.387   1.794  70.913
 Approx polarizability: 106.740   0.355 108.305  -7.450   5.476 116.243

                      1                      2                      3
                      A                      A                      A
 Frequencies --     37.3614                65.2861                76.1343
 Red. masses --      3.1501                 3.1400                 9.0974
 Frc consts  --      0.0026                 0.0079                 0.0311
 IR Inten    --      0.5272                 5.5389                 0.8256

                      4                      5                      6
                      A                      A                      A
 Frequencies --    169.9422               207.7816               213.3540
 Red. masses --      4.4273                 1.4308                 2.1418
 Frc consts  --      0.0753                 0.0364                 0.0574
 IR Inten    --      0.9676                 1.3363                 1.9053

                      7                      8                      9
                      A                      A                      A
 Frequencies --    257.5386               279.9468               297.4412
 Red. masses --      1.0259                 1.7448                 1.5345
 Frc consts  --      0.0401                 0.0806                 0.0800
 IR Inten    --      0.0924                 2.2756                 3.8546

                     10                     11                     12
                      A                      A                      A
 Frequencies --    331.0270               335.7481               353.6602
 Red. masses --      2.8951                 2.4867                 4.1065
 Frc consts  --      0.1869                 0.1652                 0.3026
 IR Inten    --     18.4414                 2.1990                 1.3949

                     13                     14                     15
                      A                      A                      A
 Frequencies --    403.0345               450.9743               477.1246
 Red. masses --      2.7025                 3.4371                 2.8356
 Frc consts  --      0.2586                 0.4119                 0.3803
 IR Inten    --      0.9662                24.3243                 3.6259

                     16                     17                     18
                      A                      A                      A
 Frequencies --    549.7582               581.2228               618.9731
 Red. masses --      2.4704                 1.3863                 1.6348
 Frc consts  --      0.4399                 0.2759                 0.3690
 IR Inten    --     29.0285                46.2635               173.9235

                     19                     20                     21
                      A                      A                      A
 Frequencies --    669.8657               717.2974               850.2967
 Red. masses --      3.6399                 2.5830                 2.3645
 Frc consts  --      0.9623                 0.7830                 1.0072
 IR Inten    --     25.5874                62.3211                24.1840

                     22                     23                     24
                      A                      A                      A
 Frequencies --    864.8951               920.8077               948.5214
 Red. masses --      3.6794                 1.8525                 2.2954
 Frc consts  --      1.6217                 0.9254                 1.2168
 IR Inten    --     27.5617                38.8859                 1.6429

                     25                     26                     27
                      A                      A                      A
 Frequencies --    953.1005               986.5964              1032.7406
 Red. masses --      1.6690                 2.3428                 1.3527
 Frc consts  --      0.8933                 1.3436                 0.8500
 IR Inten    --      5.6221                34.3083                 6.3302

                     28                     29                     30
                      A                      A                      A
 Frequencies --   1041.9956              1135.9172              1156.0142
 Red. masses --      1.4498                 2.5608                 1.7385
 Frc consts  --      0.9274                 1.9468                 1.3688
 IR Inten    --      5.1422                41.4643                28.5228

                     31                     32                     33
                      A                      A                      A
 Frequencies --   1165.9908              1185.1920              1201.1242
 Red. masses --      2.3092                 1.6727                 2.1294
 Frc consts  --      1.8497                 1.3844                 1.8100
 IR Inten    --    140.4725                68.7649                23.2317

                     34                     35                     36
                      A                      A                      A
 Frequencies --   1237.4766              1250.3348              1317.0885
 Red. masses --      2.3457                 2.1611                 1.5321
 Frc consts  --      2.1164                 1.9906                 1.5659
 IR Inten    --     29.9453                97.0988                10.5417

                     37                     38                     39
                      A                      A                      A
 Frequencies --   1345.5936              1395.8857              1413.5475
 Red. masses --      1.4179                 1.6165                 1.4452
 Frc consts  --      1.5126                 1.8558                 1.7013
 IR Inten    --     19.8682                62.6575                14.1800

                     40                     41                     42
                      A                      A                      A
 Frequencies --   1426.0743              1451.7696              1483.1347
 Red. masses --      1.4407                 1.3718                 1.1685
 Frc consts  --      1.7263                 1.7035                 1.5144
 IR Inten    --     33.4012                23.6661                 2.3941

                     43                     44                     45
                      A                      A                      A
 Frequencies --   1506.4559              1521.9902              1524.4429
 Red. masses --      1.0566                 1.0670                 1.0935
 Frc consts  --      1.4128                 1.4563                 1.4972
 IR Inten    --      3.9712                 5.0606                10.4602

                     46                     47                     48
                      A                      A                      A
 Frequencies --   1526.0173              1528.4646              1544.4305
 Red. masses --      1.1412                 1.0576                 1.0525
 Frc consts  --      1.5658                 1.4558                 1.4791
 IR Inten    --      3.4234                 1.6607                 5.0129

                     49                     50                     51
                      A                      A                      A
 Frequencies --   1548.0295              1836.0575              2989.2279
 Red. masses --      1.0834                 9.6403                 1.0550
 Frc consts  --      1.5296                19.1476                 5.5543
 IR Inten    --     15.1671               232.7577                74.2501

                     52                     53                     54
                      A                      A                      A
 Frequencies --   3050.2063              3068.2928              3089.0846
 Red. masses --      1.0354                 1.0351                 1.0798
 Frc consts  --      5.6758                 5.7415                 6.0711
 IR Inten    --     16.9672                12.6549                33.3827

                     55                     56                     57
                      A                      A                      A
 Frequencies --   3094.5647              3120.1375              3130.9586
 Red. masses --      1.0844                 1.1016                 1.1036
 Frc consts  --      6.1186                 6.3187                 6.3739
 IR Inten    --      8.8686                21.8752                30.8443

                     58                     59                     60
                      A                      A                      A
 Frequencies --   3134.6792              3139.4373              3148.5440
 Red. masses --      1.1033                 1.1025                 1.1031
 Frc consts  --      6.3875                 6.4024                 6.4431
 IR Inten    --      7.7863                36.4125                21.7951

                     61                     62                     63
                      A                      A                      A
 Frequencies --   3477.2348              3665.4151              3673.4201
 Red. masses --      1.0729                 1.0644                 1.0639
 Frc consts  --      7.6431                 8.4256                 8.4588
 IR Inten    --     13.1939                37.7414                44.2033

 - Thermochemistry -
 -------------------
 Temperature   298.150 Kelvin.  Pressure   1.00000 Atm.
 Atom     1 has atomic number  6 and mass  12.00000

 Molecular mass:   147.08954 amu.
 Principal axes and moments of inertia in atomic units:
                           1         2         3
     Eigenvalues --  1222.294331473.447142052.19154
           X            0.98875  -0.14930  -0.00903
           Y            0.14915   0.98870  -0.01520
           Z            0.01120   0.01368   0.99984
 This molecule is an asymmetric top.
 Rotational symmetry number  1.
 Warning -- assumption of classical behavior for rotation
           may cause significant error
 Rotational temperatures (Kelvin)      0.07086     0.05878     0.04221
 Rotational constants (GHZ):           1.47652     1.22484     0.87942
 Zero-point vibrational energy     521420.3 (Joules/Mol)
                                  124.62243 (Kcal/Mol)
 Warning -- explicit consideration of  18 degrees of freedom as
           vibrations may cause significant error
 Vibrational temperatures:     53.75    93.93   109.54   244.51   298.95
          (Kelvin)            306.97   370.54   402.78   427.95   476.27
                              483.07   508.84   579.88   648.85   686.48
                              790.98   836.25   890.56   963.79  1032.03
                             1223.39  1244.39  1324.84  1364.71  1371.30
                             1419.49  1485.88  1499.20  1634.33  1663.25
                             1677.60  1705.23  1728.15  1780.45  1798.95
                             1895.00  1936.01  2008.37  2033.78  2051.80
                             2088.77  2133.90  2167.45  2189.80  2193.33
                             2195.60  2199.12  2222.09  2227.27  2641.68
                             4300.83  4388.57  4414.59  4444.50  4452.39
                             4489.18  4504.75  4510.10  4516.95  4530.05
                             5002.97  5273.71  5285.23

 Zero-point correction=                           0.198598 (Hartree/Particle)
 Thermal correction to Energy=                    0.210166
 Thermal correction to Enthalpy=                  0.211110
 Thermal correction to Gibbs Free Energy=         0.161211
 Sum of electronic and zero-point Energies=           -516.725766
 Sum of electronic and thermal Energies=              -516.714199
 Sum of electronic and thermal Enthalpies=            -516.713255
 Sum of electronic and thermal Free Energies=         -516.763154

                     E (Thermal)             CV                S
                      KCal/Mol        Cal/Mol-Kelvin    Cal/Mol-Kelvin
 Total                  131.881             42.602            105.021
 Electronic               0.000              0.000              0.000
 Translational            0.889              2.981             40.868
 Rotational               0.889              2.981             29.692
 Vibrational            130.104             36.640             34.460
 Vibration     1          0.594              1.982              5.394
 Vibration     2          0.597              1.971              4.291
 Vibration     3          0.599              1.965              3.988
 Vibration     4          0.625              1.879              2.436
 Vibration     5          0.641              1.829              2.063
 Vibration     6          0.644              1.821              2.015
 Vibration     7          0.667              1.750              1.678
 Vibration     8          0.680              1.711              1.534
 Vibration     9          0.691              1.678              1.431
 Vibration    10          0.713              1.614              1.255
 Vibration    11          0.717              1.604              1.232
 Vibration    12          0.730              1.568              1.150
 Vibration    13          0.768              1.464              0.952
 Vibration    14          0.810              1.359              0.793
 Vibration    15          0.834              1.301              0.718
 Vibration    16          0.905              1.140              0.545
 Vibration    17          0.938              1.072              0.483
 Vibration    18          0.979              0.992              0.418

 Optimization completed.
    -- Stationary point found.
 Normal termination of Gaussian 16 at Tue Dec  8 10:28:31 2020.

 ----------------------------------------------------------------------
 # B3LYP/6-311++G(d,p) empiricaldispersion=gd3bj scf=xqc pop=npa geom=c
 heck
 ----------------------------------------------------------------------

 -------------------------------------
 CID_11029982_JID_332_Energie_neutraal
 -------------------------------------
 Structure from the checkpoint file:  "JID_332.chk"
 Charge =  0 Multiplicity = 1

 SCF Done:  E(RB3LYP) =  -517.098829059     A.U. after   14 cycles
 Normal termination of Gaussian 16 at Tue Dec  8 10:30:26 2020.

 ----------------------------------------------------------------------
 # B3LYP/6-311++G(d,p) empiricaldispersion=gd3bj scf=xqc pop=npa geom=c
 heck
 ----------------------------------------------------------------------

 -----------------------------------
 CID_11029982_JID_332_Energie_kation
 -----------------------------------
 Structure from the checkpoint file:  "JID_332.chk"
 Charge =  1 Multiplicity = 2

 SCF Done:  E(UB3LYP) =  -516.768121779     A.U. after   21 cycles
 Normal termination of Gaussian 16 at Tue Dec  8 10:35:30 2020.
 Gaussian 16:  ES64L-G16RevA.03 25-Dec-2016

 ----------------------------------------------------------------------
 # B3LYP/6-311++G(d,p) empiricaldispersion=gd3bj scf=xqc pop=npa geom=c
 heck
 ----------------------------------------------------------------------

 ----------------------------------
 CID_11029982_JID_332_Energie_anion
 ----------------------------------
 Structure from the checkpoint file:  "JID_332.chk"
 Charge = -1 Multiplicity = 2

                         Standard orientation:
 ---------------------------------------------------------------------
 Center     Atomic      Atomic             Coordinates (Angstroms)
 Number     Number       Type             X           Y           Z
 ---------------------------------------------------------------------
      1          6           0        1.816422   -1.355188   -0.121956
      2          6           0        1.273416    0.059587    0.050025
      3          6           0        2.080962    1.062218   -0.785894
      4          6           0       -0.243191    0.209737   -0.351311
      5          6           0       -1.085415   -1.002782    0.020205
      6          8           0       -1.749484   -1.095995    1.030323
      7          8           0       -1.030787   -1.983773   -0.910514
      8          7           0       -0.770860    1.407852    0.301470
      9          6           0       -1.835510    2.069301   -0.453283
     10          8           0        1.400285    0.369308    1.433006
     11          1           0        1.677063   -1.714147   -1.145449
     12          1           0        1.317838   -2.046413    0.563434
     13          1           0        2.885032   -1.359891    0.113139
     14          1           0        2.085420    0.787132   -1.847048
     15          1           0        1.653771    2.066268   -0.690211
     16          1           0        3.114119    1.086062   -0.426401
     17          1           0       -0.294565    0.329042   -1.437742
     18          1           0       -1.572304   -2.719221   -0.565313
     19          1           0       -1.156958    1.094401    1.192368
     20          1           0       -2.687132    1.411390   -0.695140
     21          1           0       -2.212555    2.915771    0.128588
     22          1           0       -1.427900    2.461004   -1.391145
     23          1           0        1.013976    1.260094    1.521386
 ---------------------------------------------------------------------

 SCF Done:  E(UB3LYP) =  -517.084704601     A.U. after   30 cycles

 The electronic state is 2-A.
 Alpha  occ. eigenvalues --  -19.06627 -19.01689 -19.01609 -14.20634 -10.20344
 Alpha  occ. eigenvalues --  -10.13490 -10.11177 -10.08630 -10.05690 -10.05597
 Alpha  occ. eigenvalues --   -1.00881  -0.92780  -0.92053  -0.81308  -0.68876
 Alpha  occ. eigenvalues --   -0.62402  -0.59395  -0.55963  -0.50770  -0.46580
 Alpha  occ. eigenvalues --   -0.42318  -0.41312  -0.39181  -0.36953  -0.35717
 Alpha  occ. eigenvalues --   -0.33884  -0.32924  -0.31834  -0.31211  -0.29700
 Alpha  occ. eigenvalues --   -0.28243  -0.28057  -0.27555  -0.26365  -0.25673
 Alpha  occ. eigenvalues --   -0.22609  -0.22207  -0.19036  -0.17496  -0.14341
 Alpha  occ. eigenvalues --    0.04675
 Alpha virt. eigenvalues --    0.06949   0.07628   0.08564   0.09497   0.09876
 Alpha virt. eigenvalues --    0.10433   0.11050   0.11310   0.12312   0.12929
 Alpha virt. eigenvalues --    0.13761   0.14015   0.14608   0.15769   0.17523

  Beta  occ. eigenvalues --  -19.06566 -19.01676 -19.01603 -14.20618 -10.20342
  Beta  occ. eigenvalues --  -10.13487 -10.11154 -10.08584 -10.05660 -10.05572
  Beta  occ. eigenvalues --   -1.00809  -0.92763  -0.91996  -0.81281  -0.68847
  Beta  occ. eigenvalues --   -0.62341  -0.59345  -0.55858  -0.50680  -0.46528
  Beta  occ. eigenvalues --   -0.42264  -0.41283  -0.39147  -0.36917  -0.35667
  Beta  occ. eigenvalues --   -0.33842  -0.32885  -0.31782  -0.31164  -0.29666
  Beta  occ. eigenvalues --   -0.28212  -0.28023  -0.27508  -0.26332  -0.25644
  Beta  occ. eigenvalues --   -0.22573  -0.22180  -0.19002  -0.17474  -0.14286
  Beta virt. eigenvalues --    0.07163   0.08212   0.08639   0.09070   0.09726
  Beta virt. eigenvalues --    0.10319   0.10886   0.11665   0.11888   0.12587
  Beta virt. eigenvalues --    0.13451   0.14047   0.14499   0.14908   0.15983

 Mulliken charges and spin densities:
               1          2
     1  C    0.451989  -1.103931
     2  C   -1.546244   2.120966
     3  C    0.978567  -1.441218
     4  C    0.460132  -1.393776
     5  C    0.137958  -0.223485
     6  O   -0.277009   0.024163
     7  O   -0.175337   0.079271
     8  N   -0.279236   0.177428
     9  C    1.395500  -1.752011
    10  O   -0.159516   0.004023
    11  H   -0.091175   0.262115
    12  H   -0.031313   0.233068
    13  H   -0.058275   0.210833
    14  H   -0.253335   0.404530
    15  H   -0.123203   0.273818
    16  H   -0.058488   0.213960
    17  H   -0.039293   0.307663
    18  H   -0.585366   0.886989
    19  H    0.263461   0.010343
    20  H   -0.261707   0.410726
    21  H   -0.420696   0.559945
    22  H   -0.500486   0.653927
    23  H    0.173074   0.080650
 Sum of Mulliken charges =  -1.00000   1.00000

 Dipole moment (field-independent basis, Debye):
    X=              2.5212    Y=              0.9567    Z=              2.6804  Tot=              3.8021
 Quadrupole moment (field-independent basis, Debye-Ang):
   XX=           -105.0428   YY=           -114.1157   ZZ=            -96.1500
   XY=             -1.3299   XZ=             -1.7546   YZ=              2.9916

 Summary of Natural Population Analysis:

                                       Natural Population
                Natural  -----------------------------------------------
    Atom  No    Charge         Core      Valence    Rydberg      Total
 -----------------------------------------------------------------------
      C    1   -0.29365      0.99961     2.28678    0.00726     3.29365
      C    2    0.13229      0.99955     1.85197    0.01619     2.86771
      C    3   -0.29843      0.99961     2.29178    0.00705     3.29843
      C    4   -0.06505      0.99949     2.04939    0.01618     3.06505
      C    5    0.40681      0.99968     1.56718    0.02632     2.59319
      O    6   -0.30939      0.99987     3.30304    0.00647     4.30939
      O    7   -0.34106      0.99988     3.33375    0.00743     4.34106
      N    8   -0.35289      0.99974     2.83988    0.01327     3.85289
      C    9   -0.17565      0.99966     2.16758    0.00841     3.17565
      O   10   -0.37950      0.99989     3.37329    0.00632     4.37950
      H   11    0.10716      0.00000     0.39163    0.00120     0.39284
      H   12    0.10577      0.00000     0.39315    0.00108     0.39423
      H   13    0.10197      0.00000     0.39713    0.00089     0.39803
      H   14    0.10202      0.00000     0.39659    0.00139     0.39798
      H   15    0.10551      0.00000     0.39300    0.00149     0.39449
      H   16    0.10189      0.00000     0.39710    0.00101     0.39811
      H   17    0.11279      0.00000     0.38460    0.00261     0.38721
      H   18    0.24560      0.00000     0.23184    0.02257     0.25440
      H   19    0.18455      0.00000     0.31233    0.00311     0.31545
      H   20    0.08379      0.00000     0.41471    0.00149     0.41621
      H   21    0.09601      0.00000     0.40264    0.00135     0.40399
      H   22    0.09486      0.00000     0.40316    0.00198     0.40514
      H   23    0.23459      0.00000     0.26220    0.00321     0.26541
 =======================================================================
   * Total *   -0.00000      9.99697    29.84475    0.15828    40.00000

 Normal termination of Gaussian 16 at Tue Dec  8 10:42:04 2020.
