 Gaussian 16, Revision A.03,

 -----------------------------------------------------------
 # opt freq B3LYP/6-31G(d) empiricaldispersion=gd3bj scf=xqc
 -----------------------------------------------------------

 ------------------------------
 CID_71338923_JID_4276_neutraal
 ------------------------------
 Symbolic Z-matrix:
 Charge =  0 Multiplicity = 1

 SCF Done:  E(RB3LYP) =  -951.350695186     A.U. after   16 cycles
 SCF Done:  E(RB3LYP) =  -951.377952767     A.U. after   13 cycles
 SCF Done:  E(RB3LYP) =  -951.378074844     A.U. after   15 cycles
 SCF Done:  E(RB3LYP) =  -951.378666266     A.U. after   15 cycles
 SCF Done:  E(RB3LYP) =  -951.379294950     A.U. after   13 cycles
 SCF Done:  E(RB3LYP) =  -951.379310606     A.U. after   12 cycles
 SCF Done:  E(RB3LYP) =  -951.379329860     A.U. after   11 cycles
 SCF Done:  E(RB3LYP) =  -951.379330787     A.U. after    9 cycles
 SCF Done:  E(RB3LYP) =  -951.379331148     A.U. after    8 cycles
 SCF Done:  E(RB3LYP) =  -951.379331308     A.U. after    8 cycles
 SCF Done:  E(RB3LYP) =  -951.379331439     A.U. after    8 cycles
 SCF Done:  E(RB3LYP) =  -951.379331542     A.U. after    8 cycles
 SCF Done:  E(RB3LYP) =  -951.379331588     A.U. after    7 cycles
 SCF Done:  E(RB3LYP) =  -951.379331604     A.U. after    7 cycles
 Optimization completed.
    -- Stationary point found.
 Normal termination of Gaussian 16 at Thu Dec 10 09:22:28 2020.

 --------------------------------------------------------------------
 #N Geom=AllCheck Guess=TCheck SCRF=Check GenChk RB3LYP/6-31G(d) Freq
 --------------------------------------------------------------------

 Structure from the checkpoint file:  "JID_4276.chk"
 ------------------------------
 CID_71338923_JID_4276_neutraal
 ------------------------------
 Charge =  0 Multiplicity = 1

 SCF Done:  E(RB3LYP) =  -951.379331604     A.U. after    1 cycles

  Exact polarizability: 168.748   1.489 149.372   7.550  -1.075  94.619
 Approx polarizability: 250.238  -0.603 231.141  22.440  -0.813 155.701

                      1                      2                      3
                      A                      A                      A
 Frequencies --     32.8287                36.8893                48.3012
 Red. masses --      5.5610                 3.6257                 4.4091
 Frc consts  --      0.0035                 0.0029                 0.0061
 IR Inten    --      1.6462                 1.5251                 2.5909

                      4                      5                      6
                      A                      A                      A
 Frequencies --     66.5312                78.1415               146.5465
 Red. masses --      2.7434                 2.9649                 3.5110
 Frc consts  --      0.0072                 0.0107                 0.0444
 IR Inten    --      0.2492                 0.8997                 3.4049

                      7                      8                      9
                      A                      A                      A
 Frequencies --    167.8045               192.5206               200.5819
 Red. masses --      6.2289                 3.1301                 2.7171
 Frc consts  --      0.1033                 0.0684                 0.0644
 IR Inten    --      3.0989                 0.4774                 0.8817

                     10                     11                     12
                      A                      A                      A
 Frequencies --    205.9050               242.4705               284.1080
 Red. masses --      1.9101                 1.8984                 1.4690
 Frc consts  --      0.0477                 0.0658                 0.0699
 IR Inten    --      1.6973                 2.9015                 2.0080

                     13                     14                     15
                      A                      A                      A
 Frequencies --    286.8794               348.3093               363.7892
 Red. masses --      2.0858                 3.5078                 3.0136
 Frc consts  --      0.1011                 0.2507                 0.2350
 IR Inten    --      3.6633                 5.5013                 0.5327

                     16                     17                     18
                      A                      A                      A
 Frequencies --    396.8755               439.6909               468.9406
 Red. masses --      4.4554                 4.9851                 5.0690
 Frc consts  --      0.4135                 0.5678                 0.6568
 IR Inten    --      2.3992                 2.5728                 3.9393

                     19                     20                     21
                      A                      A                      A
 Frequencies --    501.0763               514.6477               551.4920
 Red. masses --      7.6837                 6.1459                 4.2918
 Frc consts  --      1.1366                 0.9591                 0.7691
 IR Inten    --      3.0374                 1.1684                 0.8741

                     22                     23                     24
                      A                      A                      A
 Frequencies --    606.0938               689.9299               720.0738
 Red. masses --      3.1224                 8.2326                 4.5533
 Frc consts  --      0.6758                 2.3088                 1.3910
 IR Inten    --      1.2955                 0.1251                 0.5307

                     25                     26                     27
                      A                      A                      A
 Frequencies --    730.7260               778.2651               803.8736
 Red. masses --      4.8888                 1.7664                 1.2217
 Frc consts  --      1.5380                 0.6304                 0.4651
 IR Inten    --      4.7861                 1.7065                 2.0336

                     28                     29                     30
                      A                      A                      A
 Frequencies --    813.6757               884.6192               907.1304
 Red. masses --      2.4072                 1.8812                 4.2616
 Frc consts  --      0.9390                 0.8674                 2.0661
 IR Inten    --      1.1865                 3.9203                13.3925

                     31                     32                     33
                      A                      A                      A
 Frequencies --    922.4982               956.1539               985.3061
 Red. masses --      1.3483                 4.6783                 2.4949
 Frc consts  --      0.6760                 2.5200                 1.4271
 IR Inten    --      6.8361                 5.4176                 6.3840

                     34                     35                     36
                      A                      A                      A
 Frequencies --   1012.2009              1068.7297              1090.9522
 Red. masses --      1.7892                 1.9221                 1.8955
 Frc consts  --      1.0800                 1.2935                 1.3292
 IR Inten    --      7.2151                21.4178                12.4181

                     37                     38                     39
                      A                      A                      A
 Frequencies --   1100.3648              1120.6216              1125.7403
 Red. masses --      2.0236                 1.5760                 3.5080
 Frc consts  --      1.4436                 1.1661                 2.6193
 IR Inten    --     11.7572                 1.1959                84.8566

                     40                     41                     42
                      A                      A                      A
 Frequencies --   1229.0709              1237.2315              1280.6550
 Red. masses --      3.5204                 1.1712                 1.8988
 Frc consts  --      3.1333                 1.0563                 1.8348
 IR Inten    --     14.8803                 1.8579                 5.0030

                     43                     44                     45
                      A                      A                      A
 Frequencies --   1289.3775              1301.0635              1302.4950
 Red. masses --      1.6519                 1.6762                 1.1835
 Frc consts  --      1.6181                 1.6718                 1.1829
 IR Inten    --     11.3531                 2.3947                 0.2244

                     46                     47                     48
                      A                      A                      A
 Frequencies --   1313.7834              1361.1063              1373.7754
 Red. masses --      1.6845                 2.5269                 1.5584
 Frc consts  --      1.7130                 2.7582                 1.7328
 IR Inten    --     14.5255                 6.4478                 7.9517

                     49                     50                     51
                      A                      A                      A
 Frequencies --   1393.4841              1434.8496              1445.1686
 Red. masses --      2.0909                 1.2229                 1.2652
 Frc consts  --      2.3921                 1.4833                 1.5569
 IR Inten    --    106.3847                 2.3234                13.1167

                     52                     53                     54
                      A                      A                      A
 Frequencies --   1454.8770              1491.7400              1502.4688
 Red. masses --      1.1041                 2.8986                 1.1203
 Frc consts  --      1.3769                 3.8004                 1.4901
 IR Inten    --     22.1316                29.2092                 7.1082

                     55                     56                     57
                      A                      A                      A
 Frequencies --   1514.4261              1528.4317              1532.3986
 Red. masses --      1.0962                 1.0398                 1.0395
 Frc consts  --      1.4813                 1.4311                 1.4383
 IR Inten    --      5.6335                 6.4842                 7.0930

                     58                     59                     60
                      A                      A                      A
 Frequencies --   1538.0756              1539.0912              1585.5157
 Red. masses --      1.0759                 1.0822                 7.9565
 Frc consts  --      1.4996                 1.5104                11.7845
 IR Inten    --      1.5510                15.9830                26.0302

                     61                     62                     63
                      A                      A                      A
 Frequencies --   1613.0503              2373.2963              3043.2730
 Red. masses --      5.6244                12.6032                 1.0625
 Frc consts  --      8.6223                41.8249                 5.7978
 IR Inten    --     23.0133                 4.2311                 9.5226

                     64                     65                     66
                      A                      A                      A
 Frequencies --   3053.1588              3054.8158              3058.3755
 Red. masses --      1.0647                 1.0366                 1.0347
 Frc consts  --      5.8478                 5.6993                 5.7025
 IR Inten    --     14.5072                21.1423                28.4724

                     67                     68                     69
                      A                      A                      A
 Frequencies --   3072.9772              3096.9197              3108.4910
 Red. masses --      1.0999                 1.0584                 1.0988
 Frc consts  --      6.1196                 5.9805                 6.2559
 IR Inten    --      4.5150                 1.7693                 3.4281

                     70                     71                     72
                      A                      A                      A
 Frequencies --   3120.4308              3129.4242              3130.2286
 Red. masses --      1.1029                 1.1017                 1.1027
 Frc consts  --      6.3271                 6.3568                 6.3660
 IR Inten    --     31.0601                34.0976                29.8219

                     73                     74                     75
                      A                      A                      A
 Frequencies --   3136.9483              3155.3401              3211.4461
 Red. masses --      1.1038                 1.1053                 1.0908
 Frc consts  --      6.3995                 6.4839                 6.6284
 IR Inten    --     26.5492                 0.5239                19.0684

 - Thermochemistry -
 -------------------
 Temperature   298.150 Kelvin.  Pressure   1.00000 Atm.
 Atom     1 has atomic number  6 and mass  12.00000

 Molecular mass:   207.08302 amu.
 Principal axes and moments of inertia in atomic units:
                           1         2         3
     Eigenvalues --  2757.931243333.554595381.30233
           X            0.99335   0.11504  -0.00555
           Y           -0.11515   0.99299  -0.02672
           Z            0.00244   0.02718   0.99963
 This molecule is an asymmetric top.
 Rotational symmetry number  1.
 Warning -- assumption of classical behavior for rotation
           may cause significant error
 Rotational temperatures (Kelvin)      0.03141     0.02598     0.01610
 Rotational constants (GHZ):           0.65438     0.54139     0.33537
 Zero-point vibrational energy     573600.7 (Joules/Mol)
                                  137.09385 (Kcal/Mol)
 Warning -- explicit consideration of  22 degrees of freedom as
           vibrations may cause significant error
 Vibrational temperatures:     47.23    53.08    69.49    95.72   112.43
          (Kelvin)            210.85   241.43   276.99   288.59   296.25
                              348.86   408.77   412.76   501.14   523.41
                              571.02   632.62   674.70   720.94   740.46
                              793.47   872.03   992.66  1036.03  1051.35
                             1119.75  1156.59  1170.70  1272.77  1305.16
                             1327.27  1375.69  1417.64  1456.33  1537.66
                             1569.64  1583.18  1612.32  1619.69  1768.36
                             1780.10  1842.58  1855.13  1871.94  1874.00
                             1890.24  1958.33  1976.56  2004.91  2064.43
                             2079.28  2093.24  2146.28  2161.72  2178.92
                             2199.07  2204.78  2212.95  2214.41  2281.20
                             2320.82  3414.64  4378.59  4392.81  4395.20
                             4400.32  4421.33  4455.78  4472.43  4489.60
                             4502.54  4503.70  4513.37  4539.83  4620.55

 Zero-point correction=                           0.218473 (Hartree/Particle)
 Thermal correction to Energy=                    0.233230
 Thermal correction to Enthalpy=                  0.234174
 Thermal correction to Gibbs Free Energy=         0.174931
 Sum of electronic and zero-point Energies=           -951.160859
 Sum of electronic and thermal Energies=              -951.146102
 Sum of electronic and thermal Enthalpies=            -951.145158
 Sum of electronic and thermal Free Energies=         -951.204400

                     E (Thermal)             CV                S
                      KCal/Mol        Cal/Mol-Kelvin    Cal/Mol-Kelvin
 Total                  146.354             53.016            124.686
 Electronic               0.000              0.000              0.000
 Translational            0.889              2.981             41.888
 Rotational               0.889              2.981             32.270
 Vibrational            144.576             47.054             50.528
 Vibration     1          0.594              1.983              5.651
 Vibration     2          0.594              1.982              5.420
 Vibration     3          0.595              1.978              4.886
 Vibration     4          0.598              1.970              4.253
 Vibration     5          0.599              1.964              3.937
 Vibration     6          0.617              1.906              2.717
 Vibration     7          0.625              1.882              2.460
 Vibration     8          0.634              1.850              2.203
 Vibration     9          0.638              1.839              2.128
 Vibration    10          0.640              1.831              2.080
 Vibration    11          0.659              1.775              1.785
 Vibration    12          0.683              1.703              1.509
 Vibration    13          0.684              1.698              1.492
 Vibration    14          0.726              1.579              1.174
 Vibration    15          0.737              1.547              1.106
 Vibration    16          0.763              1.477              0.974
 Vibration    17          0.800              1.384              0.828
 Vibration    18          0.826              1.319              0.741
 Vibration    19          0.856              1.248              0.655
 Vibration    20          0.870              1.218              0.622
 Vibration    21          0.907              1.136              0.541
 Vibration    22          0.965              1.019              0.439

 Optimization completed.
    -- Stationary point found.
 Normal termination of Gaussian 16 at Thu Dec 10 09:29:32 2020.

 ----------------------------------------------------------------------
 # B3LYP/6-311++G(d,p) empiricaldispersion=gd3bj scf=xqc pop=npa geom=c
 heck
 ----------------------------------------------------------------------

 --------------------------------------
 CID_71338923_JID_4276_Energie_neutraal
 --------------------------------------
 Structure from the checkpoint file:  "JID_4276.chk"
 Charge =  0 Multiplicity = 1

 SCF Done:  E(RB3LYP) =  -951.552944619     A.U. after   16 cycles
 Normal termination of Gaussian 16 at Thu Dec 10 09:33:04 2020.

 ----------------------------------------------------------------------
 # B3LYP/6-311++G(d,p) empiricaldispersion=gd3bj scf=xqc pop=npa geom=c
 heck
 ----------------------------------------------------------------------

 ------------------------------------
 CID_71338923_JID_4276_Energie_kation
 ------------------------------------
 Structure from the checkpoint file:  "JID_4276.chk"
 Charge =  1 Multiplicity = 2

 SCF Done:  E(UB3LYP) =  -951.242681403     A.U. after   24 cycles
 Normal termination of Gaussian 16 at Thu Dec 10 09:40:55 2020.
 Gaussian 16:  ES64L-G16RevA.03 25-Dec-2016

 ----------------------------------------------------------------------
 # B3LYP/6-311++G(d,p) empiricaldispersion=gd3bj scf=xqc pop=npa geom=c
 heck
 ----------------------------------------------------------------------

 -----------------------------------
 CID_71338923_JID_4276_Energie_anion
 -----------------------------------
 Structure from the checkpoint file:  "JID_4276.chk"
 Charge = -1 Multiplicity = 2

                         Standard orientation:
 ---------------------------------------------------------------------
 Center     Atomic      Atomic             Coordinates (Angstroms)
 Number     Number       Type             X           Y           Z
 ---------------------------------------------------------------------
      1          6           0        4.319876   -0.183242    0.173492
      2          6           0        3.043837    0.599831   -0.136066
      3          6           0        1.770733   -0.210776   -0.166898
      4          6           0        1.704307   -1.591290    0.019558
      5          7           0        0.544829   -2.264532   -0.012038
      6          6           0       -0.581398   -1.582611   -0.219328
      7          6           0       -0.509020   -0.181238   -0.402880
      8          7           0        0.637012    0.480311   -0.387529
      9         16           0       -2.014518    0.753712   -0.665486
     10          6           0       -1.303317    2.445765   -0.714073
     11          6           0       -0.823994    2.908660    0.584907
     12          7           0       -0.450819    3.284214    1.617438
     13          6           0       -1.881066   -2.343260   -0.195117
     14          6           0       -2.511705   -2.352978    1.208675
     15          1           0        4.264484   -0.670631    1.153171
     16          1           0        5.182277    0.490139    0.185474
     17          1           0        4.512557   -0.956803   -0.578294
     18          1           0        2.902207    1.401544    0.599963
     19          1           0        3.140552    1.108397   -1.104696
     20          1           0        2.597388   -2.181203    0.199488
     21          1           0       -0.479915    2.462167   -1.430916
     22          1           0       -2.111256    3.091740   -1.069688
     23          1           0       -2.586509   -1.914663   -0.918181
     24          1           0       -1.669392   -3.368578   -0.512847
     25          1           0       -2.729761   -1.336626    1.552419
     26          1           0       -3.448214   -2.920344    1.206172
     27          1           0       -1.828802   -2.817655    1.926990
 ---------------------------------------------------------------------

 SCF Done:  E(UB3LYP) =  -951.557130014     A.U. after   33 cycles
 SCF Done:  E(UB3LYP) =  -951.557130014     a.u. after    1 cycles

 The electronic state is 2-A.
 Alpha  occ. eigenvalues --  -88.73671 -14.19836 -14.13729 -14.13025 -10.12717
 Alpha  occ. eigenvalues --  -10.10169 -10.08018 -10.05186 -10.05074 -10.04986
 Alpha  occ. eigenvalues --  -10.04538 -10.04214 -10.04042 -10.03993  -7.82298
 Alpha  occ. eigenvalues --   -5.78742  -5.78266  -5.77676  -0.81743  -0.79607
 Alpha  occ. eigenvalues --   -0.74437  -0.70235  -0.66506  -0.64891  -0.60515
 Alpha  occ. eigenvalues --   -0.56130  -0.53341  -0.49639  -0.47257  -0.44370
 Alpha  occ. eigenvalues --   -0.40456  -0.37875  -0.36408  -0.34303  -0.33402
 Alpha  occ. eigenvalues --   -0.32299  -0.31030  -0.30017  -0.29092  -0.27294
 Alpha  occ. eigenvalues --   -0.26436  -0.25694  -0.25203  -0.24670  -0.23108
 Alpha  occ. eigenvalues --   -0.22914  -0.22596  -0.22020  -0.21705  -0.19803
 Alpha  occ. eigenvalues --   -0.18102  -0.14356  -0.13942  -0.09035  -0.08829
 Alpha  occ. eigenvalues --    0.05266
 Alpha virt. eigenvalues --    0.07830   0.08153   0.08356   0.10036   0.10220
 Alpha virt. eigenvalues --    0.10889   0.11400   0.11756   0.12151   0.12408
 Alpha virt. eigenvalues --    0.12899   0.13273   0.13996   0.14434   0.14722

  Beta  occ. eigenvalues --  -88.73669 -14.19819 -14.13096 -14.12306 -10.12708
  Beta  occ. eigenvalues --  -10.10164 -10.07946 -10.05181 -10.04947 -10.04900
  Beta  occ. eigenvalues --  -10.04552 -10.04224 -10.04021 -10.03997  -7.82297
  Beta  occ. eigenvalues --   -5.78739  -5.78269  -5.77668  -0.80934  -0.79562
  Beta  occ. eigenvalues --   -0.73404  -0.70083  -0.66288  -0.64771  -0.60341
  Beta  occ. eigenvalues --   -0.55932  -0.53168  -0.49379  -0.46715  -0.44156
  Beta  occ. eigenvalues --   -0.40399  -0.37645  -0.36300  -0.34122  -0.33226
  Beta  occ. eigenvalues --   -0.32162  -0.30962  -0.29892  -0.28745  -0.26728
  Beta  occ. eigenvalues --   -0.26191  -0.25622  -0.24917  -0.24556  -0.23005
  Beta  occ. eigenvalues --   -0.22602  -0.22407  -0.21893  -0.21500  -0.19704
  Beta  occ. eigenvalues --   -0.16346  -0.13091  -0.12351  -0.08180  -0.07965
  Beta virt. eigenvalues --    0.07741   0.08093   0.08406   0.09960   0.10228
  Beta virt. eigenvalues --    0.10773   0.11346   0.11683   0.12062   0.12221
  Beta virt. eigenvalues --    0.12725   0.13078   0.13302   0.14100   0.14433

 Mulliken charges and spin densities:
               1          2
     1  C   -0.573593  -0.063459
     2  C   -0.023930  -0.028787
     3  C    0.047334   0.085575
     4  C   -0.262547  -0.034621
     5  N   -0.063664   0.333975
     6  C   -0.085543  -0.020231
     7  C    0.061130  -0.134143
     8  N    0.138930   0.318192
     9  S   -0.482230   0.020506
    10  C    0.108363  -0.176990
    11  C   -0.134776   0.037856
    12  N   -0.323461   0.008787
    13  C   -0.457566   0.413836
    14  C   -0.214737  -0.312811
    15  H    0.109376   0.027197
    16  H    0.100664   0.023654
    17  H    0.137474  -0.007628
    18  H    0.151286  -0.017323
    19  H    0.022276   0.114997
    20  H    0.138750   0.004059
    21  H    0.144575   0.054553
    22  H    0.175088   0.023987
    23  H    0.072647   0.022398
    24  H    0.051967   0.103008
    25  H    0.108379   0.012519
    26  H   -0.095511   0.202732
    27  H    0.149320  -0.011837
 Sum of Mulliken charges =  -1.00000   1.00000

 Dipole moment (field-independent basis, Debye):
    X=             -0.3617    Y=              1.7269    Z=             -2.2871  Tot=              2.8886
 Quadrupole moment (field-independent basis, Debye-Ang):
   XX=           -114.9813   YY=           -127.6370   ZZ=           -108.2446
   XY=             -4.7373   XZ=              3.1876   YZ=             -8.8362

 Summary of Natural Population Analysis:

                                       Natural Population
                Natural  -----------------------------------------------
    Atom  No    Charge         Core      Valence    Rydberg      Total
 -----------------------------------------------------------------------
      C    1   -0.28567      0.99967     2.28170    0.00429     3.28567
      C    2   -0.20101      0.99961     2.19300    0.00840     3.20101
      C    3    0.10836      0.99953     1.87983    0.01227     2.89164
      C    4   -0.01312      0.99953     2.00056    0.01302     3.01312
      N    5   -0.13375      0.99967     2.62022    0.01386     3.63375
      C    6    0.08244      0.99947     1.90302    0.01506     2.91756
      C    7    0.03584      0.99940     1.94900    0.01576     2.96416
      N    8   -0.17761      0.99960     2.66221    0.01581     3.67761
      S    9    0.11342      4.99955     2.86821    0.01882     7.88658
      C   10   -0.31100      0.99949     2.30000    0.01152     3.31100
      C   11    0.15763      0.99965     1.82340    0.01931     2.84237
      N   12   -0.18699      0.99979     2.67632    0.01089     3.68699
      C   13   -0.20441      0.99961     2.19585    0.00895     3.20441
      C   14   -0.28054      0.99966     2.27664    0.00424     3.28054
      H   15    0.09647      0.00000     0.40215    0.00137     0.40353
      H   16    0.09188      0.00000     0.40704    0.00108     0.40812
      H   17    0.09446      0.00000     0.40429    0.00125     0.40554
      H   18    0.10313      0.00000     0.39514    0.00173     0.39687
      H   19    0.09731      0.00000     0.40028    0.00241     0.40269
      H   20    0.08202      0.00000     0.41631    0.00167     0.41798
      H   21    0.13448      0.00000     0.36311    0.00241     0.36552
      H   22    0.11673      0.00000     0.38195    0.00132     0.38327
      H   23    0.09343      0.00000     0.40459    0.00197     0.40657
      H   24    0.10172      0.00000     0.39540    0.00287     0.39828
      H   25    0.09840      0.00000     0.40007    0.00152     0.40160
      H   26    0.08847      0.00000     0.40986    0.00167     0.41153
      H   27    0.09789      0.00000     0.40048    0.00163     0.40211
 =======================================================================
   * Total *    0.00000     17.99425    36.81065    0.19510    55.00000

 Normal termination of Gaussian 16 at Thu Dec 10 09:51:45 2020.
