 Gaussian 16, Revision A.03,

 -----------------------------------------------------------
 # opt freq B3LYP/6-31G(d) empiricaldispersion=gd3bj scf=xqc
 -----------------------------------------------------------

 -------------------------------
 CID_151185791_JID_5938_neutraal
 -------------------------------
 Symbolic Z-matrix:
 Charge =  0 Multiplicity = 1

 SCF Done:  E(RB3LYP) =  -1022.67487450     A.U. after   16 cycles
 SCF Done:  E(RB3LYP) =  -1022.68149867     A.U. after   13 cycles
 SCF Done:  E(RB3LYP) =  -1022.68292127     A.U. after   14 cycles
 SCF Done:  E(RB3LYP) =  -1022.68375338     A.U. after   12 cycles
 SCF Done:  E(RB3LYP) =  -1022.68391875     A.U. after   11 cycles
 SCF Done:  E(RB3LYP) =  -1022.68396403     A.U. after   12 cycles
 SCF Done:  E(RB3LYP) =  -1022.68397480     A.U. after   10 cycles
 SCF Done:  E(RB3LYP) =  -1022.68397956     A.U. after    9 cycles
 SCF Done:  E(RB3LYP) =  -1022.68398386     A.U. after   10 cycles
 SCF Done:  E(RB3LYP) =  -1022.68398937     A.U. after   11 cycles
 SCF Done:  E(RB3LYP) =  -1022.68507152     A.U. after   10 cycles
 SCF Done:  E(RB3LYP) =  -1022.68507311     A.U. after   11 cycles
 SCF Done:  E(RB3LYP) =  -1022.68507380     A.U. after   10 cycles
 SCF Done:  E(RB3LYP) =  -1022.68507373     A.U. after    9 cycles
 SCF Done:  E(RB3LYP) =  -1022.68507371     A.U. after    7 cycles
 Optimization completed.
    -- Stationary point found.
 Normal termination of Gaussian 16 at Thu Dec 10 17:44:22 2020.

 --------------------------------------------------------------------
 #N Geom=AllCheck Guess=TCheck SCRF=Check GenChk RB3LYP/6-31G(d) Freq
 --------------------------------------------------------------------

 Structure from the checkpoint file:  "JID_5938.chk"
 -------------------------------
 CID_151185791_JID_5938_neutraal
 -------------------------------
 Charge =  0 Multiplicity = 1

 SCF Done:  E(RB3LYP) =  -1022.68507371     A.U. after    1 cycles

  Exact polarizability: 188.977   4.241 128.682  -1.684 -10.008 115.652
 Approx polarizability: 267.823  23.798 220.678  -2.622 -21.259 190.953

                      1                      2                      3
                      A                      A                      A
 Frequencies --     10.7956                28.1071                37.2383
 Red. masses --      7.3220                 7.1751                 5.8130
 Frc consts  --      0.0005                 0.0033                 0.0047
 IR Inten    --      0.3964                 0.9605                 0.2546

                      4                      5                      6
                      A                      A                      A
 Frequencies --     97.9253               127.3856               143.6644
 Red. masses --      6.1206                 3.7825                 4.2763
 Frc consts  --      0.0346                 0.0362                 0.0520
 IR Inten    --      1.3707                 2.7717                 0.6760

                      7                      8                      9
                      A                      A                      A
 Frequencies --    167.1941               228.1117               232.9327
 Red. masses --      7.7782                 4.1182                 2.1107
 Frc consts  --      0.1281                 0.1263                 0.0675
 IR Inten    --      0.6672                 9.9305                 1.0163

                     10                     11                     12
                      A                      A                      A
 Frequencies --    292.0268               301.3051               353.3164
 Red. masses --      4.6842                 4.5417                 2.3980
 Frc consts  --      0.2354                 0.2429                 0.1764
 IR Inten    --      6.4752                 1.5420                 5.5293

                     13                     14                     15
                      A                      A                      A
 Frequencies --    397.8938               444.5670               484.9972
 Red. masses --      4.1121                 1.8848                 2.8171
 Frc consts  --      0.3836                 0.2195                 0.3904
 IR Inten    --      5.1320                 1.2774                 1.1768

                     16                     17                     18
                      A                      A                      A
 Frequencies --    494.1103               514.4018               565.5994
 Red. masses --      2.5999                 4.7343                 4.6110
 Frc consts  --      0.3740                 0.7381                 0.8691
 IR Inten    --      7.3972                 4.1180                 2.5071

                     19                     20                     21
                      A                      A                      A
 Frequencies --    577.2638               581.3403               607.4726
 Red. masses --      3.2191                13.6322                 8.7928
 Frc consts  --      0.6320                 2.7144                 1.9117
 IR Inten    --     13.6348                 9.7995                33.9498

                     22                     23                     24
                      A                      A                      A
 Frequencies --    642.0055               673.3433               717.3269
 Red. masses --      4.1633                 1.2709                 2.8984
 Frc consts  --      1.0110                 0.3395                 0.8787
 IR Inten    --     15.2650                56.2871                 7.2991

                     25                     26                     27
                      A                      A                      A
 Frequencies --    738.5745               788.2256               802.7995
 Red. masses --      6.5291                 1.4757                 3.4784
 Frc consts  --      2.0984                 0.5402                 1.3208
 IR Inten    --      2.0139                29.7280                48.3143

                     28                     29                     30
                      A                      A                      A
 Frequencies --    845.4272               852.9434               858.4504
 Red. masses --      4.8762                 2.8536                 2.1930
 Frc consts  --      2.0534                 1.2231                 0.9522
 IR Inten    --     39.5415                24.8435                16.0487

                     31                     32                     33
                      A                      A                      A
 Frequencies --    892.1159               900.4253               935.7978
 Red. masses --      1.3100                 3.8950                 2.1602
 Frc consts  --      0.6143                 1.8606                 1.1146
 IR Inten    --      0.3984                 8.9049                 1.9085

                     34                     35                     36
                      A                      A                      A
 Frequencies --   1019.8297              1025.6936              1050.0764
 Red. masses --      1.8099                 2.4005                 2.3147
 Frc consts  --      1.1091                 1.4880                 1.5038
 IR Inten    --      1.9292                65.3128                39.6273

                     37                     38                     39
                      A                      A                      A
 Frequencies --   1085.8745              1093.2065              1114.9458
 Red. masses --      1.8165                 1.7813                 1.3911
 Frc consts  --      1.2620                 1.2543                 1.0188
 IR Inten    --      0.6453                 7.2814                 9.6071

                     40                     41                     42
                      A                      A                      A
 Frequencies --   1124.5898              1175.8059              1196.5813
 Red. masses --      1.5738                 3.7514                 2.1484
 Frc consts  --      1.1727                 3.0557                 1.8124
 IR Inten    --     11.9492                32.1628                23.8576

                     43                     44                     45
                      A                      A                      A
 Frequencies --   1211.3117              1243.0270              1255.4600
 Red. masses --      1.9134                 2.0629                 1.0742
 Frc consts  --      1.6541                 1.8780                 0.9975
 IR Inten    --    190.6754                66.9908                 7.6082

                     46                     47                     48
                      A                      A                      A
 Frequencies --   1276.3272              1305.6194              1311.9983
 Red. masses --      1.3267                 1.5043                 7.2953
 Frc consts  --      1.2733                 1.5108                 7.3988
 IR Inten    --     21.2670                22.8951               248.2364

                     49                     50                     51
                      A                      A                      A
 Frequencies --   1354.2234              1381.0474              1386.8440
 Red. masses --      1.7377                 1.2846                 1.4427
 Frc consts  --      1.8776                 1.4436                 1.6349
 IR Inten    --     16.8072                 4.6503                13.0015

                     52                     53                     54
                      A                      A                      A
 Frequencies --   1400.2728              1406.3569              1413.7838
 Red. masses --      1.2558                 1.9481                 1.4129
 Frc consts  --      1.4508                 2.2702                 1.6639
 IR Inten    --     94.4703                23.2811                 5.1055

                     55                     56                     57
                      A                      A                      A
 Frequencies --   1422.8101              1432.2237              1444.0779
 Red. masses --      1.3947                 1.6366                 1.5884
 Frc consts  --      1.6636                 1.9779                 1.9516
 IR Inten    --     22.1055                 9.9628                61.7319

                     58                     59                     60
                      A                      A                      A
 Frequencies --   1498.4557              1500.8378              1516.9258
 Red. masses --      1.0841                 1.0932                 1.1090
 Frc consts  --      1.4341                 1.4508                 1.5035
 IR Inten    --      3.4170                 6.4790                18.5282

                     61                     62                     63
                      A                      A                      A
 Frequencies --   1521.1253              1528.1430              1538.1018
 Red. masses --      1.1921                 1.5681                 2.0897
 Frc consts  --      1.6251                 2.1574                 2.9127
 IR Inten    --     37.4996               125.9756                16.6221

                     64                     65                     66
                      A                      A                      A
 Frequencies --   1603.0067              2250.2669              3012.7185
 Red. masses --      5.1515                13.3996                 1.0685
 Frc consts  --      7.7992                39.9770                 5.7138
 IR Inten    --     96.2156               690.4905                29.2218

                     67                     68                     69
                      A                      A                      A
 Frequencies --   3024.2312              3039.7271              3045.0799
 Red. masses --      1.0688                 1.0554                 1.0627
 Frc consts  --      5.7592                 5.7458                 5.8060
 IR Inten    --     28.9755                30.1264                17.2876

                     70                     71                     72
                      A                      A                      A
 Frequencies --   3049.8681              3091.8043              3101.3038
 Red. masses --      1.0647                 1.1112                 1.0935
 Frc consts  --      5.8351                 6.2587                 6.1966
 IR Inten    --     77.7329                14.6702                33.5826

                     73                     74                     75
                      A                      A                      A
 Frequencies --   3108.2366              3109.2009              3112.3310
 Red. masses --      1.1016                 1.0987                 1.1004
 Frc consts  --      6.2706                 6.2578                 6.2801
 IR Inten    --     39.2608                21.5741                40.1279

                     76                     77                     78
                      A                      A                      A
 Frequencies --   3216.4869              3243.6072              3275.0737
 Red. masses --      1.0894                 1.0935                 1.0969
 Frc consts  --      6.6402                 6.7786                 6.9319
 IR Inten    --     15.6993                 7.0075                 1.1907

 - Thermochemistry -
 -------------------
 Temperature   298.150 Kelvin.  Pressure   1.00000 Atm.
 Atom     1 has atomic number  6 and mass  12.00000

 Molecular mass:   223.08917 amu.
 Principal axes and moments of inertia in atomic units:
                           1         2         3
     Eigenvalues --  1692.551376660.359877138.22870
           X            0.99976  -0.02165   0.00125
           Y            0.02169   0.99890  -0.04146
           Z           -0.00035   0.04148   0.99914
 This molecule is an asymmetric top.
 Rotational symmetry number  1.
 Warning -- assumption of classical behavior for rotation
           may cause significant error
 Rotational temperatures (Kelvin)      0.05117     0.01300     0.01213
 Rotational constants (GHZ):           1.06628     0.27097     0.25283
 Zero-point vibrational energy     597257.2 (Joules/Mol)
                                  142.74789 (Kcal/Mol)
 Warning -- explicit consideration of  21 degrees of freedom as
           vibrations may cause significant error
 Vibrational temperatures:     15.53    40.44    53.58   140.89   183.28
          (Kelvin)            206.70   240.56   328.20   335.14   420.16
                              433.51   508.34   572.48   639.63   697.80
                              710.91   740.11   813.77   830.55   836.42
                              874.02   923.70   968.79  1032.07  1062.64
                             1134.08  1155.05  1216.38  1227.20  1235.12
                             1283.56  1295.51  1346.40  1467.31  1475.74
                             1510.83  1562.33  1572.88  1604.16  1618.03
                             1691.72  1721.61  1742.81  1788.44  1806.33
                             1836.35  1878.50  1887.67  1948.43  1987.02
                             1995.36  2014.68  2023.43  2034.12  2047.11
                             2060.65  2077.71  2155.94  2159.37  2182.52
                             2188.56  2198.66  2212.99  2306.37  3237.63
                             4334.63  4351.19  4373.49  4381.19  4388.08
                             4448.42  4462.08  4472.06  4473.45  4477.95
                             4627.81  4666.83  4712.10

 Zero-point correction=                           0.227483 (Hartree/Particle)
 Thermal correction to Energy=                    0.241223
 Thermal correction to Enthalpy=                  0.242168
 Thermal correction to Gibbs Free Energy=         0.183791
 Sum of electronic and zero-point Energies=          -1022.457590
 Sum of electronic and thermal Energies=             -1022.443850
 Sum of electronic and thermal Enthalpies=           -1022.442906
 Sum of electronic and thermal Free Energies=        -1022.501282

                     E (Thermal)             CV                S
                      KCal/Mol        Cal/Mol-Kelvin    Cal/Mol-Kelvin
 Total                  151.370             51.833            122.863
 Electronic               0.000              0.000              0.000
 Translational            0.889              2.981             42.110
 Rotational               0.889              2.981             32.753
 Vibrational            149.592             45.871             48.000
 Vibration     1          0.593              1.987              7.859
 Vibration     2          0.593              1.984              5.959
 Vibration     3          0.594              1.982              5.401
 Vibration     4          0.603              1.951              3.495
 Vibration     5          0.611              1.926              2.985
 Vibration     6          0.616              1.909              2.754
 Vibration     7          0.624              1.883              2.467
 Vibration     8          0.651              1.798              1.894
 Vibration     9          0.654              1.791              1.856
 Vibration    10          0.687              1.689              1.462
 Vibration    11          0.693              1.671              1.410
 Vibration    12          0.730              1.568              1.151
 Vibration    13          0.764              1.475              0.970
 Vibration    14          0.804              1.373              0.812
 Vibration    15          0.841              1.283              0.697
 Vibration    16          0.850              1.263              0.673
 Vibration    17          0.869              1.218              0.623
 Vibration    18          0.921              1.106              0.513
 Vibration    19          0.934              1.080              0.490
 Vibration    20          0.938              1.072              0.483
 Vibration    21          0.966              1.016              0.437

 Optimization completed.
    -- Stationary point found.
 Normal termination of Gaussian 16 at Thu Dec 10 17:52:26 2020.

 ----------------------------------------------------------------------
 # B3LYP/6-311++G(d,p) empiricaldispersion=gd3bj scf=xqc pop=npa geom=c
 heck
 ----------------------------------------------------------------------

 ---------------------------------------
 CID_151185791_JID_5938_Energie_neutraal
 ---------------------------------------
 Structure from the checkpoint file:  "JID_5938.chk"
 Charge =  0 Multiplicity = 1

 SCF Done:  E(RB3LYP) =  -1022.87964116     A.U. after   15 cycles
 Normal termination of Gaussian 16 at Thu Dec 10 17:55:49 2020.

 ----------------------------------------------------------------------
 # B3LYP/6-311++G(d,p) empiricaldispersion=gd3bj scf=xqc pop=npa geom=c
 heck
 ----------------------------------------------------------------------

 -------------------------------------
 CID_151185791_JID_5938_Energie_kation
 -------------------------------------
 Structure from the checkpoint file:  "JID_5938.chk"
 Charge =  1 Multiplicity = 2

 SCF Done:  E(UB3LYP) =  -1022.61644842     A.U. after   22 cycles
 Normal termination of Gaussian 16 at Thu Dec 10 18:02:23 2020.
 Gaussian 16:  ES64L-G16RevA.03 25-Dec-2016

 ----------------------------------------------------------------------
 # B3LYP/6-311++G(d,p) empiricaldispersion=gd3bj scf=xqc pop=npa geom=c
 heck
 ----------------------------------------------------------------------

 ------------------------------------
 CID_151185791_JID_5938_Energie_anion
 ------------------------------------
 Structure from the checkpoint file:  "JID_5938.chk"
 Charge = -1 Multiplicity = 2

                         Standard orientation:
 ---------------------------------------------------------------------
 Center     Atomic      Atomic             Coordinates (Angstroms)
 Number     Number       Type             X           Y           Z
 ---------------------------------------------------------------------
      1          6           0        1.310711   -1.256176   -1.543274
      2          6           0        0.173409   -0.238138   -1.401204
      3          7           0       -0.684938   -0.609894   -0.275149
      4          6           0        0.052337   -0.761758    0.988961
      5          6           0        1.185315   -1.775709    0.808564
      6          7           0        2.069901   -1.464002   -0.312370
      7          6           0        3.158586   -0.600508   -0.064445
      8          7           0        2.742062    0.843448    0.224106
      9          7           0        3.687847    1.599241    0.452923
     10          7           0        4.513743    2.359848    0.674875
     11          6           0       -1.899323    0.069214   -0.210295
     12          6           0       -2.406022    1.032326   -1.051068
     13          6           0       -3.740916    1.422539   -0.714696
     14          6           0       -4.241040    0.773113    0.373229
     15         16           0       -3.089027   -0.369821    1.016963
     16          1           0        0.879056   -2.222189   -1.835036
     17          1           0        1.996655   -0.939048   -2.335476
     18          1           0       -0.434782   -0.257297   -2.310815
     19          1           0        0.579805    0.777510   -1.277814
     20          1           0        0.451252    0.205862    1.327314
     21          1           0       -0.635646   -1.132711    1.753872
     22          1           0        0.745154   -2.763627    0.620888
     23          1           0        1.780124   -1.837902    1.725491
     24          1           0        3.721837   -0.964049    0.803209
     25          1           0        3.818783   -0.586130   -0.939828
     26          1           0       -1.846088    1.466231   -1.869379
     27          1           0       -4.293457    2.179909   -1.260434
     28          1           0       -5.196899    0.900671    0.861278
 ---------------------------------------------------------------------

 SCF Done:  E(UB3LYP) =  -1022.87161008     A.U. after   33 cycles
 SCF Done:  E(UB3LYP) =  -1022.87161008     a.u. after    1 cycles

 The electronic state is 2-A.
 Alpha  occ. eigenvalues --  -88.77752 -14.34141 -14.24236 -14.23581 -14.22929
 Alpha  occ. eigenvalues --  -14.21308 -10.13783 -10.13037 -10.10074 -10.09966
 Alpha  occ. eigenvalues --  -10.09909 -10.09666 -10.09644 -10.08504 -10.07141
 Alpha  occ. eigenvalues --   -7.86392  -5.82693  -5.82337  -5.81945  -1.00798
 Alpha  occ. eigenvalues --   -0.87115  -0.85255  -0.82314  -0.77048  -0.67449
 Alpha  occ. eigenvalues --   -0.65567  -0.63880  -0.61448  -0.55994  -0.55603
 Alpha  occ. eigenvalues --   -0.48436  -0.46709  -0.45232  -0.43622  -0.42603
 Alpha  occ. eigenvalues --   -0.39977  -0.38818  -0.36835  -0.36800  -0.36605
 Alpha  occ. eigenvalues --   -0.36079  -0.35081  -0.32600  -0.31702  -0.30873
 Alpha  occ. eigenvalues --   -0.30506  -0.29789  -0.28418  -0.27675  -0.26457
 Alpha  occ. eigenvalues --   -0.25981  -0.25570  -0.24183  -0.20009  -0.17931
 Alpha  occ. eigenvalues --   -0.16002  -0.13361  -0.12633  -0.10193   0.04468
 Alpha virt. eigenvalues --    0.06350   0.07296   0.07491   0.07816   0.08178
 Alpha virt. eigenvalues --    0.08698   0.09033   0.10014   0.10734   0.11152
 Alpha virt. eigenvalues --    0.11393   0.11758   0.12414   0.12774   0.13414

  Beta  occ. eigenvalues --  -88.77748 -14.33931 -14.23898 -14.23584 -14.22992
  Beta  occ. eigenvalues --  -14.21313 -10.13761 -10.12924 -10.10059 -10.09950
  Beta  occ. eigenvalues --  -10.09881 -10.09643 -10.09618 -10.08501 -10.07135
  Beta  occ. eigenvalues --   -7.86387  -5.82690  -5.82335  -5.81935  -1.00358
  Beta  occ. eigenvalues --   -0.87070  -0.85102  -0.82228  -0.77028  -0.67412
  Beta  occ. eigenvalues --   -0.65494  -0.63858  -0.61353  -0.55906  -0.55545
  Beta  occ. eigenvalues --   -0.48330  -0.46677  -0.45121  -0.43549  -0.42560
  Beta  occ. eigenvalues --   -0.39878  -0.38301  -0.36779  -0.36681  -0.36479
  Beta  occ. eigenvalues --   -0.35879  -0.34780  -0.31968  -0.31527  -0.30846
  Beta  occ. eigenvalues --   -0.30434  -0.29750  -0.28364  -0.27625  -0.26388
  Beta  occ. eigenvalues --   -0.25931  -0.25518  -0.24157  -0.19757  -0.17640
  Beta  occ. eigenvalues --   -0.15965  -0.13273  -0.12550  -0.10161
  Beta virt. eigenvalues --    0.06319   0.07210   0.07866   0.07995   0.08684
  Beta virt. eigenvalues --    0.09095   0.09252   0.09842   0.10663   0.10993
  Beta virt. eigenvalues --    0.11411   0.11553   0.11922   0.12607   0.12859

 Mulliken charges and spin densities:
               1          2
     1  C    2.004099  -2.769985
     2  C   -1.269915   1.256510
     3  N    0.423063   0.053881
     4  C   -0.709472   0.343657
     5  C    0.645560  -1.106010
     6  N   -0.272163   0.411353
     7  C    0.706552  -1.195674
     8  N   -0.179580   0.039844
     9  N    0.416097   0.042107
    10  N   -0.509102   0.326767
    11  C   -0.399278  -0.577676
    12  C    1.088770  -0.094158
    13  C   -1.040665   0.322911
    14  C    0.014500  -0.059162
    15  S   -0.231931   0.047646
    16  H   -0.156156   0.332504
    17  H   -0.431421   0.613547
    18  H   -0.325861   0.501149
    19  H    0.114568   0.068742
    20  H    0.144594   0.065095
    21  H   -0.185474   0.282466
    22  H   -0.211482   0.389286
    23  H   -0.211387   0.376227
    24  H   -0.305821   0.494131
    25  H   -0.210611   0.406842
    26  H   -0.042779   0.218779
    27  H   -0.012129   0.142495
    28  H    0.147423   0.066723
 Sum of Mulliken charges =  -1.00000   1.00000

 Dipole moment (field-independent basis, Debye):
    X=             -6.6061    Y=              0.6878    Z=              1.6664  Tot=              6.8477
 Quadrupole moment (field-independent basis, Debye-Ang):
   XX=           -168.0423   YY=           -136.3082   ZZ=           -131.0797
   XY=             -6.4379   XZ=             -3.0680   YZ=             -4.0790

 Summary of Natural Population Analysis:

                                       Natural Population
                Natural  -----------------------------------------------
    Atom  No    Charge         Core      Valence    Rydberg      Total
 -----------------------------------------------------------------------
      C    1   -0.08506      0.99960     2.07287    0.01259     3.08506
      C    2   -0.09656      0.99960     2.08453    0.01243     3.09656
      N    3   -0.26934      0.99963     2.75673    0.01297     3.76934
      C    4   -0.09288      0.99960     2.08269    0.01059     3.09288
      C    5   -0.08638      0.99960     2.07436    0.01242     3.08638
      N    6   -0.27391      0.99972     2.75811    0.01608     3.77391
      C    7    0.01749      0.99956     1.96892    0.01403     2.98251
      N    8   -0.22778      0.99972     2.71404    0.01402     3.72778
      N    9    0.12966      0.99971     2.35482    0.01581     3.37034
      N   10   -0.02662      0.99982     2.51299    0.01381     3.52662
      C   11    0.03320      0.99947     1.95195    0.01539     2.96680
      C   12   -0.16997      0.99947     2.16036    0.01014     3.16997
      C   13   -0.11965      0.99954     2.11013    0.00998     3.11965
      C   14   -0.20978      0.99954     2.19853    0.01171     3.20978
      S   15    0.18051      4.99943     2.80026    0.01980     7.81949
      H   16    0.09591      0.00000     0.40233    0.00176     0.40409
      H   17    0.10350      0.00000     0.39460    0.00190     0.39650
      H   18    0.10144      0.00000     0.39668    0.00189     0.39856
      H   19    0.09716      0.00000     0.40089    0.00195     0.40284
      H   20    0.09790      0.00000     0.40049    0.00161     0.40210
      H   21    0.09823      0.00000     0.40010    0.00168     0.40177
      H   22    0.09568      0.00000     0.40255    0.00177     0.40432
      H   23    0.10162      0.00000     0.39711    0.00127     0.39838
      H   24    0.09151      0.00000     0.40679    0.00170     0.40849
      H   25    0.09281      0.00000     0.40539    0.00180     0.40719
      H   26    0.11152      0.00000     0.38746    0.00102     0.38848
      H   27    0.10344      0.00000     0.39573    0.00084     0.39656
      H   28    0.10635      0.00000     0.39287    0.00078     0.39365
 =======================================================================
   * Total *    0.00000     18.99400    39.78427    0.22173    59.00000

 Normal termination of Gaussian 16 at Thu Dec 10 18:11:39 2020.
