 Gaussian 16, Revision A.03,

 -----------------------------------------------------------
 # opt freq B3LYP/6-31G(d) empiricaldispersion=gd3bj scf=xqc
 -----------------------------------------------------------

 -------------------------------
 CID_102658615_JID_9045_neutraal
 -------------------------------
 Symbolic Z-matrix:
 Charge =  0 Multiplicity = 1

 SCF Done:  E(RB3LYP) =  -920.283987180     A.U. after   14 cycles
 SCF Done:  E(RB3LYP) =  -920.294506410     A.U. after   12 cycles
 SCF Done:  E(RB3LYP) =  -920.296448438     A.U. after   13 cycles
 SCF Done:  E(RB3LYP) =  -920.297854192     A.U. after   12 cycles
 SCF Done:  E(RB3LYP) =  -920.298282211     A.U. after   11 cycles
 SCF Done:  E(RB3LYP) =  -920.299160145     A.U. after   12 cycles
 SCF Done:  E(RB3LYP) =  -920.299294406     A.U. after   12 cycles
 SCF Done:  E(RB3LYP) =  -920.299706298     A.U. after   12 cycles
 SCF Done:  E(RB3LYP) =  -920.299808455     A.U. after   11 cycles
 SCF Done:  E(RB3LYP) =  -920.299850563     A.U. after   10 cycles
 SCF Done:  E(RB3LYP) =  -920.299862886     A.U. after    9 cycles
 SCF Done:  E(RB3LYP) =  -920.299864351     A.U. after    8 cycles
 SCF Done:  E(RB3LYP) =  -920.299865202     A.U. after    8 cycles
 SCF Done:  E(RB3LYP) =  -920.299865453     A.U. after    7 cycles
 SCF Done:  E(RB3LYP) =  -920.299865533     A.U. after    6 cycles
 Optimization completed.
    -- Stationary point found.
 Normal termination of Gaussian 16 at Sun Dec 13 16:17:30 2020.

 --------------------------------------------------------------------
 #N Geom=AllCheck Guess=TCheck SCRF=Check GenChk RB3LYP/6-31G(d) Freq
 --------------------------------------------------------------------

 Structure from the checkpoint file:  "JID_9045.chk"
 -------------------------------
 CID_102658615_JID_9045_neutraal
 -------------------------------
 Charge =  0 Multiplicity = 1

 SCF Done:  E(RB3LYP) =  -920.299865533     A.U. after    1 cycles

  Exact polarizability: 205.465   0.952 144.722  -5.091   2.635 130.648
 Approx polarizability: 226.566  -4.611 237.409  -7.705  13.255 195.529

                      1                      2                      3
                      A                      A                      A
 Frequencies --     19.7103                28.6096                42.8785
 Red. masses --      4.7721                 5.6631                 4.9875
 Frc consts  --      0.0011                 0.0027                 0.0054
 IR Inten    --      0.0262                 0.3831                 1.8105

                      4                      5                      6
                      A                      A                      A
 Frequencies --     48.4804                52.9444                61.2710
 Red. masses --      3.7065                 4.0659                 3.5771
 Frc consts  --      0.0051                 0.0067                 0.0079
 IR Inten    --      0.1723                 0.6040                 1.2760

                      7                      8                      9
                      A                      A                      A
 Frequencies --     90.4639               105.3868               124.5044
 Red. masses --      3.6356                 5.3739                 2.1517
 Frc consts  --      0.0175                 0.0352                 0.0197
 IR Inten    --      1.8464                 0.6972                 0.6048

                     10                     11                     12
                      A                      A                      A
 Frequencies --    132.6999               142.1524               181.2320
 Red. masses --      2.1989                 3.6164                 2.9480
 Frc consts  --      0.0228                 0.0431                 0.0570
 IR Inten    --      0.4516                 1.4470                 5.0993

                     13                     14                     15
                      A                      A                      A
 Frequencies --    194.3402               215.0553               219.9062
 Red. masses --      1.4428                 1.8704                 3.9060
 Frc consts  --      0.0321                 0.0510                 0.1113
 IR Inten    --      0.1034                 2.6278                 0.0822

                     16                     17                     18
                      A                      A                      A
 Frequencies --    238.7645               253.6479               268.2913
 Red. masses --      1.1324                 2.2996                 3.2897
 Frc consts  --      0.0380                 0.0872                 0.1395
 IR Inten    --      0.2766                 2.3174                21.9425

                     19                     20                     21
                      A                      A                      A
 Frequencies --    290.0551               302.1130               311.8454
 Red. masses --      1.6217                 1.6152                 2.1128
 Frc consts  --      0.0804                 0.0869                 0.1211
 IR Inten    --      0.3799                 1.7328                 1.3144

                     22                     23                     24
                      A                      A                      A
 Frequencies --    333.4307               341.8408               384.8507
 Red. masses --      2.0374                 2.2050                 2.6411
 Frc consts  --      0.1335                 0.1518                 0.2305
 IR Inten    --      0.5710                 3.9989                 9.1634

                     25                     26                     27
                      A                      A                      A
 Frequencies --    399.2440               412.0434               431.1208
 Red. masses --      2.5337                 2.9846                 2.6674
 Frc consts  --      0.2379                 0.2986                 0.2921
 IR Inten    --      1.5968                 3.5991                 1.3949

                     28                     29                     30
                      A                      A                      A
 Frequencies --    470.7532               485.2143               499.9573
 Red. masses --      3.2385                 2.8412                 2.5175
 Frc consts  --      0.4228                 0.3941                 0.3708
 IR Inten    --      1.8046                 2.6631                13.8851

                     31                     32                     33
                      A                      A                      A
 Frequencies --    539.7209               563.0199               603.1653
 Red. masses --      3.4050                 4.4545                 3.0641
 Frc consts  --      0.5844                 0.8320                 0.6568
 IR Inten    --     16.1297                 7.0683                17.7594

                     34                     35                     36
                      A                      A                      A
 Frequencies --    632.7903               664.2029               709.6170
 Red. masses --      2.5947                 3.5090                 2.0579
 Frc consts  --      0.6121                 0.9121                 0.6105
 IR Inten    --     59.6701                 8.1913                92.6069

                     37                     38                     39
                      A                      A                      A
 Frequencies --    731.8716               756.5808               776.0576
 Red. masses --      2.7665                 1.6609                 6.1284
 Frc consts  --      0.8731                 0.5601                 2.1746
 IR Inten    --     38.3164                 0.7540                13.6531

                     40                     41                     42
                      A                      A                      A
 Frequencies --    850.1025               863.0515               872.5044
 Red. masses --      1.9651                 4.5172                 2.5740
 Frc consts  --      0.8367                 1.9824                 1.1545
 IR Inten    --      0.5184                 5.9461                 0.6263

                     43                     44                     45
                      A                      A                      A
 Frequencies --    879.7089               909.0723               924.5039
 Red. masses --      1.7179                 1.7842                 1.6294
 Frc consts  --      0.7833                 0.8687                 0.8205
 IR Inten    --      2.6465                 9.4887                 3.4624

                     46                     47                     48
                      A                      A                      A
 Frequencies --    929.1613               940.1202               970.4011
 Red. masses --      2.0352                 2.0422                 1.8131
 Frc consts  --      1.0352                 1.0634                 1.0059
 IR Inten    --      7.2360                 2.2965                 3.3876

                     49                     50                     51
                      A                      A                      A
 Frequencies --    983.6957              1022.1845              1034.5482
 Red. masses --      1.7512                 1.2617                 1.8500
 Frc consts  --      0.9984                 0.7767                 1.1666
 IR Inten    --      4.0322                 2.6735                 0.8686

                     52                     53                     54
                      A                      A                      A
 Frequencies --   1052.5252              1078.9782              1094.0162
 Red. masses --      2.2449                 2.3280                 1.8762
 Frc consts  --      1.4653                 1.5968                 1.3230
 IR Inten    --     18.8342                 2.5469                60.4531

                     55                     56                     57
                      A                      A                      A
 Frequencies --   1126.9367              1131.3631              1135.2854
 Red. masses --      2.7205                 2.2179                 2.6059
 Frc consts  --      2.0356                 1.6726                 1.9789
 IR Inten    --    127.0905                17.8010                21.2226

                     58                     59                     60
                      A                      A                      A
 Frequencies --   1149.8660              1158.4990              1168.0541
 Red. masses --      1.4022                 1.4780                 2.0816
 Frc consts  --      1.0923                 1.1688                 1.6733
 IR Inten    --      7.6439                14.5517                 2.2880

                     61                     62                     63
                      A                      A                      A
 Frequencies --   1176.9679              1190.9764              1200.6044
 Red. masses --      1.5592                 2.0275                 2.1827
 Frc consts  --      1.2726                 1.6944                 1.8538
 IR Inten    --     15.3338                23.0198               115.2394

                     64                     65                     66
                      A                      A                      A
 Frequencies --   1216.4844              1231.7051              1238.4399
 Red. masses --      2.3470                 2.4094                 2.6737
 Frc consts  --      2.0464                 2.1536                 2.4161
 IR Inten    --     76.7393                15.3752                38.1089

                     67                     68                     69
                      A                      A                      A
 Frequencies --   1277.8662              1286.7462              1296.2164
 Red. masses --      1.9171                 2.0909                 1.5522
 Frc consts  --      1.8445                 2.0397                 1.5366
 IR Inten    --     60.1078                63.7570                29.9805

                     70                     71                     72
                      A                      A                      A
 Frequencies --   1296.3627              1317.2739              1324.6874
 Red. masses --      1.4990                 1.5965                 1.3055
 Frc consts  --      1.4843                 1.6322                 1.3498
 IR Inten    --     31.9072                37.6068                41.6706

                     73                     74                     75
                      A                      A                      A
 Frequencies --   1359.9591              1370.3107              1387.8242
 Red. masses --      2.0019                 1.3035                 1.6574
 Frc consts  --      2.1814                 1.4421                 1.8808
 IR Inten    --     66.9040                65.8508               212.5503

                     76                     77                     78
                      A                      A                      A
 Frequencies --   1391.7662              1397.3018              1408.8262
 Red. masses --      1.7610                 1.5416                 1.7350
 Frc consts  --      2.0097                 1.7734                 2.0290
 IR Inten    --      7.3594               102.2490                21.5884

                     79                     80                     81
                      A                      A                      A
 Frequencies --   1411.0119              1430.5498              1438.5317
 Red. masses --      1.5498                 1.3175                 1.2756
 Frc consts  --      1.8179                 1.5885                 1.5553
 IR Inten    --     93.7971                63.1204                14.6813

                     82                     83                     84
                      A                      A                      A
 Frequencies --   1442.9539              1459.3837              1496.2009
 Red. masses --      1.2655                 1.3268                 1.0810
 Frc consts  --      1.5524                 1.6649                 1.4258
 IR Inten    --      5.9129                20.3081                 2.7302

                     85                     86                     87
                      A                      A                      A
 Frequencies --   1505.7077              1511.7944              1520.7204
 Red. masses --      1.3648                 1.0665                 1.0604
 Frc consts  --      1.8230                 1.4362                 1.4449
 IR Inten    --    108.2002                14.6930                 3.1265

                     88                     89                     90
                      A                      A                      A
 Frequencies --   1523.4371              1526.0984              1526.9331
 Red. masses --      1.0798                 1.0571                 1.0578
 Frc consts  --      1.4765                 1.4506                 1.4531
 IR Inten    --      5.2894                 4.1127                 1.2963

                     91                     92                     93
                      A                      A                      A
 Frequencies --   1532.5001              1533.7742              1535.5335
 Red. masses --      1.0514                 1.0527                 1.0599
 Frc consts  --      1.4549                 1.4590                 1.4724
 IR Inten    --     10.1348                 4.1904                 2.8146

                     94                     95                     96
                      A                      A                      A
 Frequencies --   1541.0306              1544.5417              1546.0912
 Red. masses --      1.0682                 1.0845                 1.0810
 Frc consts  --      1.4946                 1.5243                 1.5224
 IR Inten    --     10.7572                33.1601                27.0232

                     97                     98                     99
                      A                      A                      A
 Frequencies --   1554.0992              1748.9170              1845.2413
 Red. masses --      1.1730                10.2734                 9.8663
 Frc consts  --      1.6692                18.5142                19.7930
 IR Inten    --     26.0280               262.7418               250.8233

                    100                    101                    102
                      A                      A                      A
 Frequencies --   3025.0463              3027.2176              3041.0537
 Red. masses --      1.0708                 1.0446                 1.0429
 Frc consts  --      5.7735                 5.6403                 5.6827
 IR Inten    --     22.5871                41.0885                 7.5565

                    103                    104                    105
                      A                      A                      A
 Frequencies --   3043.6775              3045.3625              3050.2798
 Red. masses --      1.0572                 1.0566                 1.0566
 Frc consts  --      5.7706                 5.7737                 5.7924
 IR Inten    --     40.7313                11.2691                35.2188

                    106                    107                    108
                      A                      A                      A
 Frequencies --   3054.6082              3056.5822              3064.5455
 Red. masses --      1.0777                 1.0378                 1.0446
 Frc consts  --      5.9247                 5.7128                 5.7800
 IR Inten    --     30.6717                20.1623                21.6147

                    109                    110                    111
                      A                      A                      A
 Frequencies --   3072.8971              3080.3585              3083.2841
 Red. masses --      1.0979                 1.0578                 1.0978
 Frc consts  --      6.1081                 5.9138                 6.1487
 IR Inten    --     21.9673                33.1618                39.5906

                    112                    113                    114
                      A                      A                      A
 Frequencies --   3095.3886              3101.8858              3106.6740
 Red. masses --      1.1063                 1.1091                 1.1015
 Frc consts  --      6.2451                 6.2873                 6.2636
 IR Inten    --     13.2746                28.7710                56.9764

                    115                    116                    117
                      A                      A                      A
 Frequencies --   3113.2134              3121.4720              3121.7235
 Red. masses --      1.1015                 1.1007                 1.0929
 Frc consts  --      6.2900                 6.3190                 6.2749
 IR Inten    --     56.8920                21.4684                12.5685

                    118                    119                    120
                      A                      A                      A
 Frequencies --   3123.6545              3136.0311              3146.1068
 Red. masses --      1.1013                 1.1106                 1.1030
 Frc consts  --      6.3311                 6.4352                 6.4327
 IR Inten    --     39.0753                18.9227                14.2585

                    121                    122                    123
                      A                      A                      A
 Frequencies --   3162.7604              3171.1494              3680.0207
 Red. masses --      1.0972                 1.0997                 1.0640
 Frc consts  --      6.4662                 6.5155                 8.4894
 IR Inten    --     12.6052                 8.3583                55.9063

 - Thermochemistry -
 -------------------
 Temperature   298.150 Kelvin.  Pressure   1.00000 Atm.
 Atom     1 has atomic number  6 and mass  12.00000

 Molecular mass:   272.17361 amu.
 Principal axes and moments of inertia in atomic units:
                           1         2         3
     Eigenvalues --  1552.70047********************
           X            0.99996   0.00720  -0.00528
           Y           -0.00725   0.99994  -0.00845
           Z            0.00522   0.00849   0.99995
 This molecule is an asymmetric top.
 Rotational symmetry number  1.
 Warning -- assumption of classical behavior for rotation
           may cause significant error
 Rotational temperatures (Kelvin)      0.05578     0.00610     0.00604
 Rotational constants (GHZ):           1.16232     0.12720     0.12586
 Zero-point vibrational energy     984555.2 (Joules/Mol)
                                  235.31434 (Kcal/Mol)
 Warning -- explicit consideration of  33 degrees of freedom as
           vibrations may cause significant error
 Vibrational temperatures:     28.36    41.16    61.69    69.75    76.18
          (Kelvin)             88.16   130.16   151.63   179.13   190.93
                              204.53   260.75   279.61   309.42   316.40
                              343.53   364.94   386.01   417.32   434.67
                              448.68   479.73   491.83   553.71   574.42
                              592.84   620.29   677.31   698.12   719.33
                              776.54   810.06   867.82   910.44   955.64
                             1020.98  1053.00  1088.55  1116.57  1223.11
                             1241.74  1255.34  1265.70  1307.95  1330.15
                             1336.86  1352.62  1396.19  1415.32  1470.70
                             1488.48  1514.35  1552.41  1574.05  1621.41
                             1627.78  1633.42  1654.40  1666.82  1680.57
                             1693.39  1713.55  1727.40  1750.25  1772.15
                             1781.84  1838.56  1851.34  1864.97  1865.18
                             1895.26  1905.93  1956.68  1971.57  1996.77
                             2002.44  2010.41  2026.99  2030.13  2058.24
                             2069.73  2076.09  2099.73  2152.70  2166.38
                             2175.13  2187.98  2191.89  2195.72  2196.92
                             2204.93  2206.76  2209.29  2217.20  2222.25
                             2224.48  2236.00  2516.30  2654.89  4352.37
                             4355.49  4375.40  4379.17  4381.60  4388.67
                             4394.90  4397.74  4409.20  4421.21  4431.95
                             4436.16  4453.57  4462.92  4469.81  4479.22
                             4491.10  4491.46  4494.24  4512.05  4526.55
                             4550.51  4562.58  5294.73

 Zero-point correction=                           0.374997 (Hartree/Particle)
 Thermal correction to Energy=                    0.396331
 Thermal correction to Enthalpy=                  0.397276
 Thermal correction to Gibbs Free Energy=         0.322943
 Sum of electronic and zero-point Energies=           -919.924868
 Sum of electronic and thermal Energies=              -919.903534
 Sum of electronic and thermal Enthalpies=            -919.902590
 Sum of electronic and thermal Free Energies=         -919.976923

                     E (Thermal)             CV                S
                      KCal/Mol        Cal/Mol-Kelvin    Cal/Mol-Kelvin
 Total                  248.702             78.303            156.447
 Electronic               0.000              0.000              0.000
 Translational            0.889              2.981             42.703
 Rotational               0.889              2.981             34.112
 Vibrational            246.924             72.341             79.632
 Vibration     1          0.593              1.986              6.663
 Vibration     2          0.593              1.984              5.924
 Vibration     3          0.595              1.980              5.121
 Vibration     4          0.595              1.978              4.878
 Vibration     5          0.596              1.976              4.704
 Vibration     6          0.597              1.973              4.416
 Vibration     7          0.602              1.956              3.650
 Vibration     8          0.605              1.945              3.352
 Vibration     9          0.610              1.928              3.029
 Vibration    10          0.613              1.921              2.907
 Vibration    11          0.616              1.911              2.775
 Vibration    12          0.630              1.865              2.316
 Vibration    13          0.635              1.848              2.186
 Vibration    14          0.645              1.818              2.000
 Vibration    15          0.647              1.811              1.960
 Vibration    16          0.657              1.781              1.812
 Vibration    17          0.665              1.757              1.705
 Vibration    18          0.673              1.731              1.607
 Vibration    19          0.686              1.692              1.474
 Vibration    20          0.694              1.670              1.405
 Vibration    21          0.700              1.651              1.353
 Vibration    22          0.715              1.609              1.243
 Vibration    23          0.721              1.592              1.204
 Vibration    24          0.754              1.503              1.020
 Vibration    25          0.765              1.472              0.965
 Vibration    26          0.776              1.444              0.919
 Vibration    27          0.792              1.402              0.855
 Vibration    28          0.828              1.315              0.735
 Vibration    29          0.841              1.283              0.696
 Vibration    30          0.855              1.250              0.658
 Vibration    31          0.895              1.162              0.566
 Vibration    32          0.919              1.111              0.518
 Vibration    33          0.962              1.025              0.444

 Optimization completed.
    -- Stationary point found.
 Normal termination of Gaussian 16 at Sun Dec 13 16:38:36 2020.

 ----------------------------------------------------------------------
 # B3LYP/6-311++G(d,p) empiricaldispersion=gd3bj scf=xqc pop=npa geom=c
 heck
 ----------------------------------------------------------------------

 ---------------------------------------
 CID_102658615_JID_9045_Energie_neutraal
 ---------------------------------------
 Structure from the checkpoint file:  "JID_9045.chk"
 Charge =  0 Multiplicity = 1

 SCF Done:  E(RB3LYP) =  -920.573004005     A.U. after   14 cycles
 Normal termination of Gaussian 16 at Sun Dec 13 16:48:33 2020.

 ----------------------------------------------------------------------
 # B3LYP/6-311++G(d,p) empiricaldispersion=gd3bj scf=xqc pop=npa geom=c
 heck
 ----------------------------------------------------------------------

 -------------------------------------
 CID_102658615_JID_9045_Energie_kation
 -------------------------------------
 Structure from the checkpoint file:  "JID_9045.chk"
 Charge =  1 Multiplicity = 2

 SCF Done:  E(UB3LYP) =  -920.271723610     A.U. after   27 cycles
 Normal termination of Gaussian 16 at Sun Dec 13 17:15:14 2020.
 Gaussian 16:  ES64L-G16RevA.03 25-Dec-2016

 ----------------------------------------------------------------------
 # B3LYP/6-311++G(d,p) empiricaldispersion=gd3bj scf=xqc pop=npa geom=c
 heck
 ----------------------------------------------------------------------

 ------------------------------------
 CID_102658615_JID_9045_Energie_anion
 ------------------------------------
 Structure from the checkpoint file:  "JID_9045.chk"
 Charge = -1 Multiplicity = 2

                         Standard orientation:
 ---------------------------------------------------------------------
 Center     Atomic      Atomic             Coordinates (Angstroms)
 Number     Number       Type             X           Y           Z
 ---------------------------------------------------------------------
      1          6           0        6.400407    0.947211   -0.007055
      2          6           0        5.748232   -0.428341   -0.181288
      3          6           0        4.303237   -0.509864    0.330230
      4          6           0        3.319616    0.469258   -0.337168
      5          6           0        3.205160    0.289080   -1.853256
      6          7           0        1.999371    0.424080    0.326564
      7          6           0        1.789774    1.377478    1.407574
      8          6           0        1.189110   -0.674824    0.161022
      9          8           0        1.533797   -1.706116   -0.414037
     10          7           0       -0.096131   -0.548800    0.697780
     11          6           0       -1.115361   -1.553249    0.338289
     12          6           0       -2.185623   -0.440462    0.367467
     13          6           0       -1.010383    0.582631    0.412976
     14          6           0       -3.057877   -0.436383    1.614988
     15          8           0       -2.924253   -0.451963   -0.846746
     16          6           0       -3.744568    0.670298   -1.062220
     17          6           0       -5.149154    0.587185   -0.474190
     18          8           0       -5.807507    1.558135   -0.173230
     19          8           0       -5.605153   -0.679146   -0.381383
     20          1           0        5.910553    1.712960   -0.619727
     21          1           0        7.456510    0.924192   -0.297611
     22          1           0        6.349303    1.277389    1.038279
     23          1           0        5.785400   -0.721424   -1.238116
     24          1           0        6.342484   -1.177309    0.357842
     25          1           0        3.911933   -1.521271    0.189105
     26          1           0        4.298134   -0.312576    1.412244
     27          1           0        3.670802    1.492310   -0.160035
     28          1           0        2.922491   -0.733822   -2.106114
     29          1           0        2.448847    0.970802   -2.256997
     30          1           0        4.161084    0.523450   -2.332531
     31          1           0        1.443088    2.353521    1.041347
     32          1           0        1.060051    0.984004    2.116078
     33          1           0        2.732123    1.531636    1.946220
     34          1           0       -0.966036   -1.963634   -0.664088
     35          1           0       -1.224778   -2.366601    1.061932
     36          1           0       -1.049364    1.350873    1.191960
     37          1           0       -0.819291    1.051848   -0.560093
     38          1           0       -3.634739    0.491121    1.706889
     39          1           0       -3.752790   -1.280491    1.593873
     40          1           0       -2.424058   -0.520724    2.503673
     41          1           0       -3.295932    1.602353   -0.695889
     42          1           0       -3.865194    0.766696   -2.148261
     43          1           0       -6.513791   -0.609646   -0.031435
 ---------------------------------------------------------------------

 SCF Done:  E(UB3LYP) =  -920.566053610     A.U. after   33 cycles
 SCF Done:  E(UB3LYP) =  -920.566053610     a.u. after    1 cycles

 The electronic state is 2-A.
 Alpha  occ. eigenvalues --  -19.08778 -19.05484 -19.03608 -18.99232 -14.24757
 Alpha  occ. eigenvalues --  -14.24118 -10.22570 -10.19919 -10.15698 -10.15526
 Alpha  occ. eigenvalues --  -10.12377 -10.12111 -10.11280 -10.11242 -10.08735
 Alpha  occ. eigenvalues --  -10.08150 -10.08017 -10.07694 -10.07074  -1.03111
 Alpha  occ. eigenvalues --   -0.97278  -0.95808  -0.94158  -0.86358  -0.84550
 Alpha  occ. eigenvalues --   -0.72372  -0.70194  -0.66773  -0.65272  -0.62508
 Alpha  occ. eigenvalues --   -0.61101  -0.60105  -0.59694  -0.54916  -0.53683
 Alpha  occ. eigenvalues --   -0.49893  -0.48533  -0.45695  -0.42866  -0.41913
 Alpha  occ. eigenvalues --   -0.41573  -0.41242  -0.40537  -0.39638  -0.38664
 Alpha  occ. eigenvalues --   -0.37689  -0.37118  -0.35690  -0.35070  -0.34697
 Alpha  occ. eigenvalues --   -0.33934  -0.33573  -0.33206  -0.32437  -0.32050
 Alpha  occ. eigenvalues --   -0.31834  -0.31628  -0.30155  -0.29253  -0.28979
 Alpha  occ. eigenvalues --   -0.28247  -0.27495  -0.27320  -0.26723  -0.25536
 Alpha  occ. eigenvalues --   -0.24495  -0.24484  -0.24224  -0.23680  -0.21633
 Alpha  occ. eigenvalues --   -0.18893  -0.17670  -0.15907  -0.15010   0.03499
 Alpha virt. eigenvalues --    0.04845   0.05926   0.06466   0.06920   0.07213
 Alpha virt. eigenvalues --    0.07765   0.08119   0.08579   0.09225   0.09891
 Alpha virt. eigenvalues --    0.10197   0.10374   0.10621   0.11030   0.11513

  Beta  occ. eigenvalues --  -19.08723 -19.05482 -19.03591 -18.99231 -14.24754
  Beta  occ. eigenvalues --  -14.24115 -10.22563 -10.19918 -10.15698 -10.15498
  Beta  occ. eigenvalues --  -10.12370 -10.12086 -10.11276 -10.11207 -10.08730
  Beta  occ. eigenvalues --  -10.08123 -10.07992 -10.07688 -10.07065  -1.03036
  Beta  occ. eigenvalues --   -0.97273  -0.95805  -0.94096  -0.86350  -0.84539
  Beta  occ. eigenvalues --   -0.72357  -0.70174  -0.66747  -0.65214  -0.62469
  Beta  occ. eigenvalues --   -0.61066  -0.60075  -0.59655  -0.54875  -0.53595
  Beta  occ. eigenvalues --   -0.49855  -0.48499  -0.45658  -0.42834  -0.41883
  Beta  occ. eigenvalues --   -0.41542  -0.41204  -0.40499  -0.39612  -0.38642
  Beta  occ. eigenvalues --   -0.37666  -0.37094  -0.35659  -0.35050  -0.34671
  Beta  occ. eigenvalues --   -0.33906  -0.33547  -0.33181  -0.32414  -0.32013
  Beta  occ. eigenvalues --   -0.31803  -0.31595  -0.30136  -0.29237  -0.28957
  Beta  occ. eigenvalues --   -0.28224  -0.27472  -0.27299  -0.26702  -0.25521
  Beta  occ. eigenvalues --   -0.24474  -0.24437  -0.24203  -0.23661  -0.21604
  Beta  occ. eigenvalues --   -0.18876  -0.17654  -0.15898  -0.14993
  Beta virt. eigenvalues --    0.05366   0.05941   0.06683   0.06909   0.07167
  Beta virt. eigenvalues --    0.07551   0.07934   0.08400   0.08883   0.09564
  Beta virt. eigenvalues --    0.09998   0.10467   0.10537   0.10775   0.11045

 Mulliken charges and spin densities:
               1          2
     1  C    0.361512  -0.951607
     2  C   -0.787453   0.619272
     3  C    0.714737  -0.658730
     4  C   -1.160398   0.672757
     5  C   -0.247342  -0.313915
     6  N    0.315422   0.071333
     7  C    0.909430  -1.253497
     8  C   -0.119645  -0.058234
     9  O   -0.295837   0.000043
    10  N    0.007999  -0.012447
    11  C   -0.258769  -0.294000
    12  C   -0.694887   0.907109
    13  C   -0.359143  -0.341052
    14  C    0.708893  -1.096323
    15  O    0.031153   0.010060
    16  C    0.595952  -0.743497
    17  C   -0.187703  -0.032513
    18  O   -0.252324   0.035238
    19  O   -0.133961   0.006683
    20  H   -0.165610   0.301550
    21  H   -0.085260   0.223297
    22  H   -0.086441   0.227479
    23  H    0.124763   0.007794
    24  H    0.069208   0.083216
    25  H    0.192568  -0.001085
    26  H    0.031494   0.103235
    27  H    0.158215   0.053107
    28  H    0.158153   0.040796
    29  H   -0.005877   0.136627
    30  H    0.137716   0.013261
    31  H   -0.498193   0.677737
    32  H    0.033977   0.149858
    33  H   -0.173947   0.324631
    34  H    0.225492  -0.008699
    35  H    0.066564   0.122216
    36  H   -0.016801   0.205131
    37  H    0.147581   0.057677
    38  H   -0.048478   0.230820
    39  H    0.126484   0.056446
    40  H   -0.103590   0.277949
    41  H   -0.023125   0.237499
    42  H   -0.063332   0.264611
    43  H   -0.349199   0.648167
 Sum of Mulliken charges =  -1.00000   1.00000

 Dipole moment (field-independent basis, Debye):
    X=              3.7986    Y=             -2.2085    Z=             -1.0494  Tot=              4.5175
 Quadrupole moment (field-independent basis, Debye-Ang):
   XX=           -255.7128   YY=           -161.8944   ZZ=           -148.0323
   XY=             -6.9322   XZ=             -2.6456   YZ=             -5.8663

 Summary of Natural Population Analysis:

                                       Natural Population
                Natural  -----------------------------------------------
    Atom  No    Charge         Core      Valence    Rydberg      Total
 -----------------------------------------------------------------------
      C    1   -0.28916      0.99967     2.28473    0.00475     3.28916
      C    2   -0.19181      0.99964     2.18381    0.00836     3.19181
      C    3   -0.19856      0.99960     2.18985    0.00911     3.19856
      C    4    0.00027      0.99959     1.98750    0.01264     2.99973
      C    5   -0.29459      0.99964     2.28849    0.00646     3.29459
      N    6   -0.26670      0.99964     2.75481    0.01226     3.76670
      C    7   -0.17667      0.99963     2.16861    0.00844     3.17667
      C    8    0.41809      0.99962     1.55880    0.02349     2.58191
      O    9   -0.33927      0.99988     3.33508    0.00432     4.33927
      N   10   -0.28115      0.99967     2.77127    0.01021     3.78115
      C   11   -0.07449      0.99959     2.06470    0.01021     3.07449
      C   12    0.13020      0.99948     1.85388    0.01644     2.86980
      C   13   -0.09066      0.99958     2.08023    0.01084     3.09066
      C   14   -0.30421      0.99961     2.29806    0.00654     3.30421
      O   15   -0.29470      0.99986     3.28498    0.00986     4.29470
      C   16   -0.05979      0.99952     2.04770    0.01257     3.05979
      C   17    0.39048      0.99974     1.58405    0.02573     2.60952
      O   18   -0.30479      0.99987     3.29842    0.00650     4.30479
      O   19   -0.33705      0.99987     3.32944    0.00774     4.33705
      H   20    0.09675      0.00000     0.40232    0.00093     0.40325
      H   21    0.09786      0.00000     0.40139    0.00075     0.40214
      H   22    0.09775      0.00000     0.40121    0.00104     0.40225
      H   23    0.09369      0.00000     0.40528    0.00102     0.40631
      H   24    0.09536      0.00000     0.40376    0.00087     0.40464
      H   25    0.11235      0.00000     0.38659    0.00106     0.38765
      H   26    0.09549      0.00000     0.40342    0.00109     0.40451
      H   27    0.09578      0.00000     0.40209    0.00213     0.40422
      H   28    0.11240      0.00000     0.38675    0.00086     0.38760
      H   29    0.10240      0.00000     0.39667    0.00093     0.39760
      H   30    0.09749      0.00000     0.40188    0.00063     0.40251
      H   31    0.09557      0.00000     0.40265    0.00178     0.40443
      H   32    0.10570      0.00000     0.39280    0.00150     0.39430
      H   33    0.09652      0.00000     0.40221    0.00128     0.40348
      H   34    0.10824      0.00000     0.39047    0.00130     0.39176
      H   35    0.09479      0.00000     0.40418    0.00104     0.40521
      H   36    0.09780      0.00000     0.40063    0.00158     0.40220
      H   37    0.09869      0.00000     0.39962    0.00169     0.40131
      H   38    0.10321      0.00000     0.39563    0.00117     0.39679
      H   39    0.11016      0.00000     0.38871    0.00113     0.38984
      H   40    0.10747      0.00000     0.39140    0.00113     0.39253
      H   41    0.09740      0.00000     0.40118    0.00141     0.40260
      H   42    0.10722      0.00000     0.39163    0.00114     0.39278
      H   43    0.24449      0.00000     0.24195    0.01356     0.25551
 =======================================================================
   * Total *   -0.00000     18.99368    54.75882    0.24750    74.00000

 Normal termination of Gaussian 16 at Sun Dec 13 17:48:21 2020.
