 Gaussian 16, Revision A.03,

 -----------------------------------------------------------
 # opt freq B3LYP/6-31G(d) empiricaldispersion=gd3bj scf=xqc
 -----------------------------------------------------------

 ------------------------------
 CID_96662624_JID_8533_neutraal
 ------------------------------
 Symbolic Z-matrix:
 Charge =  0 Multiplicity = 1

 SCF Done:  E(RB3LYP) =  -784.449736863     A.U. after   14 cycles
 SCF Done:  E(RB3LYP) =  -784.455239791     A.U. after   12 cycles
 SCF Done:  E(RB3LYP) =  -784.456353492     A.U. after   11 cycles
 SCF Done:  E(RB3LYP) =  -784.457507772     A.U. after   13 cycles
 SCF Done:  E(RB3LYP) =  -784.458426847     A.U. after   12 cycles
 SCF Done:  E(RB3LYP) =  -784.459223313     A.U. after   12 cycles
 SCF Done:  E(RB3LYP) =  -784.459578689     A.U. after   12 cycles
 SCF Done:  E(RB3LYP) =  -784.459922584     A.U. after   12 cycles
 SCF Done:  E(RB3LYP) =  -784.460175940     A.U. after   14 cycles
 SCF Done:  E(RB3LYP) =  -784.459219398     A.U. after   15 cycles
 SCF Done:  E(RB3LYP) =  -784.462680735     A.U. after   10 cycles
 SCF Done:  E(RB3LYP) =  -784.462684037     A.U. after    9 cycles
 SCF Done:  E(RB3LYP) =  -784.462685193     A.U. after    9 cycles
 SCF Done:  E(RB3LYP) =  -784.462685593     A.U. after    8 cycles
 SCF Done:  E(RB3LYP) =  -784.462685761     A.U. after    7 cycles
 Optimization completed.
    -- Stationary point found.
 Normal termination of Gaussian 16 at Fri Dec 11 21:31:51 2020.

 --------------------------------------------------------------------
 #N Geom=AllCheck Guess=TCheck SCRF=Check GenChk RB3LYP/6-31G(d) Freq
 --------------------------------------------------------------------

 Structure from the checkpoint file:  "JID_8533.chk"
 ------------------------------
 CID_96662624_JID_8533_neutraal
 ------------------------------
 Charge =  0 Multiplicity = 1

 SCF Done:  E(RB3LYP) =  -784.462685761     A.U. after    1 cycles

  Exact polarizability: 239.849  10.768 172.257  -2.727  14.276 106.363
 Approx polarizability: 331.058  13.683 255.298  -8.906  38.352 172.843

                      1                      2                      3
                      A                      A                      A
 Frequencies --     26.9804                33.6175                48.9714
 Red. masses --      3.7553                 3.4419                 3.6139
 Frc consts  --      0.0016                 0.0023                 0.0051
 IR Inten    --      1.3983                 1.3443                 1.3438

                      4                      5                      6
                      A                      A                      A
 Frequencies --     71.4542                87.7330               113.3698
 Red. masses --      3.5587                 5.0490                 2.7845
 Frc consts  --      0.0107                 0.0229                 0.0211
 IR Inten    --      0.2290                 0.5912                 0.0904

                      7                      8                      9
                      A                      A                      A
 Frequencies --    124.7551               144.2093               156.6832
 Red. masses --      1.9012                 1.9443                 2.2315
 Frc consts  --      0.0174                 0.0238                 0.0323
 IR Inten    --      0.9286                 0.4949                 0.1753

                     10                     11                     12
                      A                      A                      A
 Frequencies --    189.0943               199.4722               210.9420
 Red. masses --      3.9856                 1.2881                 3.0700
 Frc consts  --      0.0840                 0.0302                 0.0805
 IR Inten    --      0.9442                 1.1336                 1.6290

                     13                     14                     15
                      A                      A                      A
 Frequencies --    243.9741               272.6212               323.0913
 Red. masses --      2.4683                 2.5086                 5.4057
 Frc consts  --      0.0866                 0.1099                 0.3325
 IR Inten    --      3.8956                 3.9441                 2.2590

                     16                     17                     18
                      A                      A                      A
 Frequencies --    329.0922               333.4755               356.9640
 Red. masses --      1.6773                 2.9707                 1.8532
 Frc consts  --      0.1070                 0.1946                 0.1391
 IR Inten    --     36.1044                 3.8153                34.0627

                     19                     20                     21
                      A                      A                      A
 Frequencies --    379.2698               422.2838               427.9431
 Red. masses --      3.3954                 4.0339                 3.2215
 Frc consts  --      0.2878                 0.4238                 0.3476
 IR Inten    --      1.8922                13.2039                 0.7893

                     22                     23                     24
                      A                      A                      A
 Frequencies --    440.0527               463.1607               506.8721
 Red. masses --      2.0490                 1.8106                 2.9613
 Frc consts  --      0.2338                 0.2288                 0.4483
 IR Inten    --     30.5214                31.5014                10.2281

                     25                     26                     27
                      A                      A                      A
 Frequencies --    523.6974               564.5697               606.2594
 Red. masses --      3.4879                 2.6943                 3.9572
 Frc consts  --      0.5636                 0.5060                 0.8570
 IR Inten    --      2.7753                 5.2728                16.5947

                     28                     29                     30
                      A                      A                      A
 Frequencies --    649.6958               660.2319               675.6707
 Red. masses --      5.4278                 3.6234                 3.2417
 Frc consts  --      1.3499                 0.9306                 0.8720
 IR Inten    --      0.7092                 9.1260                23.5998

                     31                     32                     33
                      A                      A                      A
 Frequencies --    728.0763               746.5519               768.6812
 Red. masses --      4.3374                 5.4723                 4.3560
 Frc consts  --      1.3547                 1.7970                 1.5165
 IR Inten    --      2.8879                 5.0357                 0.3624

                     34                     35                     36
                      A                      A                      A
 Frequencies --    805.4007               828.8510               832.9695
 Red. masses --      2.5838                 1.2797                 1.4164
 Frc consts  --      0.9875                 0.5180                 0.5790
 IR Inten    --      1.8857                 5.2438                 0.3772

                     37                     38                     39
                      A                      A                      A
 Frequencies --    851.3200               882.7115               920.8886
 Red. masses --      1.6671                 2.2420                 2.4016
 Frc consts  --      0.7119                 1.0292                 1.2000
 IR Inten    --     46.3113                39.7693                 8.5083

                     40                     41                     42
                      A                      A                      A
 Frequencies --    926.7349               943.4579               951.2209
 Red. masses --      1.3817                 1.7027                 1.3230
 Frc consts  --      0.6991                 0.8930                 0.7053
 IR Inten    --     65.4319                39.1282                 3.3504

                     43                     44                     45
                      A                      A                      A
 Frequencies --    960.1054              1012.1548              1025.2664
 Red. masses --      1.2857                 1.5434                 4.5393
 Frc consts  --      0.6983                 0.9316                 2.8113
 IR Inten    --      0.2059                 0.3711                14.6517

                     46                     47                     48
                      A                      A                      A
 Frequencies --   1045.5814              1067.3447              1074.6401
 Red. masses --      3.0931                 3.3983                 1.5667
 Frc consts  --      1.9923                 2.2810                 1.0660
 IR Inten    --     18.5201                24.1661                 3.7304

                     49                     50                     51
                      A                      A                      A
 Frequencies --   1078.2392              1080.8878              1131.4386
 Red. masses --      2.7154                 3.2143                 2.0420
 Frc consts  --      1.8600                 2.2126                 1.5402
 IR Inten    --     30.0534                18.8496                41.0739

                     52                     53                     54
                      A                      A                      A
 Frequencies --   1138.4429              1148.5704              1171.4798
 Red. masses --      1.9095                 1.3618                 1.7759
 Frc consts  --      1.4581                 1.0585                 1.4359
 IR Inten    --      2.9478                 7.8126                22.7965

                     55                     56                     57
                      A                      A                      A
 Frequencies --   1205.6587              1207.7317              1215.6677
 Red. masses --      1.6405                 1.8588                 1.1940
 Frc consts  --      1.4050                 1.5974                 1.0396
 IR Inten    --      5.1371                 2.7207                49.3825

                     58                     59                     60
                      A                      A                      A
 Frequencies --   1246.1868              1282.1082              1286.8826
 Red. masses --      1.3627                 2.4734                 2.5720
 Frc consts  --      1.2469                 2.3955                 2.5095
 IR Inten    --      7.7219               108.8642               227.1320

                     61                     62                     63
                      A                      A                      A
 Frequencies --   1325.1798              1330.8046              1343.0992
 Red. masses --      2.3356                 1.8653                 1.6518
 Frc consts  --      2.4165                 1.9463                 1.7556
 IR Inten    --     11.1193                 3.5263                32.9025

                     64                     65                     66
                      A                      A                      A
 Frequencies --   1355.2070              1367.9780              1375.4612
 Red. masses --      2.1530                 1.3559                 1.4737
 Frc consts  --      2.3297                 1.4950                 1.6427
 IR Inten    --     90.3773                 5.7288                 6.5270

                     67                     68                     69
                      A                      A                      A
 Frequencies --   1421.1810              1435.1983              1443.7469
 Red. masses --      1.2734                 1.7644                 1.2999
 Frc consts  --      1.5153                 2.1413                 1.5964
 IR Inten    --      0.1792                 5.5079                23.2326

                     70                     71                     72
                      A                      A                      A
 Frequencies --   1450.1905              1455.3372              1465.0079
 Red. masses --      1.4098                 1.7323                 2.8005
 Frc consts  --      1.7468                 2.1618                 3.5413
 IR Inten    --      8.5192                23.8716                 3.1361

                     73                     74                     75
                      A                      A                      A
 Frequencies --   1497.5127              1503.5457              1512.9233
 Red. masses --      1.4020                 2.3719                 1.5962
 Frc consts  --      1.8524                 3.1592                 2.1527
 IR Inten    --     19.5163                11.2089                 7.1140

                     76                     77                     78
                      A                      A                      A
 Frequencies --   1514.5613              1516.4867              1532.0403
 Red. masses --      1.1341                 1.0447                 1.0513
 Frc consts  --      1.5328                 1.4155                 1.4539
 IR Inten    --      8.3248                 4.8176                 1.7617

                     79                     80                     81
                      A                      A                      A
 Frequencies --   1538.6047              1542.4171              1547.9379
 Red. masses --      1.1254                 1.7471                 1.1124
 Frc consts  --      1.5697                 2.4489                 1.5704
 IR Inten    --      1.4741                 2.9706                 4.3859

                     82                     83                     84
                      A                      A                      A
 Frequencies --   1571.3363              1618.3095              1633.3412
 Red. masses --      2.8132                 5.9480                 5.8735
 Frc consts  --      4.0925                 9.1779                 9.2321
 IR Inten    --    157.8204                12.4854                50.1031

                     85                     86                     87
                      A                      A                      A
 Frequencies --   1678.2745              1700.6763              2961.5112
 Red. masses --      5.9432                 1.0854                 1.0727
 Frc consts  --      9.8627                 1.8497                 5.5434
 IR Inten    --     43.8051                53.8275                75.4486

                     88                     89                     90
                      A                      A                      A
 Frequencies --   3035.9322              3041.2035              3046.8303
 Red. masses --      1.0640                 1.0409                 1.0675
 Frc consts  --      5.7781                 5.6721                 5.8388
 IR Inten    --     15.7397                37.3382                44.6107

                     91                     92                     93
                      A                      A                      A
 Frequencies --   3061.4313              3063.0162              3082.3200
 Red. masses --      1.0364                 1.0903                 1.0968
 Frc consts  --      5.7228                 6.0267                 6.1393
 IR Inten    --     14.8837                61.6125                20.3737

                     94                     95                     96
                      A                      A                      A
 Frequencies --   3093.7331              3111.5783              3130.5834
 Red. masses --      1.0991                 1.0983                 1.1011
 Frc consts  --      6.1980                 6.2649                 6.3584
 IR Inten    --     21.2756                19.9194                32.0039

                     97                     98                     99
                      A                      A                      A
 Frequencies --   3140.4823              3145.8546              3195.4705
 Red. masses --      1.0988                 1.1033                 1.0875
 Frc consts  --      6.3850                 6.4332                 6.5427
 IR Inten    --      8.9112                43.1906                13.1252

                    100                    101                    102
                      A                      A                      A
 Frequencies --   3204.2999              3215.8590              3228.7003
 Red. masses --      1.0883                 1.0940                 1.0921
 Frc consts  --      6.5834                 6.6661                 6.7075
 IR Inten    --     12.4134                10.1326                14.1751

                    103                    104                    105
                      A                      A                      A
 Frequencies --   3458.6040              3545.8736              3663.4174
 Red. masses --      1.0498                 1.0920                 1.0810
 Frc consts  --      7.3986                 8.0898                 8.5477
 IR Inten    --     28.9885                 5.7836                78.2992

 - Thermochemistry -
 -------------------
 Temperature   298.150 Kelvin.  Pressure   1.00000 Atm.
 Atom     1 has atomic number  6 and mass  12.00000

 Molecular mass:   245.15281 amu.
 Principal axes and moments of inertia in atomic units:
                           1         2         3
     Eigenvalues --  2591.958088591.70871**********
           X            0.99996   0.00876   0.00299
           Y           -0.00875   0.99996  -0.00207
           Z           -0.00300   0.00205   0.99999
 This molecule is an asymmetric top.
 Rotational symmetry number  1.
 Warning -- assumption of classical behavior for rotation
           may cause significant error
 Rotational temperatures (Kelvin)      0.03342     0.01008     0.00806
 Rotational constants (GHZ):           0.69628     0.21006     0.16785
 Zero-point vibrational energy     832927.0 (Joules/Mol)
                                  199.07433 (Kcal/Mol)
 Warning -- explicit consideration of  27 degrees of freedom as
           vibrations may cause significant error
 Vibrational temperatures:     38.82    48.37    70.46   102.81   126.23
          (Kelvin)            163.11   179.49   207.48   225.43   272.06
                              287.00   303.50   351.02   392.24   464.86
                              473.49   479.80   513.59   545.68   607.57
                              615.71   633.14   666.38   729.28   753.48
                              812.29   872.27   934.77   949.93   972.14
                             1047.54  1074.12  1105.96  1158.79  1192.53
                             1198.46  1224.86  1270.03  1324.95  1333.36
                             1357.43  1368.59  1381.38  1456.27  1475.13
                             1504.36  1535.67  1546.17  1551.35  1555.16
                             1627.89  1637.97  1652.54  1685.50  1734.67
                             1737.66  1749.07  1792.98  1844.67  1851.54
                             1906.64  1914.73  1932.42  1949.84  1968.22
                             1978.98  2044.76  2064.93  2077.23  2086.50
                             2093.91  2107.82  2154.59  2163.27  2176.76
                             2179.12  2181.89  2204.26  2213.71  2219.19
                             2227.14  2260.80  2328.39  2350.01  2414.66
                             2446.89  4260.95  4368.03  4375.61  4383.71
                             4404.72  4407.00  4434.77  4451.19  4476.87
                             4504.21  4518.45  4526.18  4597.57  4610.27
                             4626.90  4645.38  4976.16  5101.72  5270.84

 Zero-point correction=                           0.317245 (Hartree/Particle)
 Thermal correction to Energy=                    0.335003
 Thermal correction to Enthalpy=                  0.335947
 Thermal correction to Gibbs Free Energy=         0.270375
 Sum of electronic and zero-point Energies=           -784.145441
 Sum of electronic and thermal Energies=              -784.127683
 Sum of electronic and thermal Enthalpies=            -784.126739
 Sum of electronic and thermal Free Energies=         -784.192310

                     E (Thermal)             CV                S
                      KCal/Mol        Cal/Mol-Kelvin    Cal/Mol-Kelvin
 Total                  210.218             67.123            138.007
 Electronic               0.000              0.000              0.000
 Translational            0.889              2.981             42.391
 Rotational               0.889              2.981             33.837
 Vibrational            208.440             61.161             61.780
 Vibration     1          0.593              1.984              6.040
 Vibration     2          0.594              1.983              5.604
 Vibration     3          0.595              1.978              4.858
 Vibration     4          0.598              1.968              4.113
 Vibration     5          0.601              1.958              3.710
 Vibration     6          0.607              1.938              3.210
 Vibration     7          0.610              1.928              3.025
 Vibration     8          0.616              1.909              2.747
 Vibration     9          0.620              1.895              2.589
 Vibration    10          0.633              1.855              2.237
 Vibration    11          0.638              1.841              2.138
 Vibration    12          0.643              1.824              2.036
 Vibration    13          0.659              1.773              1.774
 Vibration    14          0.676              1.724              1.580
 Vibration    15          0.708              1.629              1.294
 Vibration    16          0.712              1.617              1.265
 Vibration    17          0.715              1.609              1.243
 Vibration    18          0.732              1.561              1.135
 Vibration    19          0.749              1.514              1.042
 Vibration    20          0.785              1.422              0.884
 Vibration    21          0.789              1.409              0.865
 Vibration    22          0.800              1.383              0.826
 Vibration    23          0.821              1.332              0.757
 Vibration    24          0.862              1.235              0.641
 Vibration    25          0.879              1.198              0.601
 Vibration    26          0.920              1.108              0.515
 Vibration    27          0.965              1.019              0.439

 Optimization completed.
    -- Stationary point found.
 Normal termination of Gaussian 16 at Fri Dec 11 21:48:33 2020.

 ----------------------------------------------------------------------
 # B3LYP/6-311++G(d,p) empiricaldispersion=gd3bj scf=xqc pop=npa geom=c
 heck
 ----------------------------------------------------------------------

 --------------------------------------
 CID_96662624_JID_8533_Energie_neutraal
 --------------------------------------
 Structure from the checkpoint file:  "JID_8533.chk"
 Charge =  0 Multiplicity = 1

 SCF Done:  E(RB3LYP) =  -784.681077453     A.U. after   15 cycles
 Normal termination of Gaussian 16 at Fri Dec 11 21:56:24 2020.

 ----------------------------------------------------------------------
 # B3LYP/6-311++G(d,p) empiricaldispersion=gd3bj scf=xqc pop=npa geom=c
 heck
 ----------------------------------------------------------------------

 ------------------------------------
 CID_96662624_JID_8533_Energie_kation
 ------------------------------------
 Structure from the checkpoint file:  "JID_8533.chk"
 Charge =  1 Multiplicity = 2

 SCF Done:  E(UB3LYP) =  -784.414280081     A.U. after   26 cycles
 Normal termination of Gaussian 16 at Fri Dec 11 22:16:31 2020.
 Gaussian 16:  ES64L-G16RevA.03 25-Dec-2016

 ----------------------------------------------------------------------
 # B3LYP/6-311++G(d,p) empiricaldispersion=gd3bj scf=xqc pop=npa geom=c
 heck
 ----------------------------------------------------------------------

 -----------------------------------
 CID_96662624_JID_8533_Energie_anion
 -----------------------------------
 Structure from the checkpoint file:  "JID_8533.chk"
 Charge = -1 Multiplicity = 2

                         Standard orientation:
 ---------------------------------------------------------------------
 Center     Atomic      Atomic             Coordinates (Angstroms)
 Number     Number       Type             X           Y           Z
 ---------------------------------------------------------------------
      1          6           0        5.005353    1.960297   -0.273106
      2          6           0        5.060982    0.635874    0.479330
      3          8           0        4.313247   -0.392283   -0.171142
      4          6           0        2.951276   -0.396927   -0.067356
      5          6           0        2.197124    0.471178    0.730651
      6          6           0        0.808400    0.345893    0.770662
      7          6           0        0.130627   -0.624658    0.020485
      8          6           0        0.908547   -1.479425   -0.782767
      9          6           0        2.291677   -1.374615   -0.824481
     10          6           0       -1.333025   -0.743594    0.069555
     11          6           0       -2.076272   -1.918978    0.144399
     12          7           0       -3.378721   -1.529951    0.154302
     13          7           0       -3.543282   -0.187326    0.092908
     14          6           0       -2.304590    0.305217    0.041924
     15          6           0       -2.056185    1.785296   -0.062991
     16          6           0       -3.206522    2.576239   -0.695087
     17          7           0       -4.341496    2.669231    0.228839
     18          6           0       -1.665900   -3.352919    0.226109
     19          1           0        5.367795    1.826025   -1.297005
     20          1           0        5.637852    2.703862    0.224983
     21          1           0        3.985786    2.353339   -0.321512
     22          1           0        6.084751    0.252435    0.501042
     23          1           0        4.728919    0.746435    1.519740
     24          1           0        2.672769    1.238750    1.329233
     25          1           0        0.241025    1.012000    1.412855
     26          1           0        0.414894   -2.222817   -1.401599
     27          1           0        2.887625   -2.034007   -1.447352
     28          1           0       -4.194375   -2.119428    0.220131
     29          1           0       -1.868236    2.208126    0.933574
     30          1           0       -1.139911    1.936981   -0.646098
     31          1           0       -2.852477    3.594336   -0.899451
     32          1           0       -3.452110    2.117368   -1.669623
     33          1           0       -5.092593    3.196011   -0.215078
     34          1           0       -4.695308    1.724269    0.375830
     35          1           0       -2.330458   -3.919818    0.888584
     36          1           0       -1.677572   -3.844723   -0.755200
     37          1           0       -0.648815   -3.427830    0.619779
 ---------------------------------------------------------------------

 SCF Done:  E(UB3LYP) =  -784.670410633     A.U. after   33 cycles
 SCF Done:  E(UB3LYP) =  -784.670410633     a.u. after    1 cycles

 The electronic state is 2-A.
 Alpha  occ. eigenvalues --  -19.06530 -14.28706 -14.23483 -14.20079 -10.14826
 Alpha  occ. eigenvalues --  -10.14187 -10.12258 -10.10733 -10.10464 -10.09374
 Alpha  occ. eigenvalues --  -10.08943 -10.08847 -10.08749 -10.08599 -10.08492
 Alpha  occ. eigenvalues --  -10.08458 -10.08021 -10.07807  -0.98111  -0.95139
 Alpha  occ. eigenvalues --   -0.79597  -0.77379  -0.74142  -0.71697  -0.68756
 Alpha  occ. eigenvalues --   -0.66416  -0.65380  -0.64279  -0.61494  -0.56708
 Alpha  occ. eigenvalues --   -0.54400  -0.53023  -0.51386  -0.48137  -0.46538
 Alpha  occ. eigenvalues --   -0.44732  -0.43404  -0.40631  -0.39322  -0.38665
 Alpha  occ. eigenvalues --   -0.38421  -0.37130  -0.36557  -0.35924  -0.34486
 Alpha  occ. eigenvalues --   -0.34036  -0.33698  -0.32834  -0.31664  -0.31197
 Alpha  occ. eigenvalues --   -0.31022  -0.29650  -0.29212  -0.28801  -0.28487
 Alpha  occ. eigenvalues --   -0.27623  -0.26798  -0.26151  -0.24140  -0.23764
 Alpha  occ. eigenvalues --   -0.20316  -0.17273  -0.16941  -0.15672  -0.15534
 Alpha  occ. eigenvalues --   -0.12002   0.03777
 Alpha virt. eigenvalues --    0.04853   0.06330   0.06805   0.07152   0.07214
 Alpha virt. eigenvalues --    0.07417   0.07968   0.08524   0.08648   0.09016
 Alpha virt. eigenvalues --    0.09472   0.10232   0.10609   0.10693   0.11236

  Beta  occ. eigenvalues --  -19.06527 -14.28666 -14.23477 -14.20076 -10.14824
  Beta  occ. eigenvalues --  -10.14166 -10.12259 -10.10730 -10.10464 -10.09375
  Beta  occ. eigenvalues --  -10.08940 -10.08836 -10.08737 -10.08549 -10.08489
  Beta  occ. eigenvalues --  -10.08455 -10.07987 -10.07803  -0.98101  -0.95110
  Beta  occ. eigenvalues --   -0.79591  -0.77369  -0.74109  -0.71676  -0.68723
  Beta  occ. eigenvalues --   -0.66397  -0.65360  -0.64239  -0.61436  -0.56654
  Beta  occ. eigenvalues --   -0.54381  -0.52998  -0.51345  -0.48114  -0.46498
  Beta  occ. eigenvalues --   -0.44706  -0.43368  -0.40610  -0.39304  -0.38642
  Beta  occ. eigenvalues --   -0.38401  -0.37103  -0.36517  -0.35893  -0.34471
  Beta  occ. eigenvalues --   -0.34011  -0.33678  -0.32806  -0.31628  -0.31165
  Beta  occ. eigenvalues --   -0.30979  -0.29616  -0.29184  -0.28785  -0.28464
  Beta  occ. eigenvalues --   -0.27609  -0.26783  -0.26132  -0.24117  -0.23745
  Beta  occ. eigenvalues --   -0.20297  -0.17254  -0.16928  -0.15666  -0.15518
  Beta  occ. eigenvalues --   -0.11991
  Beta virt. eigenvalues --    0.05785   0.06281   0.06583   0.06928   0.07446
  Beta virt. eigenvalues --    0.07633   0.07738   0.08180   0.08904   0.09039
  Beta virt. eigenvalues --    0.09224   0.09628   0.10323   0.10733   0.11000

 Mulliken charges and spin densities:
               1          2
     1  C    0.768189  -1.149862
     2  C   -0.228613  -0.005075
     3  O   -0.103228   0.009687
     4  C   -0.473145   0.045099
     5  C    0.303634  -0.022210
     6  C   -0.378644  -0.167984
     7  C    0.822790  -0.261970
     8  C    0.113696  -0.172289
     9  C   -1.130413   0.451561
    10  C    1.796538  -1.291017
    11  C   -0.646725   0.970834
    12  N    0.060731  -0.173709
    13  N   -0.267990   0.154934
    14  C   -0.683611   0.289131
    15  C   -0.169845  -0.123416
    16  C   -0.442158  -0.293829
    17  N   -0.399680   0.039275
    18  C    1.259511  -1.910879
    19  H    0.030016   0.118841
    20  H   -0.377313   0.513875
    21  H   -0.133197   0.267486
    22  H   -0.492886   0.686199
    23  H    0.004097   0.122851
    24  H   -0.084920   0.297220
    25  H    0.035863   0.133663
    26  H    0.014327   0.172856
    27  H    0.004496   0.181069
    28  H   -0.295321   0.647028
    29  H    0.112277   0.061192
    30  H    0.190453  -0.053312
    31  H    0.114841   0.040945
    32  H    0.088004   0.056623
    33  H    0.186514   0.025715
    34  H    0.255314  -0.006006
    35  H   -0.520392   0.668331
    36  H   -0.369626   0.562356
    37  H    0.036417   0.114788
 Sum of Mulliken charges =  -1.00000   1.00000

 Dipole moment (field-independent basis, Debye):
    X=             -0.9673    Y=              3.0813    Z=             -1.8174  Tot=              3.7058
 Quadrupole moment (field-independent basis, Debye-Ang):
   XX=           -224.9931   YY=           -170.3653   ZZ=           -136.4229
   XY=            -29.5778   XZ=              2.9213   YZ=             -4.6117

 Summary of Natural Population Analysis:

                                       Natural Population
                Natural  -----------------------------------------------
    Atom  No    Charge         Core      Valence    Rydberg      Total
 -----------------------------------------------------------------------
      C    1   -0.30090      0.99966     2.29633    0.00492     3.30090
      C    2   -0.01236      0.99958     2.00045    0.01233     3.01236
      O    3   -0.27748      0.99986     3.26784    0.00978     4.27748
      C    4    0.15993      0.99938     1.82821    0.01249     2.84007
      C    5   -0.14291      0.99952     2.13544    0.00795     3.14291
      C    6   -0.08396      0.99954     2.07662    0.00779     3.08396
      C    7   -0.03827      0.99950     2.02954    0.00923     3.03827
      C    8   -0.08721      0.99954     2.07873    0.00894     3.08721
      C    9   -0.11897      0.99952     2.11014    0.00931     3.11897
      C   10   -0.08176      0.99941     2.07152    0.01083     3.08176
      C   11    0.09600      0.99950     1.89281    0.01169     2.90400
      N   12   -0.16513      0.99965     2.65208    0.01341     3.66513
      N   13   -0.17741      0.99968     2.66425    0.01347     3.67741
      C   14    0.08657      0.99955     1.89747    0.01641     2.91343
      C   15   -0.20969      0.99959     2.20245    0.00765     3.20969
      C   16   -0.08431      0.99965     2.07487    0.00978     3.08431
      N   17   -0.42853      0.99977     2.91912    0.00964     3.92853
      C   18   -0.30405      0.99963     2.29844    0.00598     3.30405
      H   19    0.10113      0.00000     0.39790    0.00097     0.39887
      H   20    0.10468      0.00000     0.39346    0.00186     0.39532
      H   21    0.10144      0.00000     0.39729    0.00127     0.39856
      H   22    0.09300      0.00000     0.40554    0.00146     0.40700
      H   23    0.08323      0.00000     0.41517    0.00160     0.41677
      H   24    0.10547      0.00000     0.39334    0.00119     0.39453
      H   25    0.10174      0.00000     0.39656    0.00171     0.39826
      H   26    0.10316      0.00000     0.39560    0.00124     0.39684
      H   27    0.10607      0.00000     0.39282    0.00111     0.39393
      H   28    0.20214      0.00000     0.29053    0.00733     0.29786
      H   29    0.10597      0.00000     0.39242    0.00161     0.39403
      H   30    0.10788      0.00000     0.39075    0.00137     0.39212
      H   31    0.08672      0.00000     0.41218    0.00110     0.41328
      H   32    0.08022      0.00000     0.41824    0.00153     0.41978
      H   33    0.16763      0.00000     0.33063    0.00174     0.33237
      H   34    0.18753      0.00000     0.30999    0.00248     0.31247
      H   35    0.11078      0.00000     0.38708    0.00214     0.38922
      H   36    0.10913      0.00000     0.38915    0.00172     0.39087
      H   37    0.11254      0.00000     0.38634    0.00112     0.38746
 =======================================================================
   * Total *   -0.00000     17.99254    47.79129    0.21618    66.00000

 Normal termination of Gaussian 16 at Fri Dec 11 22:42:01 2020.
