 Gaussian 16, Revision A.03,

 -----------------------------------------------------------
 # opt freq B3LYP/6-31G(d) empiricaldispersion=gd3bj scf=xqc
 -----------------------------------------------------------

 -------------------------------
 CID_131530890_JID_4099_neutraal
 -------------------------------
 Symbolic Z-matrix:
 Charge =  0 Multiplicity = 1

 SCF Done:  E(RB3LYP) =  -628.348350863     A.U. after   15 cycles
 SCF Done:  E(RB3LYP) =  -628.352650901     A.U. after   12 cycles
 SCF Done:  E(RB3LYP) =  -628.353213550     A.U. after   12 cycles
 SCF Done:  E(RB3LYP) =  -628.353514786     A.U. after   12 cycles
 SCF Done:  E(RB3LYP) =  -628.353706848     A.U. after   12 cycles
 SCF Done:  E(RB3LYP) =  -628.353794203     A.U. after   12 cycles
 SCF Done:  E(RB3LYP) =  -628.353899329     A.U. after   12 cycles
 SCF Done:  E(RB3LYP) =  -628.354125634     A.U. after   12 cycles
 SCF Done:  E(RB3LYP) =  -628.354199912     A.U. after   14 cycles
 SCF Done:  E(RB3LYP) =  -628.354258376     A.U. after    9 cycles
 SCF Done:  E(RB3LYP) =  -628.354625129     A.U. after   11 cycles
 SCF Done:  E(RB3LYP) =  -628.354632755     A.U. after   10 cycles
 SCF Done:  E(RB3LYP) =  -628.354635108     A.U. after   10 cycles
 SCF Done:  E(RB3LYP) =  -628.354635499     A.U. after    9 cycles
 SCF Done:  E(RB3LYP) =  -628.354635535     A.U. after    7 cycles
 SCF Done:  E(RB3LYP) =  -628.354635549     A.U. after    7 cycles
 Optimization completed.
    -- Stationary point found.
 Normal termination of Gaussian 16 at Thu Dec 10 09:24:37 2020.

 --------------------------------------------------------------------
 #N Geom=AllCheck Guess=TCheck SCRF=Check GenChk RB3LYP/6-31G(d) Freq
 --------------------------------------------------------------------

 Structure from the checkpoint file:  "JID_4099.chk"
 -------------------------------
 CID_131530890_JID_4099_neutraal
 -------------------------------
 Charge =  0 Multiplicity = 1

 SCF Done:  E(RB3LYP) =  -628.354635549     A.U. after    1 cycles

  Exact polarizability: 150.897  -2.519 117.195  -2.513  -5.191  82.229
 Approx polarizability: 189.893  -4.636 188.102  -2.316 -15.698 137.146

                      1                      2                      3
                      A                      A                      A
 Frequencies --     19.6055                39.2162                70.2371
 Red. masses --      5.5365                 2.2124                 2.9291
 Frc consts  --      0.0013                 0.0020                 0.0085
 IR Inten    --      7.1510                 0.4851                 0.5435

                      4                      5                      6
                      A                      A                      A
 Frequencies --     89.3597               112.2107               130.2176
 Red. masses --      5.6354                 6.3301                 4.9279
 Frc consts  --      0.0265                 0.0470                 0.0492
 IR Inten    --      2.9585                 0.9778                 5.4244

                      7                      8                      9
                      A                      A                      A
 Frequencies --    210.6707               236.4047               269.3916
 Red. masses --      3.1210                 2.5217                 2.7351
 Frc consts  --      0.0816                 0.0830                 0.1169
 IR Inten    --      6.0897                 3.9661                12.3913

                     10                     11                     12
                      A                      A                      A
 Frequencies --    283.6949               301.3658               366.0709
 Red. masses --      1.2759                 3.9480                 7.1751
 Frc consts  --      0.0605                 0.2113                 0.5665
 IR Inten    --     14.8771                 2.8103                 2.2275

                     13                     14                     15
                      A                      A                      A
 Frequencies --    383.6417               446.8795               484.0774
 Red. masses --      3.1306                 2.9265                 5.0866
 Frc consts  --      0.2715                 0.3443                 0.7023
 IR Inten    --      1.0345                 1.2690                 0.8644

                     16                     17                     18
                      A                      A                      A
 Frequencies --    494.2002               554.2031               576.0769
 Red. masses --      8.2773                 1.3873                 1.9989
 Frc consts  --      1.1911                 0.2510                 0.3908
 IR Inten    --     11.0909               354.0885                 2.5323

                     19                     20                     21
                      A                      A                      A
 Frequencies --    643.3757               663.3744               694.0817
 Red. masses --      5.1392                 3.6480                 5.5344
 Frc consts  --      1.2534                 0.9459                 1.5709
 IR Inten    --      3.6669                 1.7297                13.4327

                     22                     23                     24
                      A                      A                      A
 Frequencies --    722.6486               745.0904               793.1306
 Red. masses --      1.6842                 2.5971                 1.3320
 Frc consts  --      0.5182                 0.8495                 0.4937
 IR Inten    --      4.5103                44.8265                 2.0898

                     25                     26                     27
                      A                      A                      A
 Frequencies --    829.2762               858.5199               884.5611
 Red. masses --      6.0928                 2.1172                 2.4430
 Frc consts  --      2.4687                 0.9194                 1.1262
 IR Inten    --      9.1014                 1.8075                 0.7321

                     28                     29                     30
                      A                      A                      A
 Frequencies --    912.4113               917.5205               940.3305
 Red. masses --      2.5898                 8.2006                 2.7415
 Frc consts  --      1.2703                 4.0675                 1.4282
 IR Inten    --      1.8935                28.9082                 1.5693

                     31                     32                     33
                      A                      A                      A
 Frequencies --    958.3769               992.0192              1028.1560
 Red. masses --      1.8821                 2.0682                 3.9344
 Frc consts  --      1.0185                 1.1992                 2.4504
 IR Inten    --      0.8778                 0.0408                 3.0406

                     34                     35                     36
                      A                      A                      A
 Frequencies --   1034.2793              1042.8492              1049.1968
 Red. masses --      1.6192                 2.1818                 3.3267
 Frc consts  --      1.0205                 1.3980                 2.1577
 IR Inten    --      3.4726                 0.3405                 4.1255

                     37                     38                     39
                      A                      A                      A
 Frequencies --   1091.6123              1097.7448              1120.7434
 Red. masses --      1.6135                 2.0131                 3.2334
 Frc consts  --      1.1328                 1.4293                 2.3929
 IR Inten    --      1.1918                 0.2972                 0.8234

                     40                     41                     42
                      A                      A                      A
 Frequencies --   1167.0042              1206.0370              1207.8652
 Red. masses --      1.3669                 1.8368                 1.4388
 Frc consts  --      1.0968                 1.5741                 1.2368
 IR Inten    --      4.9410                 2.9142                 0.3590

                     43                     44                     45
                      A                      A                      A
 Frequencies --   1245.1180              1270.0128              1293.6792
 Red. masses --      1.4144                 1.3940                 1.3267
 Frc consts  --      1.2920                 1.3248                 1.3082
 IR Inten    --      0.1795                 3.1010                 1.6930

                     46                     47                     48
                      A                      A                      A
 Frequencies --   1314.4297              1324.2744              1342.7693
 Red. masses --      1.2390                 1.3947                 1.2023
 Frc consts  --      1.2612                 1.4411                 1.2772
 IR Inten    --      2.4317                 3.3416                 2.8772

                     49                     50                     51
                      A                      A                      A
 Frequencies --   1358.1810              1363.0541              1367.2235
 Red. masses --      1.4005                 1.3821                 1.3412
 Frc consts  --      1.5221                 1.5129                 1.4771
 IR Inten    --      1.3874                 0.4165                 0.8150

                     52                     53                     54
                      A                      A                      A
 Frequencies --   1383.7573              1402.7254              1489.1466
 Red. masses --      3.3901                 1.5154                 4.9517
 Frc consts  --      3.8246                 1.7568                 6.4696
 IR Inten    --      2.3985                 0.3851                62.9302

                     55                     56                     57
                      A                      A                      A
 Frequencies --   1519.2162              1520.6918              1524.8338
 Red. masses --      1.0841                 1.0850                 1.0918
 Frc consts  --      1.4743                 1.4782                 1.4957
 IR Inten    --      0.3622                 3.6123                 3.7858

                     58                     59                     60
                      A                      A                      A
 Frequencies --   1546.1826              1555.3551              1647.4399
 Red. masses --      1.1047                 6.7610                 1.7927
 Frc consts  --      1.5560                 9.6366                 2.8666
 IR Inten    --      1.0892               111.5730                44.4930

                     61                     62                     63
                      A                      A                      A
 Frequencies --   1699.8391              2366.3124              3017.9112
 Red. masses --      2.3965                12.6566                 1.0809
 Frc consts  --      4.0798                41.7553                 5.8000
 IR Inten    --    363.7593                 7.0181                 2.4393

                     64                     65                     66
                      A                      A                      A
 Frequencies --   3028.6024              3047.1906              3052.4083
 Red. masses --      1.0713                 1.0697                 1.0642
 Frc consts  --      5.7897                 5.8522                 5.8421
 IR Inten    --     17.9573                38.8461                21.8773

                     67                     68                     69
                      A                      A                      A
 Frequencies --   3067.4204              3079.4262              3100.2495
 Red. masses --      1.0713                 1.0826                 1.0955
 Frc consts  --      5.9389                 6.0486                 6.2040
 IR Inten    --     36.0759                15.8272                36.9073

                     70                     71                     72
                      A                      A                      A
 Frequencies --   3108.6466              3117.7300              3140.4905
 Red. masses --      1.1014                 1.0960                 1.0960
 Frc consts  --      6.2709                 6.2767                 6.3686
 IR Inten    --     38.1276                27.0431                24.0511

                     73                     74                     75
                      A                      A                      A
 Frequencies --   3293.7882              3570.6246              3677.0436
 Red. masses --      1.0983                 1.0476                 1.0998
 Frc consts  --      7.0202                 7.8694                 8.7609
 IR Inten    --      1.8436                53.5704                33.5588

 - Thermochemistry -
 -------------------
 Temperature   298.150 Kelvin.  Pressure   1.00000 Atm.
 Atom     1 has atomic number  6 and mass  12.00000

 Molecular mass:   191.10586 amu.
 Principal axes and moments of inertia in atomic units:
                           1         2         3
     Eigenvalues --  1371.905334503.272775601.37466
           X            0.99989   0.01402  -0.00452
           Y           -0.01402   0.99990   0.00020
           Z            0.00453  -0.00014   0.99999
 This molecule is an asymmetric top.
 Rotational symmetry number  1.
 Warning -- assumption of classical behavior for rotation
           may cause significant error
 Rotational temperatures (Kelvin)      0.06313     0.01923     0.01546
 Rotational constants (GHZ):           1.31550     0.40076     0.32220
 Zero-point vibrational energy     589181.8 (Joules/Mol)
                                  140.81783 (Kcal/Mol)
 Warning -- explicit consideration of  18 degrees of freedom as
           vibrations may cause significant error
 Vibrational temperatures:     28.21    56.42   101.06   128.57   161.45
          (Kelvin)            187.35   303.11   340.13   387.59   408.17
                              433.60   526.69   551.97   642.96   696.48
                              711.04   797.37   828.85   925.67   954.45
                              998.63  1039.73  1072.02  1141.14  1193.14
                             1235.22  1272.69  1312.76  1320.11  1352.93
                             1378.89  1427.29  1479.29  1488.10  1500.43
                             1509.56  1570.59  1579.41  1612.50  1679.06
                             1735.22  1737.85  1791.45  1827.27  1861.32
                             1891.17  1905.34  1931.95  1954.12  1961.13
                             1967.13  1990.92  2018.21  2142.55  2185.81
                             2187.94  2193.90  2224.61  2237.81  2370.30
                             2445.69  3404.60  4342.10  4357.48  4384.23
                             4391.73  4413.33  4430.61  4460.57  4472.65
                             4485.72  4518.47  4739.03  5137.33  5290.45

 Zero-point correction=                           0.224407 (Hartree/Particle)
 Thermal correction to Energy=                    0.237542
 Thermal correction to Enthalpy=                  0.238486
 Thermal correction to Gibbs Free Energy=         0.182847
 Sum of electronic and zero-point Energies=           -628.130228
 Sum of electronic and thermal Energies=              -628.117094
 Sum of electronic and thermal Enthalpies=            -628.116150
 Sum of electronic and thermal Free Energies=         -628.171789

                     E (Thermal)             CV                S
                      KCal/Mol        Cal/Mol-Kelvin    Cal/Mol-Kelvin
 Total                  149.060             49.165            117.102
 Electronic               0.000              0.000              0.000
 Translational            0.889              2.981             41.649
 Rotational               0.889              2.981             31.915
 Vibrational            147.282             43.204             43.539
 Vibration     1          0.593              1.986              6.674
 Vibration     2          0.594              1.981              5.298
 Vibration     3          0.598              1.968              4.147
 Vibration     4          0.602              1.957              3.674
 Vibration     5          0.607              1.939              3.230
 Vibration     6          0.612              1.923              2.943
 Vibration     7          0.643              1.825              2.038
 Vibration     8          0.655              1.785              1.830
 Vibration     9          0.674              1.729              1.600
 Vibration    10          0.682              1.704              1.511
 Vibration    11          0.693              1.671              1.409
 Vibration    12          0.739              1.542              1.096
 Vibration    13          0.753              1.505              1.025
 Vibration    14          0.806              1.368              0.805
 Vibration    15          0.840              1.285              0.699
 Vibration    16          0.850              1.263              0.673
 Vibration    17          0.910              1.130              0.536
 Vibration    18          0.932              1.083              0.493

 Optimization completed.
    -- Stationary point found.
 Normal termination of Gaussian 16 at Thu Dec 10 09:31:33 2020.

 ----------------------------------------------------------------------
 # B3LYP/6-311++G(d,p) empiricaldispersion=gd3bj scf=xqc pop=npa geom=c
 heck
 ----------------------------------------------------------------------

 ---------------------------------------
 CID_131530890_JID_4099_Energie_neutraal
 ---------------------------------------
 Structure from the checkpoint file:  "JID_4099.chk"
 Charge =  0 Multiplicity = 1

 SCF Done:  E(RB3LYP) =  -628.530752576     A.U. after   15 cycles
 Normal termination of Gaussian 16 at Thu Dec 10 09:34:19 2020.

 ----------------------------------------------------------------------
 # B3LYP/6-311++G(d,p) empiricaldispersion=gd3bj scf=xqc pop=npa geom=c
 heck
 ----------------------------------------------------------------------

 -------------------------------------
 CID_131530890_JID_4099_Energie_kation
 -------------------------------------
 Structure from the checkpoint file:  "JID_4099.chk"
 Charge =  1 Multiplicity = 2

 SCF Done:  E(UB3LYP) =  -628.212309990     A.U. after   22 cycles
 Normal termination of Gaussian 16 at Thu Dec 10 09:40:21 2020.
 Gaussian 16:  ES64L-G16RevA.03 25-Dec-2016

 ----------------------------------------------------------------------
 # B3LYP/6-311++G(d,p) empiricaldispersion=gd3bj scf=xqc pop=npa geom=c
 heck
 ----------------------------------------------------------------------

 ------------------------------------
 CID_131530890_JID_4099_Energie_anion
 ------------------------------------
 Structure from the checkpoint file:  "JID_4099.chk"
 Charge = -1 Multiplicity = 2

                         Standard orientation:
 ---------------------------------------------------------------------
 Center     Atomic      Atomic             Coordinates (Angstroms)
 Number     Number       Type             X           Y           Z
 ---------------------------------------------------------------------
      1          6           0       -3.876913   -0.415617    0.319845
      2          6           0       -3.275523   -1.598018   -0.462143
      3          6           0       -1.737871   -1.444642   -0.313033
      4          6           0       -1.502948   -0.021817    0.272036
      5          6           0       -2.851802    0.703791    0.105430
      6          6           0       -0.323447    0.720166   -0.394433
      7          6           0       -0.292159    2.138315    0.002295
      8          7           0       -0.275860    3.256254    0.313222
      9          6           0        1.034160    0.103698   -0.127127
     10          7           0        1.130742   -0.992290    0.591492
     11          8           0        2.519196   -1.277408    0.625117
     12          6           0        3.177838   -0.330331   -0.068554
     13          6           0        2.292511    0.581734   -0.582627
     14          7           0        4.544917   -0.428202   -0.073222
     15          1           0       -3.937472   -0.658524    1.388795
     16          1           0       -4.884732   -0.147238   -0.013082
     17          1           0       -3.635824   -2.568163   -0.105876
     18          1           0       -3.561333   -1.519445   -1.518030
     19          1           0       -1.234331   -1.558113   -1.280095
     20          1           0       -1.303721   -2.197943    0.346578
     21          1           0       -1.277258   -0.105907    1.340343
     22          1           0       -2.941814    1.097855   -0.917425
     23          1           0       -2.964669    1.548426    0.791298
     24          1           0       -0.490003    0.705550   -1.482298
     25          1           0        2.499818    1.469261   -1.159736
     26          1           0        4.906017   -1.353944    0.120879
     27          1           0        5.010083    0.033433   -0.842863
 ---------------------------------------------------------------------

 SCF Done:  E(UB3LYP) =  -628.525518800     A.U. after   31 cycles

 The electronic state is 2-A.
 Alpha  occ. eigenvalues --  -19.10582 -14.25576 -14.23396 -14.22494 -10.17985
 Alpha  occ. eigenvalues --  -10.14186 -10.12735 -10.12444 -10.10066 -10.08436
 Alpha  occ. eigenvalues --  -10.08371 -10.08045 -10.07683 -10.07153  -1.04386
 Alpha  occ. eigenvalues --   -0.83740  -0.82422  -0.78664  -0.75625  -0.69692
 Alpha  occ. eigenvalues --   -0.67683  -0.62711  -0.60774  -0.52977  -0.49868
 Alpha  occ. eigenvalues --   -0.49348  -0.47479  -0.44550  -0.43751  -0.41215
 Alpha  occ. eigenvalues --   -0.40206  -0.38620  -0.37343  -0.36158  -0.34403
 Alpha  occ. eigenvalues --   -0.33388  -0.32662  -0.29857  -0.28667  -0.27617
 Alpha  occ. eigenvalues --   -0.26086  -0.25800  -0.25265  -0.24941  -0.24295
 Alpha  occ. eigenvalues --   -0.24157  -0.23871  -0.23222  -0.21448  -0.19957
 Alpha  occ. eigenvalues --   -0.12755   0.03905
 Alpha virt. eigenvalues --    0.05328   0.06946   0.07896   0.08036   0.08711
 Alpha virt. eigenvalues --    0.08935   0.10203   0.10505   0.10635   0.11106
 Alpha virt. eigenvalues --    0.11231   0.11611   0.11972   0.12916   0.13628

  Beta  occ. eigenvalues --  -19.10571 -14.25567 -14.23282 -14.22481 -10.17975
  Beta  occ. eigenvalues --  -10.14174 -10.12732 -10.12439 -10.10066 -10.08426
  Beta  occ. eigenvalues --  -10.08361 -10.08029 -10.07675 -10.07134  -1.04366
  Beta  occ. eigenvalues --   -0.83622  -0.82390  -0.78624  -0.75604  -0.69653
  Beta  occ. eigenvalues --   -0.67629  -0.62684  -0.60744  -0.52912  -0.49808
  Beta  occ. eigenvalues --   -0.49306  -0.47418  -0.44489  -0.43707  -0.41096
  Beta  occ. eigenvalues --   -0.40163  -0.38591  -0.37310  -0.36104  -0.34362
  Beta  occ. eigenvalues --   -0.33363  -0.32622  -0.29830  -0.28643  -0.27596
  Beta  occ. eigenvalues --   -0.26067  -0.25774  -0.25235  -0.24923  -0.24220
  Beta  occ. eigenvalues --   -0.24114  -0.23855  -0.23193  -0.21429  -0.19939
  Beta  occ. eigenvalues --   -0.12696
  Beta virt. eigenvalues --    0.05786   0.07200   0.07600   0.08072   0.08272
  Beta virt. eigenvalues --    0.08869   0.09800   0.10303   0.10760   0.10876
  Beta virt. eigenvalues --    0.11287   0.11592   0.11862   0.12006   0.13230

 Mulliken charges and spin densities:
               1          2
     1  C   -0.152587  -0.235110
     2  C   -0.101667  -0.419501
     3  C   -0.033160  -0.443245
     4  C   -0.666394   0.801316
     5  C   -0.260379  -0.195887
     6  C    1.178298  -0.655236
     7  C   -0.067512  -0.534305
     8  N   -0.318129   0.037132
     9  C    1.903834  -1.682620
    10  N   -0.540303   0.004684
    11  O    0.319046  -0.043428
    12  C    0.931386  -1.135889
    13  C   -1.493498   1.559802
    14  N   -0.288901  -0.015426
    15  H    0.106592   0.016384
    16  H   -0.085008   0.259163
    17  H    0.047094   0.095273
    18  H   -0.111268   0.255725
    19  H   -0.032349   0.215916
    20  H    0.170321   0.011780
    21  H    0.157547   0.116599
    22  H   -0.034308   0.203379
    23  H    0.164839  -0.014281
    24  H   -0.111120   0.348872
    25  H   -0.532106   0.732868
    26  H   -0.356285   0.630232
    27  H   -0.793985   1.085803
 Sum of Mulliken charges =  -1.00000   1.00000

 Dipole moment (field-independent basis, Debye):
    X=             -9.3845    Y=             -1.2418    Z=              2.8941  Tot=              9.8989
 Quadrupole moment (field-independent basis, Debye-Ang):
   XX=           -187.8816   YY=           -125.1629   ZZ=           -111.7342
   XY=              3.2542   XZ=              5.9813   YZ=             -0.9577

 Summary of Natural Population Analysis:

                                       Natural Population
                Natural  -----------------------------------------------
    Atom  No    Charge         Core      Valence    Rydberg      Total
 -----------------------------------------------------------------------
      C    1   -0.19037      0.99964     2.18249    0.00823     3.19037
      C    2   -0.19340      0.99964     2.18620    0.00757     3.19340
      C    3   -0.19260      0.99962     2.18406    0.00892     3.19260
      C    4   -0.10132      0.99959     2.09076    0.01097     3.10132
      C    5   -0.19299      0.99962     2.18516    0.00822     3.19299
      C    6   -0.16865      0.99945     2.15806    0.01114     3.16865
      C    7    0.16914      0.99965     1.81230    0.01892     2.83086
      N    8   -0.17969      0.99979     2.66901    0.01089     3.67969
      C    9    0.09587      0.99958     1.88875    0.01579     2.90413
      N   10   -0.10272      0.99966     2.59114    0.01192     3.60272
      O   11   -0.17750      0.99985     3.16956    0.00809     4.17750
      C   12    0.27479      0.99952     1.70858    0.01711     2.72521
      C   13   -0.20422      0.99944     2.19518    0.00960     3.20422
      N   14   -0.39125      0.99970     2.88169    0.00986     3.89125
      H   15    0.09255      0.00000     0.40646    0.00099     0.40745
      H   16    0.10013      0.00000     0.39901    0.00086     0.39987
      H   17    0.09809      0.00000     0.40114    0.00078     0.40191
      H   18    0.09677      0.00000     0.40191    0.00133     0.40323
      H   19    0.10106      0.00000     0.39785    0.00109     0.39894
      H   20    0.10936      0.00000     0.38950    0.00113     0.39064
      H   21    0.10583      0.00000     0.39284    0.00133     0.39417
      H   22    0.09594      0.00000     0.40264    0.00142     0.40406
      H   23    0.10508      0.00000     0.39414    0.00078     0.39492
      H   24    0.12791      0.00000     0.36966    0.00243     0.37209
      H   25    0.11866      0.00000     0.37992    0.00141     0.38134
      H   26    0.19853      0.00000     0.29492    0.00655     0.30147
      H   27    0.20501      0.00000     0.26154    0.03345     0.29499
 =======================================================================
   * Total *   -0.00000     13.99476    36.79447    0.21078    51.00000

 Normal termination of Gaussian 16 at Thu Dec 10 09:47:51 2020.
