 Gaussian 16, Revision A.03,

 -----------------------------------------------------------
 # opt freq B3LYP/6-31G(d) empiricaldispersion=gd3bj scf=xqc
 -----------------------------------------------------------

 -------------------------------
 CID_116982541_JID_8891_neutraal
 -------------------------------
 Symbolic Z-matrix:
 Charge =  0 Multiplicity = 1

 SCF Done:  E(RB3LYP) =  -783.267716723     A.U. after   15 cycles
 SCF Done:  E(RB3LYP) =  -783.292771381     A.U. after   13 cycles
 SCF Done:  E(RB3LYP) =  -783.294553742     A.U. after   13 cycles
 SCF Done:  E(RB3LYP) =  -783.295521694     A.U. after   14 cycles
 SCF Done:  E(RB3LYP) =  -783.296126002     A.U. after   15 cycles
 SCF Done:  E(RB3LYP) =  -783.296421985     A.U. after   12 cycles
 SCF Done:  E(RB3LYP) =  -783.296554202     A.U. after   12 cycles
 SCF Done:  E(RB3LYP) =  -783.296631597     A.U. after   10 cycles
 SCF Done:  E(RB3LYP) =  -783.296704440     A.U. after   11 cycles
 SCF Done:  E(RB3LYP) =  -783.296734466     A.U. after   11 cycles
 SCF Done:  E(RB3LYP) =  -783.296763166     A.U. after    8 cycles
 SCF Done:  E(RB3LYP) =  -783.296763493     A.U. after    9 cycles
 SCF Done:  E(RB3LYP) =  -783.296763541     A.U. after    7 cycles
 SCF Done:  E(RB3LYP) =  -783.296763545     A.U. after    7 cycles
 Optimization completed.
    -- Stationary point found.
 Normal termination of Gaussian 16 at Fri Dec 11 21:27:38 2020.

 --------------------------------------------------------------------
 #N Geom=AllCheck Guess=TCheck SCRF=Check GenChk RB3LYP/6-31G(d) Freq
 --------------------------------------------------------------------

 Structure from the checkpoint file:  "JID_8891.chk"
 -------------------------------
 CID_116982541_JID_8891_neutraal
 -------------------------------
 Charge =  0 Multiplicity = 1

 SCF Done:  E(RB3LYP) =  -783.296763545     A.U. after    1 cycles

  Exact polarizability: 201.972 -16.702 152.929  -0.110 -15.793 122.747
 Approx polarizability: 267.756 -37.649 242.456  -5.215 -39.065 196.264

                      1                      2                      3
                      A                      A                      A
 Frequencies --     15.7176                25.6727                34.2686
 Red. masses --      5.5271                 4.0077                 1.0399
 Frc consts  --      0.0008                 0.0016                 0.0007
 IR Inten    --      2.4196                 0.6690                 0.4214

                      4                      5                      6
                      A                      A                      A
 Frequencies --     43.6250                64.0700                91.3460
 Red. masses --      4.5178                 5.0755                 5.4335
 Frc consts  --      0.0051                 0.0123                 0.0267
 IR Inten    --      1.7768                 3.3225                 4.7409

                      7                      8                      9
                      A                      A                      A
 Frequencies --    100.5365               142.9818               163.4039
 Red. masses --      3.6373                 3.8784                 1.3777
 Frc consts  --      0.0217                 0.0467                 0.0217
 IR Inten    --      7.4510                 0.6263                 0.6292

                     10                     11                     12
                      A                      A                      A
 Frequencies --    174.9141               207.0641               213.3522
 Red. masses --      2.5191                 3.3032                 3.0115
 Frc consts  --      0.0454                 0.0834                 0.0808
 IR Inten    --      5.5134                 0.5945                 1.0649

                     13                     14                     15
                      A                      A                      A
 Frequencies --    224.1069               257.2152               271.9323
 Red. masses --      3.3513                 3.7929                 3.5024
 Frc consts  --      0.0992                 0.1478                 0.1526
 IR Inten    --      5.5021                 4.7141                 1.3475

                     16                     17                     18
                      A                      A                      A
 Frequencies --    308.3933               334.8505               365.7076
 Red. masses --      2.9602                 4.3400                 5.0928
 Frc consts  --      0.1659                 0.2867                 0.4013
 IR Inten    --      1.6712                27.1792                 2.1559

                     19                     20                     21
                      A                      A                      A
 Frequencies --    389.6121               396.8402               450.1727
 Red. masses --      3.1483                 2.6130                 3.0445
 Frc consts  --      0.2816                 0.2425                 0.3635
 IR Inten    --      0.6698                 1.3586                 4.4544

                     22                     23                     24
                      A                      A                      A
 Frequencies --    518.4824               530.5479               563.9500
 Red. masses --      3.9915                 4.9815                 4.5101
 Frc consts  --      0.6322                 0.8262                 0.8451
 IR Inten    --      1.7748                 1.7257                 5.5189

                     25                     26                     27
                      A                      A                      A
 Frequencies --    605.9118               607.2606               649.0544
 Red. masses --      3.1054                 3.3317                 5.1667
 Frc consts  --      0.6717                 0.7239                 1.2824
 IR Inten    --      0.4960                 9.9688                 9.5343

                     28                     29                     30
                      A                      A                      A
 Frequencies --    665.5168               722.8910               749.7188
 Red. masses --      4.4332                 2.3456                 8.0540
 Frc consts  --      1.1569                 0.7222                 2.6672
 IR Inten    --      3.2307                10.2202                18.2042

                     31                     32                     33
                      A                      A                      A
 Frequencies --    778.9001               791.3013               807.5251
 Red. masses --      5.0080                 4.6695                 1.4581
 Frc consts  --      1.7901                 1.7227                 0.5602
 IR Inten    --     13.1783                 4.6495                21.3799

                     34                     35                     36
                      A                      A                      A
 Frequencies --    839.4678               883.5749               905.7812
 Red. masses --      3.2831                 2.6314                 1.3176
 Frc consts  --      1.3632                 1.2104                 0.6369
 IR Inten    --      6.0230                 2.8452                 2.2626

                     37                     38                     39
                      A                      A                      A
 Frequencies --    926.7027               938.8581               983.6777
 Red. masses --      1.3654                 2.6045                 1.3047
 Frc consts  --      0.6909                 1.3526                 0.7438
 IR Inten    --      0.7597                11.5721                 0.2061

                     40                     41                     42
                      A                      A                      A
 Frequencies --    986.1609              1001.9893              1022.3912
 Red. masses --      1.8986                 2.4282                 6.0047
 Frc consts  --      1.0879                 1.4364                 3.6981
 IR Inten    --      0.9864                16.5880                 1.0399

                     43                     44                     45
                      A                      A                      A
 Frequencies --   1030.1009              1038.8862              1057.4151
 Red. masses --      1.5247                 2.8312                 2.5832
 Frc consts  --      0.9532                 1.8003                 1.7018
 IR Inten    --      0.8577                 4.1173                16.6828

                     46                     47                     48
                      A                      A                      A
 Frequencies --   1076.5554              1087.9419              1096.3447
 Red. masses --      1.5290                 2.3467                 2.2712
 Frc consts  --      1.0441                 1.6365                 1.6085
 IR Inten    --      9.2788                16.7464                32.5841

                     49                     50                     51
                      A                      A                      A
 Frequencies --   1130.0581              1167.0123              1192.4139
 Red. masses --      1.5373                 1.3591                 1.7446
 Frc consts  --      1.1566                 1.0906                 1.4615
 IR Inten    --      5.1895                25.6200                 8.2050

                     52                     53                     54
                      A                      A                      A
 Frequencies --   1198.1472              1205.7096              1218.8308
 Red. masses --      1.6069                 1.1565                 1.2805
 Frc consts  --      1.3591                 0.9905                 1.1208
 IR Inten    --      0.8603                 1.0963                10.6533

                     55                     56                     57
                      A                      A                      A
 Frequencies --   1258.6153              1271.9154              1285.3336
 Red. masses --      1.3035                 2.0269                 2.8274
 Frc consts  --      1.2166                 1.9320                 2.7521
 IR Inten    --      8.4740                84.4697                48.2304

                     58                     59                     60
                      A                      A                      A
 Frequencies --   1307.6237              1324.0977              1331.0089
 Red. masses --      2.4389                 1.5711                 2.0451
 Frc consts  --      2.4570                 1.6229                 2.1346
 IR Inten    --     20.5916                28.7065                18.3267

                     61                     62                     63
                      A                      A                      A
 Frequencies --   1342.4137              1365.3090              1376.5080
 Red. masses --      2.2723                 2.4002                 1.4284
 Frc consts  --      2.4126                 2.6361                 1.5946
 IR Inten    --     16.7163                 0.6255                70.6460

                     64                     65                     66
                      A                      A                      A
 Frequencies --   1396.9684              1405.1560              1420.5198
 Red. masses --      1.6033                 1.9108                 1.4689
 Frc consts  --      1.8435                 2.2229                 1.7463
 IR Inten    --     24.3963               128.9217                25.1934

                     67                     68                     69
                      A                      A                      A
 Frequencies --   1443.3394              1454.4782              1476.4036
 Red. masses --      1.2457                 1.5359                 1.6744
 Frc consts  --      1.5290                 1.9144                 2.1503
 IR Inten    --      0.1912               101.4113                97.5576

                     70                     71                     72
                      A                      A                      A
 Frequencies --   1489.8265              1491.9817              1500.9475
 Red. masses --      1.6332                 1.1839                 1.1346
 Frc consts  --      2.1358                 1.5527                 1.5060
 IR Inten    --     22.5015                17.3736                34.1556

                     73                     74                     75
                      A                      A                      A
 Frequencies --   1518.3101              1520.7251              1526.4146
 Red. masses --      1.0496                 1.0467                 1.2970
 Frc consts  --      1.4255                 1.4262                 1.7804
 IR Inten    --      5.3706                10.0350                13.3416

                     76                     77                     78
                      A                      A                      A
 Frequencies --   1543.7999              1547.1792              1555.6752
 Red. masses --      1.5065                 1.3798                 1.1288
 Frc consts  --      2.1154                 1.9460                 1.6095
 IR Inten    --     15.2459                 2.4418                31.0602

                     79                     80                     81
                      A                      A                      A
 Frequencies --   1651.6230              1672.9229              1817.7220
 Red. masses --      5.4715                 5.7531                10.9226
 Frc consts  --      8.7938                 9.4865                21.2633
 IR Inten    --      2.8996                13.4409               425.8983

                     82                     83                     84
                      A                      A                      A
 Frequencies --   2368.7998              2980.5624              3014.8261
 Red. masses --     12.5866                 1.0832                 1.0559
 Frc consts  --     41.6117                 5.6698                 5.6544
 IR Inten    --      7.7148                28.4225                89.2364

                     85                     86                     87
                      A                      A                      A
 Frequencies --   3016.1881              3043.9883              3055.0481
 Red. masses --      1.0686                 1.0403                 1.0650
 Frc consts  --      5.7279                 5.6791                 5.8563
 IR Inten    --     22.2375                29.0889                33.0906

                     88                     89                     90
                      A                      A                      A
 Frequencies --   3066.0003              3101.6856              3109.4033
 Red. masses --      1.0602                 1.0959                 1.0844
 Frc consts  --      5.8722                 6.2117                 6.1774
 IR Inten    --      8.0806                19.9673                26.0544

                     91                     92                     93
                      A                      A                      A
 Frequencies --   3113.2090              3128.0659              3129.8480
 Red. masses --      1.1014                 1.1029                 1.1018
 Frc consts  --      6.2893                 6.3582                 6.3591
 IR Inten    --      7.7596                15.4540                 3.2076

                     94                     95                     96
                      A                      A                      A
 Frequencies --   3139.8394              3168.4086              3172.1974
 Red. masses --      1.0943                 1.0897                 1.1011
 Frc consts  --      6.3564                 6.4454                 6.5283
 IR Inten    --      6.6535                14.8259                 3.1752

                     97                     98                     99
                      A                      A                      A
 Frequencies --   3179.7113              3194.4272              3208.3117
 Red. masses --      1.0868                 1.0902                 1.0956
 Frc consts  --      6.4738                 6.5548                 6.6441
 IR Inten    --      6.7879                20.2414                14.8077

 - Thermochemistry -
 -------------------
 Temperature   298.150 Kelvin.  Pressure   1.00000 Atm.
 Atom     1 has atomic number  6 and mass  12.00000

 Molecular mass:   243.13716 amu.
 Principal axes and moments of inertia in atomic units:
                           1         2         3
     Eigenvalues --  2565.071177735.275139253.08684
           X            0.99988  -0.01326   0.00760
           Y            0.01325   0.99991   0.00078
           Z           -0.00761  -0.00068   0.99997
 This molecule is an asymmetric top.
 Rotational symmetry number  1.
 Warning -- assumption of classical behavior for rotation
           may cause significant error
 Rotational temperatures (Kelvin)      0.03377     0.01120     0.00936
 Rotational constants (GHZ):           0.70358     0.23331     0.19504
 Zero-point vibrational energy     770049.4 (Joules/Mol)
                                  184.04622 (Kcal/Mol)
 Warning -- explicit consideration of  26 degrees of freedom as
           vibrations may cause significant error
 Vibrational temperatures:     22.61    36.94    49.30    62.77    92.18
          (Kelvin)            131.43   144.65   205.72   235.10   251.66
                              297.92   306.97   322.44   370.08   391.25
                              443.71   481.78   526.17   560.56   570.96
                              647.70   745.98   763.34   811.40   871.77
                              873.71   933.84   957.53  1040.08  1078.68
                             1120.66  1138.51  1161.85  1207.81  1271.27
                             1303.22  1333.32  1350.81  1415.29  1418.87
                             1441.64  1470.99  1482.09  1494.73  1521.38
                             1548.92  1565.31  1577.40  1625.90  1679.07
                             1715.62  1723.87  1734.75  1753.63  1810.87
                             1830.00  1849.31  1881.38  1905.08  1915.02
                             1931.43  1964.38  1980.49  2009.93  2021.71
                             2043.81  2076.64  2092.67  2124.22  2143.53
                             2146.63  2159.53  2184.51  2187.98  2196.17
                             2221.18  2226.05  2238.27  2376.32  2406.96
                             2615.30  3408.17  4288.36  4337.66  4339.62
                             4379.62  4395.53  4411.29  4462.63  4473.74
                             4479.21  4500.59  4503.15  4517.53  4558.63
                             4564.08  4574.90  4596.07  4616.04

 Zero-point correction=                           0.293296 (Hartree/Particle)
 Thermal correction to Energy=                    0.310875
 Thermal correction to Enthalpy=                  0.311820
 Thermal correction to Gibbs Free Energy=         0.244654
 Sum of electronic and zero-point Energies=           -783.003467
 Sum of electronic and thermal Energies=              -782.985888
 Sum of electronic and thermal Enthalpies=            -782.984944
 Sum of electronic and thermal Free Energies=         -783.052110

                     E (Thermal)             CV                S
                      KCal/Mol        Cal/Mol-Kelvin    Cal/Mol-Kelvin
 Total                  195.077             64.158            141.363
 Electronic               0.000              0.000              0.000
 Translational            0.889              2.981             42.366
 Rotational               0.889              2.981             33.573
 Vibrational            193.300             58.196             65.424
 Vibration     1          0.593              1.986              7.113
 Vibration     2          0.593              1.985              6.139
 Vibration     3          0.594              1.983              5.566
 Vibration     4          0.595              1.980              5.087
 Vibration     5          0.597              1.971              4.328
 Vibration     6          0.602              1.955              3.631
 Vibration     7          0.604              1.949              3.444
 Vibration     8          0.616              1.910              2.764
 Vibration     9          0.623              1.887              2.510
 Vibration    10          0.627              1.873              2.382
 Vibration    11          0.641              1.830              2.069
 Vibration    12          0.644              1.821              2.015
 Vibration    13          0.649              1.804              1.926
 Vibration    14          0.667              1.751              1.681
 Vibration    15          0.675              1.725              1.584
 Vibration    16          0.698              1.658              1.371
 Vibration    17          0.716              1.606              1.237
 Vibration    18          0.739              1.543              1.098
 Vibration    19          0.758              1.492              1.002
 Vibration    20          0.763              1.477              0.974
 Vibration    21          0.809              1.361              0.795
 Vibration    22          0.873              1.209              0.613
 Vibration    23          0.886              1.182              0.586
 Vibration    24          0.920              1.109              0.516
 Vibration    25          0.965              1.019              0.440
 Vibration    26          0.966              1.016              0.437

 Optimization completed.
    -- Stationary point found.
 Normal termination of Gaussian 16 at Fri Dec 11 21:41:47 2020.

 ----------------------------------------------------------------------
 # B3LYP/6-311++G(d,p) empiricaldispersion=gd3bj scf=xqc pop=npa geom=c
 heck
 ----------------------------------------------------------------------

 ---------------------------------------
 CID_116982541_JID_8891_Energie_neutraal
 ---------------------------------------
 Structure from the checkpoint file:  "JID_8891.chk"
 Charge =  0 Multiplicity = 1

 SCF Done:  E(RB3LYP) =  -783.507914810     A.U. after   15 cycles
 Normal termination of Gaussian 16 at Fri Dec 11 21:47:07 2020.

 ----------------------------------------------------------------------
 # B3LYP/6-311++G(d,p) empiricaldispersion=gd3bj scf=xqc pop=npa geom=c
 heck
 ----------------------------------------------------------------------

 -------------------------------------
 CID_116982541_JID_8891_Energie_kation
 -------------------------------------
 Structure from the checkpoint file:  "JID_8891.chk"
 Charge =  1 Multiplicity = 2

 SCF Done:  E(UB3LYP) =  -783.201620166     A.U. after   33 cycles
 SCF Done:  E(UB3LYP) =  -783.201620166     a.u. after    1 cycles
 Normal termination of Gaussian 16 at Fri Dec 11 22:02:54 2020.
 Gaussian 16:  ES64L-G16RevA.03 25-Dec-2016

 ----------------------------------------------------------------------
 # B3LYP/6-311++G(d,p) empiricaldispersion=gd3bj scf=xqc pop=npa geom=c
 heck
 ----------------------------------------------------------------------

 ------------------------------------
 CID_116982541_JID_8891_Energie_anion
 ------------------------------------
 Structure from the checkpoint file:  "JID_8891.chk"
 Charge = -1 Multiplicity = 2

                         Standard orientation:
 ---------------------------------------------------------------------
 Center     Atomic      Atomic             Coordinates (Angstroms)
 Number     Number       Type             X           Y           Z
 ---------------------------------------------------------------------
      1          6           0       -4.730554    1.899111   -0.821821
      2          6           0       -3.793962    0.900351   -0.186841
      3          6           0       -2.465466    0.792964   -0.615134
      4          6           0       -1.575654   -0.100930   -0.017404
      5          6           0       -2.023327   -0.919465    1.025158
      6          6           0       -3.345578   -0.833483    1.454567
      7          6           0       -4.223328    0.070418    0.854606
      8          6           0       -0.136648   -0.152863   -0.474734
      9          6           0        0.842856    0.572444    0.477440
     10          7           0        2.065100   -0.197901    0.292570
     11          6           0        1.777175   -1.470935   -0.180741
     12          8           0        2.576191   -2.390310   -0.285301
     13          7           0        0.428999   -1.499090   -0.498825
     14          6           0       -0.087759   -2.502734   -1.404782
     15          6           0        3.281041    0.045141    1.030940
     16          6           0        4.289383    0.897107    0.230062
     17          6           0        3.730311    2.198638   -0.140363
     18          7           0        3.246502    3.217684   -0.414335
     19          1           0       -4.689684    2.865134   -0.301709
     20          1           0       -4.469502    2.082947   -1.869123
     21          1           0       -5.768719    1.553392   -0.785200
     22          1           0       -2.117905    1.419850   -1.434315
     23          1           0       -1.335952   -1.627395    1.478853
     24          1           0       -3.697158   -1.476898    2.256431
     25          1           0       -5.254911    0.128347    1.193187
     26          1           0       -0.063688    0.298593   -1.478224
     27          1           0        0.973056    1.622642    0.210241
     28          1           0        0.486389    0.510160    1.516767
     29          1           0       -0.085054   -2.147939   -2.446832
     30          1           0        0.551239   -3.383711   -1.327440
     31          1           0       -1.112772   -2.764619   -1.127518
     32          1           0        3.046992    0.537595    1.982647
     33          1           0        3.744841   -0.922910    1.239418
     34          1           0        5.203911    1.051843    0.815359
     35          1           0        4.564241    0.356021   -0.681731
 ---------------------------------------------------------------------

 SCF Done:  E(UB3LYP) =  -783.497103019     A.U. after   33 cycles
 SCF Done:  E(UB3LYP) =  -783.497103019     a.u. after    1 cycles

 The electronic state is 2-A.
 Alpha  occ. eigenvalues --  -19.00400 -14.25645 -14.25501 -14.22949 -10.20740
 Alpha  occ. eigenvalues --  -10.14269 -10.13804 -10.13165 -10.13151 -10.13003
 Alpha  occ. eigenvalues --  -10.11765 -10.10148 -10.10137 -10.09179 -10.08945
 Alpha  occ. eigenvalues --  -10.08930 -10.08711 -10.08267  -0.97340  -0.89144
 Alpha  occ. eigenvalues --   -0.84055  -0.82513  -0.77984  -0.72307  -0.70596
 Alpha  occ. eigenvalues --   -0.68300  -0.65109  -0.63027  -0.60479  -0.59149
 Alpha  occ. eigenvalues --   -0.55171  -0.52134  -0.49757  -0.48077  -0.44133
 Alpha  occ. eigenvalues --   -0.43533  -0.43047  -0.41623  -0.39626  -0.38881
 Alpha  occ. eigenvalues --   -0.37626  -0.36712  -0.36302  -0.35378  -0.34489
 Alpha  occ. eigenvalues --   -0.33718  -0.33606  -0.32843  -0.32353  -0.31181
 Alpha  occ. eigenvalues --   -0.31007  -0.30261  -0.30002  -0.29728  -0.28230
 Alpha  occ. eigenvalues --   -0.26892  -0.26169  -0.25951  -0.25037  -0.24747
 Alpha  occ. eigenvalues --   -0.19335  -0.17941  -0.17135  -0.16147  -0.15644
 Alpha  occ. eigenvalues --    0.03810
 Alpha virt. eigenvalues --    0.04953   0.06170   0.06361   0.06459   0.06887
 Alpha virt. eigenvalues --    0.07493   0.08166   0.08757   0.08813   0.09218
 Alpha virt. eigenvalues --    0.09617   0.10406   0.10637   0.11012   0.11101

  Beta  occ. eigenvalues --  -19.00395 -14.25641 -14.25494 -14.22930 -10.20738
  Beta  occ. eigenvalues --  -10.14264 -10.13778 -10.13156 -10.13107 -10.13000
  Beta  occ. eigenvalues --  -10.11756 -10.10151 -10.10128 -10.09157 -10.08927
  Beta  occ. eigenvalues --  -10.08921 -10.08686 -10.08233  -0.97331  -0.89133
  Beta  occ. eigenvalues --   -0.84037  -0.82481  -0.77955  -0.72261  -0.70562
  Beta  occ. eigenvalues --   -0.68263  -0.65065  -0.63003  -0.60425  -0.59099
  Beta  occ. eigenvalues --   -0.55132  -0.52078  -0.49727  -0.48046  -0.44105
  Beta  occ. eigenvalues --   -0.43496  -0.43008  -0.41583  -0.39587  -0.38835
  Beta  occ. eigenvalues --   -0.37592  -0.36669  -0.36271  -0.35356  -0.34453
  Beta  occ. eigenvalues --   -0.33682  -0.33569  -0.32809  -0.32332  -0.31143
  Beta  occ. eigenvalues --   -0.30980  -0.30237  -0.29973  -0.29697  -0.28202
  Beta  occ. eigenvalues --   -0.26844  -0.26134  -0.25920  -0.24979  -0.24713
  Beta  occ. eigenvalues --   -0.19324  -0.17905  -0.17050  -0.16104  -0.15606
  Beta virt. eigenvalues --    0.05771   0.06311   0.06364   0.06555   0.06898
  Beta virt. eigenvalues --    0.07073   0.07969   0.08313   0.09099   0.09298
  Beta virt. eigenvalues --    0.09383   0.09966   0.10585   0.10764   0.11175

 Mulliken charges and spin densities:
               1          2
     1  C    2.036471  -2.539946
     2  C   -0.675063   1.332705
     3  C   -0.741015   0.213598
     4  C    0.625069   0.181157
     5  C   -0.002410  -0.176823
     6  C    0.268346  -0.616962
     7  C   -0.826215   0.055758
     8  C    0.234196  -0.286867
     9  C   -0.963614  -0.248250
    10  N    0.092343   0.073927
    11  C    0.464283  -0.211118
    12  O   -0.406570   0.017437
    13  N    0.094349  -0.029359
    14  C    0.098778  -0.399077
    15  C    0.103905  -0.361449
    16  C   -0.399397   0.223837
    17  C    1.065815  -0.967838
    18  N   -0.355468   0.042239
    19  H    0.084391   0.085548
    20  H   -0.336576   0.485350
    21  H   -0.317308   0.464985
    22  H    0.026204   0.129656
    23  H    0.179702   0.031944
    24  H   -0.360754   0.529719
    25  H   -0.508636   0.661382
    26  H    0.031827   0.180850
    27  H    0.194542  -0.016187
    28  H    0.014504   0.156830
    29  H    0.019490   0.134420
    30  H    0.166641   0.014725
    31  H    0.063679   0.085358
    32  H   -0.190784   0.337459
    33  H   -0.164605   0.396750
    34  H   -0.675504   0.878813
    35  H    0.059383   0.139428
 Sum of Mulliken charges =  -1.00000   1.00000

 Dipole moment (field-independent basis, Debye):
    X=             -0.3095    Y=             -2.4566    Z=             -1.3499  Tot=              2.8201
 Quadrupole moment (field-independent basis, Debye-Ang):
   XX=           -233.9297   YY=           -159.5678   ZZ=           -141.4234
   XY=             -1.6965   XZ=             -8.4691   YZ=              3.0227

 Summary of Natural Population Analysis:

                                       Natural Population
                Natural  -----------------------------------------------
    Atom  No    Charge         Core      Valence    Rydberg      Total
 -----------------------------------------------------------------------
      C    1   -0.29113      0.99964     2.28638    0.00511     3.29113
      C    2   -0.01210      0.99952     2.00226    0.01032     3.01210
      C    3   -0.09562      0.99947     2.08691    0.00924     3.09562
      C    4   -0.02343      0.99949     2.01241    0.01153     3.02343
      C    5   -0.10667      0.99951     2.09729    0.00987     3.10667
      C    6   -0.09128      0.99957     2.08096    0.01076     3.09128
      C    7   -0.09918      0.99951     2.08975    0.00992     3.09918
      C    8   -0.00606      0.99956     1.99384    0.01266     3.00606
      C    9   -0.07457      0.99960     2.06564    0.00933     3.07457
      N   10   -0.26976      0.99964     2.75977    0.01035     3.76976
      C   11    0.41947      0.99963     1.55776    0.02314     2.58053
      O   12   -0.33526      0.99987     3.33022    0.00517     4.33526
      N   13   -0.26409      0.99963     2.75508    0.00938     3.76409
      C   14   -0.17767      0.99965     2.17141    0.00662     3.17767
      C   15   -0.07791      0.99961     2.06549    0.01281     3.07791
      C   16   -0.24837      0.99954     2.24000    0.00884     3.24837
      C   17    0.16259      0.99966     1.82115    0.01661     2.83741
      N   18   -0.18705      0.99979     2.67594    0.01132     3.68705
      H   19    0.10517      0.00000     0.39372    0.00111     0.39483
      H   20    0.10406      0.00000     0.39461    0.00132     0.39594
      H   21    0.10511      0.00000     0.39344    0.00145     0.39489
      H   22    0.09973      0.00000     0.39880    0.00147     0.40027
      H   23    0.10590      0.00000     0.39279    0.00131     0.39410
      H   24    0.10133      0.00000     0.39772    0.00095     0.39867
      H   25    0.10204      0.00000     0.39652    0.00145     0.39796
      H   26    0.09323      0.00000     0.40488    0.00189     0.40677
      H   27    0.10816      0.00000     0.39061    0.00123     0.39184
      H   28    0.09185      0.00000     0.40681    0.00134     0.40815
      H   29    0.08832      0.00000     0.41039    0.00129     0.41168
      H   30    0.11128      0.00000     0.38771    0.00101     0.38872
      H   31    0.09982      0.00000     0.39903    0.00115     0.40018
      H   32    0.09757      0.00000     0.40064    0.00180     0.40243
      H   33    0.11631      0.00000     0.38221    0.00148     0.38369
      H   34    0.12580      0.00000     0.36941    0.00480     0.37420
      H   35    0.12242      0.00000     0.37599    0.00159     0.37758
 =======================================================================
   * Total *   -0.00000     17.99286    46.78754    0.21960    65.00000

 Normal termination of Gaussian 16 at Fri Dec 11 22:19:21 2020.
