 Gaussian 16, Revision A.03,

 -----------------------------------------------------------
 # opt freq B3LYP/6-31G(d) empiricaldispersion=gd3bj scf=xqc
 -----------------------------------------------------------

 -------------------------------
 CID_151821421_JID_7929_neutraal
 -------------------------------
 Symbolic Z-matrix:
 Charge =  0 Multiplicity = 1

 SCF Done:  E(RB3LYP) =  -1128.95227038     A.U. after   15 cycles
 SCF Done:  E(RB3LYP) =  -1128.95341688     A.U. after   14 cycles
 SCF Done:  E(RB3LYP) =  -1128.94713444     A.U. after   15 cycles
 SCF Done:  E(RB3LYP) =  -1128.95346950     A.U. after   14 cycles
 SCF Done:  E(RB3LYP) =  -1128.95645163     A.U. after   10 cycles
 SCF Done:  E(RB3LYP) =  -1128.95715184     A.U. after   13 cycles
 SCF Done:  E(RB3LYP) =  -1128.95719901     A.U. after   12 cycles
 SCF Done:  E(RB3LYP) =  -1128.95776000     A.U. after   12 cycles
 SCF Done:  E(RB3LYP) =  -1128.95788515     A.U. after   12 cycles
 SCF Done:  E(RB3LYP) =  -1128.95792863     A.U. after   11 cycles
 SCF Done:  E(RB3LYP) =  -1128.95797750     A.U. after    8 cycles
 SCF Done:  E(RB3LYP) =  -1128.95797784     A.U. after    7 cycles
 SCF Done:  E(RB3LYP) =  -1128.95797798     A.U. after    7 cycles
 SCF Done:  E(RB3LYP) =  -1128.95797802     A.U. after    8 cycles
 SCF Done:  E(RB3LYP) =  -1128.95797804     A.U. after    7 cycles
 Optimization completed.
    -- Stationary point found.
 Normal termination of Gaussian 16 at Sun Dec 13 16:14:02 2020.

 --------------------------------------------------------------------
 #N Geom=AllCheck Guess=TCheck SCRF=Check GenChk RB3LYP/6-31G(d) Freq
 --------------------------------------------------------------------

 Structure from the checkpoint file:  "JID_7929.chk"
 -------------------------------
 CID_151821421_JID_7929_neutraal
 -------------------------------
 Charge =  0 Multiplicity = 1

 SCF Done:  E(RB3LYP) =  -1128.95797804     A.U. after    1 cycles

  Exact polarizability: 183.247 -22.776 142.002  11.995   8.777 131.413
 Approx polarizability: 243.906 -45.621 235.816  20.434  37.434 232.498

                      1                      2                      3
                      A                      A                      A
 Frequencies --     24.0761                30.0289                39.1389
 Red. masses --      4.5230                 6.4810                 3.6400
 Frc consts  --      0.0015                 0.0034                 0.0033
 IR Inten    --      0.0774                 1.1130                 1.4628

                      4                      5                      6
                      A                      A                      A
 Frequencies --     62.0687                72.2697               102.5063
 Red. masses --      4.7566                 4.4926                 3.9625
 Frc consts  --      0.0108                 0.0138                 0.0245
 IR Inten    --      0.9845                 2.7506                 0.7817

                      7                      8                      9
                      A                      A                      A
 Frequencies --    109.3254               130.6665               138.0820
 Red. masses --      5.5495                 1.2469                 4.3714
 Frc consts  --      0.0391                 0.0125                 0.0491
 IR Inten    --      2.4081                 0.1855                 1.1415

                     10                     11                     12
                      A                      A                      A
 Frequencies --    166.1957               190.0984               201.2157
 Red. masses --      4.8738                 3.4357                 2.4526
 Frc consts  --      0.0793                 0.0732                 0.0585
 IR Inten    --      0.1546                 0.2472                 0.8340

                     13                     14                     15
                      A                      A                      A
 Frequencies --    225.5693               236.1454               266.7267
 Red. masses --      5.1929                 1.3086                 2.9117
 Frc consts  --      0.1557                 0.0430                 0.1220
 IR Inten    --     10.7608                 0.8138                 3.8018

                     16                     17                     18
                      A                      A                      A
 Frequencies --    278.5013               342.4960               389.0832
 Red. masses --      4.3913                 3.5801                 4.5148
 Frc consts  --      0.2007                 0.2474                 0.4027
 IR Inten    --      3.8285                 8.2325                 8.0928

                     19                     20                     21
                      A                      A                      A
 Frequencies --    413.9142               417.4882               460.6712
 Red. masses --      3.6992                 2.9988                 3.7583
 Frc consts  --      0.3734                 0.3080                 0.4699
 IR Inten    --      1.5984                 0.1963                 5.3597

                     22                     23                     24
                      A                      A                      A
 Frequencies --    476.1090               514.9221               577.1596
 Red. masses --      3.8031                 4.7362                 3.7381
 Frc consts  --      0.5079                 0.7399                 0.7337
 IR Inten    --      1.3449                 6.5755                19.8018

                     25                     26                     27
                      A                      A                      A
 Frequencies --    631.4212               633.5483               691.4379
 Red. masses --      3.3177                 6.3701                 5.1980
 Frc consts  --      0.7793                 1.5065                 1.4642
 IR Inten    --      3.0983                 0.6708                 2.5192

                     28                     29                     30
                      A                      A                      A
 Frequencies --    699.2230               712.4223               743.4792
 Red. masses --      3.5739                 2.0898                 4.1394
 Frc consts  --      1.0295                 0.6249                 1.3481
 IR Inten    --      6.9549                30.0709                 1.3785

                     31                     32                     33
                      A                      A                      A
 Frequencies --    752.7096               779.8425               840.0387
 Red. masses --      5.0736                 2.4827                 4.3818
 Frc consts  --      1.6936                 0.8896                 1.8218
 IR Inten    --      2.2962                43.0403                 3.2699

                     34                     35                     36
                      A                      A                      A
 Frequencies --    858.4379               865.1744               895.7718
 Red. masses --      2.1196                 1.3004                 2.4198
 Frc consts  --      0.9203                 0.5735                 1.1440
 IR Inten    --      5.6122                 0.8741                15.2220

                     37                     38                     39
                      A                      A                      A
 Frequencies --    910.5985               949.2828               985.6842
 Red. masses --      2.8113                 1.4728                 1.3515
 Frc consts  --      1.3734                 0.7820                 0.7736
 IR Inten    --      8.9506                 2.1054                 0.1951

                     40                     41                     42
                      A                      A                      A
 Frequencies --    991.0181               995.1033              1010.6866
 Red. masses --      1.8616                 1.4675                 1.4051
 Frc consts  --      1.0772                 0.8562                 0.8456
 IR Inten    --      4.9814                 2.7374                 0.5397

                     43                     44                     45
                      A                      A                      A
 Frequencies --   1012.4674              1021.6644              1026.6693
 Red. masses --      1.4405                 4.9928                 3.2021
 Frc consts  --      0.8700                 3.0705                 1.9886
 IR Inten    --      2.3955                13.9523                21.7906

                     46                     47                     48
                      A                      A                      A
 Frequencies --   1058.4716              1077.4379              1103.1760
 Red. masses --      2.2464                 3.6166                 2.6325
 Frc consts  --      1.4828                 2.4736                 1.8876
 IR Inten    --      1.6083                56.6683                 3.5326

                     49                     50                     51
                      A                      A                      A
 Frequencies --   1120.3026              1187.8590              1191.8636
 Red. masses --      1.5871                 1.3339                 1.2856
 Frc consts  --      1.1736                 1.1090                 1.0760
 IR Inten    --     10.4508                43.0734                30.7206

                     52                     53                     54
                      A                      A                      A
 Frequencies --   1195.7836              1217.5021              1220.5344
 Red. masses --      1.1240                 1.1725                 1.3959
 Frc consts  --      0.9469                 1.0240                 1.2252
 IR Inten    --      4.2903                29.2236                 3.1366

                     55                     56                     57
                      A                      A                      A
 Frequencies --   1226.4991              1237.9020              1289.5356
 Red. masses --      1.4039                 1.5561                 2.1435
 Frc consts  --      1.2443                 1.4050                 2.1001
 IR Inten    --     43.3633                24.2206                45.8210

                     58                     59                     60
                      A                      A                      A
 Frequencies --   1302.3979              1338.4331              1353.0642
 Red. masses --      1.6349                 1.7151                 1.8349
 Frc consts  --      1.6339                 1.8102                 1.9792
 IR Inten    --     98.8500               125.1517                17.9362

                     61                     62                     63
                      A                      A                      A
 Frequencies --   1372.5224              1386.4179              1387.0434
 Red. masses --      2.9870                 1.4721                 1.3478
 Frc consts  --      3.3153                 1.6671                 1.5278
 IR Inten    --      3.2972                 5.0422                11.0194

                     64                     65                     66
                      A                      A                      A
 Frequencies --   1395.6931              1482.0609              1493.5438
 Red. masses --      1.2473                 1.0923                 1.2065
 Frc consts  --      1.4315                 1.4135                 1.5857
 IR Inten    --     11.6774                 1.8554                14.2850

                     67                     68                     69
                      A                      A                      A
 Frequencies --   1495.5849              1500.0001              1513.2602
 Red. masses --      2.0396                 1.0863                 1.0506
 Frc consts  --      2.6879                 1.4401                 1.4175
 IR Inten    --     10.2876                13.7808                 3.7449

                     70                     71                     72
                      A                      A                      A
 Frequencies --   1518.1060              1520.8979              1524.8282
 Red. masses --      1.1930                 1.0539                 1.0486
 Frc consts  --      1.6199                 1.4363                 1.4365
 IR Inten    --     18.5304                 4.9217                19.6423

                     73                     74                     75
                      A                      A                      A
 Frequencies --   1545.9130              1639.9082              1660.1480
 Red. masses --      1.9311                 5.3280                 5.4286
 Frc consts  --      2.7190                 8.4421                 8.8152
 IR Inten    --      5.0504                 9.0294                23.0264

                     76                     77                     78
                      A                      A                      A
 Frequencies --   1766.3300              1818.5867              3067.6410
 Red. masses --     11.3886                10.9873                 1.0296
 Frc consts  --     20.9346                21.4096                 5.7086
 IR Inten    --    134.2054               166.9981                20.6803

                     79                     80                     81
                      A                      A                      A
 Frequencies --   3082.0395              3088.5203              3096.2358
 Red. masses --      1.0293                 1.0611                 1.0627
 Frc consts  --      5.7604                 5.9636                 6.0026
 IR Inten    --     23.2802                 5.8967                 9.5674

                     82                     83                     84
                      A                      A                      A
 Frequencies --   3104.7605              3138.8474              3151.0955
 Red. masses --      1.0839                 1.1051                 1.1065
 Frc consts  --      6.1558                 6.4148                 6.4735
 IR Inten    --      5.7350                12.0789                10.2042

                     85                     86                     87
                      A                      A                      A
 Frequencies --   3157.0977              3159.5483              3161.9485
 Red. masses --      1.1031                 1.1046                 1.1074
 Frc consts  --      6.4779                 6.4970                 6.5232
 IR Inten    --     12.5009                 4.6575                10.3653

                     88                     89                     90
                      A                      A                      A
 Frequencies --   3188.8903              3189.9806              3200.2984
 Red. masses --      1.0858                 1.1075                 1.0899
 Frc consts  --      6.5057                 6.6400                 6.5771
 IR Inten    --      0.4500                 9.5814                13.4273

                     91                     92                     93
                      A                      A                      A
 Frequencies --   3211.1373              3229.5288              3232.5992
 Red. masses --      1.0949                 1.0923                 1.0921
 Frc consts  --      6.6520                 6.7125                 6.7241
 IR Inten    --     24.2093                 6.7863                 3.7681

 - Thermochemistry -
 -------------------
 Temperature   298.150 Kelvin.  Pressure   1.00000 Atm.
 Atom     1 has atomic number  6 and mass  12.00000

 Molecular mass:   252.08202 amu.
 Principal axes and moments of inertia in atomic units:
                           1         2         3
     Eigenvalues --  2221.407976621.232487409.62398
           X            1.00000  -0.00166  -0.00086
           Y            0.00162   0.99867  -0.05150
           Z            0.00094   0.05149   0.99867
 This molecule is an asymmetric top.
 Rotational symmetry number  1.
 Warning -- assumption of classical behavior for rotation
           may cause significant error
 Rotational temperatures (Kelvin)      0.03899     0.01308     0.01169
 Rotational constants (GHZ):           0.81243     0.27257     0.24357
 Zero-point vibrational energy     708625.4 (Joules/Mol)
                                  169.36554 (Kcal/Mol)
 Warning -- explicit consideration of  24 degrees of freedom as
           vibrations may cause significant error
 Vibrational temperatures:     34.64    43.20    56.31    89.30   103.98
          (Kelvin)            147.48   157.29   188.00   198.67   239.12
                              273.51   289.50   324.54   339.76   383.76
                              400.70   492.78   559.80   595.53   600.67
                              662.80   685.01   740.86   830.40   908.47
                              911.53   994.82  1006.03  1025.02  1069.70
                             1082.98  1122.02  1208.63  1235.10  1244.79
                             1288.82  1310.15  1365.81  1418.18  1425.85
                             1431.73  1454.15  1456.71  1469.95  1477.15
                             1522.90  1550.19  1587.22  1611.87  1709.06
                             1714.83  1720.47  1751.71  1756.08  1764.66
                             1781.06  1855.35  1873.86  1925.71  1946.76
                             1974.75  1994.75  1995.65  2008.09  2132.36
                             2148.88  2151.81  2158.17  2177.24  2184.22
                             2188.23  2193.89  2224.22  2359.46  2388.58
                             2541.35  2616.54  4413.65  4434.37  4443.69
                             4454.79  4467.06  4516.10  4533.72  4542.36
                             4545.89  4549.34  4588.10  4589.67  4604.52
                             4620.11  4646.57  4650.99

 Zero-point correction=                           0.269901 (Hartree/Particle)
 Thermal correction to Energy=                    0.287432
 Thermal correction to Enthalpy=                  0.288376
 Thermal correction to Gibbs Free Energy=         0.222325
 Sum of electronic and zero-point Energies=          -1128.688077
 Sum of electronic and thermal Energies=             -1128.670546
 Sum of electronic and thermal Enthalpies=           -1128.669602
 Sum of electronic and thermal Free Energies=        -1128.735653

                     E (Thermal)             CV                S
                      KCal/Mol        Cal/Mol-Kelvin    Cal/Mol-Kelvin
 Total                  180.366             63.712            139.017
 Electronic               0.000              0.000              0.000
 Translational            0.889              2.981             42.474
 Rotational               0.889              2.981             33.055
 Vibrational            178.589             57.750             63.488
 Vibration     1          0.593              1.985              6.266
 Vibration     2          0.594              1.984              5.828
 Vibration     3          0.594              1.981              5.302
 Vibration     4          0.597              1.972              4.390
 Vibration     5          0.598              1.967              4.091
 Vibration     6          0.605              1.947              3.406
 Vibration     7          0.606              1.942              3.281
 Vibration     8          0.612              1.923              2.936
 Vibration     9          0.614              1.915              2.830
 Vibration    10          0.624              1.884              2.478
 Vibration    11          0.633              1.854              2.227
 Vibration    12          0.638              1.838              2.122
 Vibration    13          0.650              1.802              1.914
 Vibration    14          0.655              1.785              1.832
 Vibration    15          0.672              1.734              1.617
 Vibration    16          0.679              1.713              1.543
 Vibration    17          0.722              1.591              1.200
 Vibration    18          0.757              1.494              1.004
 Vibration    19          0.778              1.440              0.913
 Vibration    20          0.781              1.432              0.901
 Vibration    21          0.818              1.337              0.764
 Vibration    22          0.833              1.303              0.721
 Vibration    23          0.870              1.217              0.622
 Vibration    24          0.934              1.081              0.491

 Optimization completed.
    -- Stationary point found.
 Normal termination of Gaussian 16 at Sun Dec 13 16:27:29 2020.

 ----------------------------------------------------------------------
 # B3LYP/6-311++G(d,p) empiricaldispersion=gd3bj scf=xqc pop=npa geom=c
 heck
 ----------------------------------------------------------------------

 ---------------------------------------
 CID_151821421_JID_7929_Energie_neutraal
 ---------------------------------------
 Structure from the checkpoint file:  "JID_7929.chk"
 Charge =  0 Multiplicity = 1

 SCF Done:  E(RB3LYP) =  -1129.18976673     A.U. after   15 cycles
 Normal termination of Gaussian 16 at Sun Dec 13 16:34:02 2020.

 ----------------------------------------------------------------------
 # B3LYP/6-311++G(d,p) empiricaldispersion=gd3bj scf=xqc pop=npa geom=c
 heck
 ----------------------------------------------------------------------

 -------------------------------------
 CID_151821421_JID_7929_Energie_kation
 -------------------------------------
 Structure from the checkpoint file:  "JID_7929.chk"
 Charge =  1 Multiplicity = 2

 SCF Done:  E(UB3LYP) =  -1128.88602107     A.U. after   33 cycles
 SCF Done:  E(UB3LYP) =  -1128.88602113     a.u. after    2 cycles
 Normal termination of Gaussian 16 at Sun Dec 13 17:12:33 2020.
 Gaussian 16:  ES64L-G16RevA.03 25-Dec-2016

 ----------------------------------------------------------------------
 # B3LYP/6-311++G(d,p) empiricaldispersion=gd3bj scf=xqc pop=npa geom=c
 heck
 ----------------------------------------------------------------------

 ------------------------------------
 CID_151821421_JID_7929_Energie_anion
 ------------------------------------
 Structure from the checkpoint file:  "JID_7929.chk"
 Charge = -1 Multiplicity = 2

                         Standard orientation:
 ---------------------------------------------------------------------
 Center     Atomic      Atomic             Coordinates (Angstroms)
 Number     Number       Type             X           Y           Z
 ---------------------------------------------------------------------
      1          6           0       -0.168126    2.223925   -0.936013
      2          8           0        0.488043    0.989727   -0.603161
      3          6           0        0.855291    0.851891    0.687742
      4          8           0        0.694918    1.713562    1.525864
      5          6           0        1.411234   -0.534974    0.970554
      6          6           0        0.225351   -1.482696    1.330286
      7          6           0       -0.760083   -1.663613    0.181430
      8          8           0       -0.528434   -2.504602   -0.676120
      9          6           0       -1.973692   -0.793519    0.090697
     10          6           0       -2.313849    0.162449    1.059414
     11          6           0       -3.448078    0.957813    0.895189
     12          6           0       -4.253818    0.804169   -0.233388
     13          6           0       -3.922714   -0.147788   -1.202657
     14          6           0       -2.792096   -0.939640   -1.040645
     15          6           0        2.279179   -1.106584   -0.159709
     16         16           0        3.960491   -0.387228   -0.275698
     17          6           0        3.625634    1.306974   -0.875487
     18          1           0       -0.361954    2.168864   -2.006827
     19          1           0        0.477604    3.073068   -0.699747
     20          1           0       -1.104302    2.310555   -0.380201
     21          1           0        2.019810   -0.433484    1.873256
     22          1           0        0.640844   -2.469987    1.550819
     23          1           0       -0.259833   -1.110456    2.235668
     24          1           0       -1.691705    0.315357    1.933305
     25          1           0       -3.699939    1.696685    1.650179
     26          1           0       -5.137339    1.423826   -0.358588
     27          1           0       -4.547817   -0.268123   -2.082798
     28          1           0       -2.511539   -1.681849   -1.779976
     29          1           0        2.458271   -2.168807    0.030320
     30          1           0        1.772293   -1.034053   -1.123091
     31          1           0        2.991818    1.287914   -1.765266
     32          1           0        3.167081    1.932512   -0.105467
     33          1           0        4.597235    1.733689   -1.137557
 ---------------------------------------------------------------------

 SCF Done:  E(UB3LYP) =  -1129.20838867     A.U. after   27 cycles

 The electronic state is 2-A.
 Alpha  occ. eigenvalues --  -88.73973 -19.05981 -19.00314 -18.91652 -10.19011
 Alpha  occ. eigenvalues --  -10.11724 -10.10064 -10.08997 -10.08061 -10.06101
 Alpha  occ. eigenvalues --  -10.04677 -10.03181 -10.03154 -10.02472 -10.02170
 Alpha  occ. eigenvalues --  -10.01606 -10.01543  -7.82578  -5.78988  -5.78605
 Alpha  occ. eigenvalues --   -5.77939  -1.00045  -0.91269  -0.86012  -0.71961
 Alpha  occ. eigenvalues --   -0.70862  -0.67390  -0.62199  -0.61283  -0.60166
 Alpha  occ. eigenvalues --   -0.59203  -0.53858  -0.49427  -0.47682  -0.46176
 Alpha  occ. eigenvalues --   -0.45311  -0.40947  -0.38872  -0.38578  -0.37080
 Alpha  occ. eigenvalues --   -0.36208  -0.34191  -0.33799  -0.33189  -0.32458
 Alpha  occ. eigenvalues --   -0.31295  -0.31106  -0.30490  -0.29461  -0.28095
 Alpha  occ. eigenvalues --   -0.27404  -0.26945  -0.26056  -0.25483  -0.24249
 Alpha  occ. eigenvalues --   -0.23800  -0.23241  -0.21018  -0.20831  -0.20345
 Alpha  occ. eigenvalues --   -0.19768  -0.19415  -0.16937  -0.12665  -0.11877
 Alpha  occ. eigenvalues --   -0.11229  -0.08284   0.04135
 Alpha virt. eigenvalues --    0.07048   0.08572   0.08974   0.09646   0.10124
 Alpha virt. eigenvalues --    0.10373   0.11013   0.11071   0.11855   0.12057
 Alpha virt. eigenvalues --    0.12285   0.12569   0.13400   0.13681   0.14160

  Beta  occ. eigenvalues --  -88.73971 -19.05979 -19.00297 -18.91068 -10.19003
  Beta  occ. eigenvalues --  -10.11720 -10.10064 -10.08999 -10.08013 -10.05714
  Beta  occ. eigenvalues --  -10.04711 -10.03236 -10.03233 -10.02325 -10.01840
  Beta  occ. eigenvalues --  -10.01461 -10.01394  -7.82576  -5.78986  -5.78603
  Beta  occ. eigenvalues --   -5.77937  -1.00032  -0.91248  -0.84941  -0.71909
  Beta  occ. eigenvalues --   -0.70535  -0.67330  -0.62127  -0.60887  -0.59850
  Beta  occ. eigenvalues --   -0.59055  -0.53659  -0.49412  -0.46951  -0.46088
  Beta  occ. eigenvalues --   -0.45209  -0.40695  -0.38732  -0.38514  -0.37039
  Beta  occ. eigenvalues --   -0.35825  -0.34167  -0.33775  -0.33078  -0.32402
  Beta  occ. eigenvalues --   -0.31114  -0.30910  -0.30267  -0.29365  -0.28011
  Beta  occ. eigenvalues --   -0.27296  -0.26713  -0.25840  -0.25124  -0.24067
  Beta  occ. eigenvalues --   -0.23533  -0.22317  -0.20706  -0.20608  -0.20117
  Beta  occ. eigenvalues --   -0.19470  -0.17827  -0.16731  -0.12636  -0.11057
  Beta  occ. eigenvalues --   -0.09440  -0.07759
  Beta virt. eigenvalues --    0.07012   0.08524   0.08771   0.09628   0.10028
  Beta virt. eigenvalues --    0.10377   0.10749   0.10994   0.11151   0.11838
  Beta virt. eigenvalues --    0.12041   0.12280   0.12840   0.13407   0.13655

 Mulliken charges and spin densities:
               1          2
     1  C   -0.291001  -0.006888
     2  O    0.134579  -0.001264
     3  C   -1.287112   0.108401
     4  O   -0.154321   0.006061
     5  C    1.159871  -0.211567
     6  C   -0.428310   0.148786
     7  C   -0.475357   0.134830
     8  O   -0.358510   0.216752
     9  C    0.821243   0.072039
    10  C   -0.674648   0.111407
    11  C   -0.408003  -0.069087
    12  C   -0.378767   0.252150
    13  C   -0.355540  -0.048220
    14  C    0.211369   0.212533
    15  C   -0.482707  -0.055105
    16  S    0.048161  -0.027024
    17  C   -0.735607   0.013043
    18  H    0.130496   0.004916
    19  H    0.140749   0.002679
    20  H    0.242411   0.001233
    21  H    0.192858   0.048163
    22  H    0.146784   0.071264
    23  H    0.106544   0.029300
    24  H    0.151779  -0.009300
    25  H    0.127265   0.004688
    26  H    0.100764  -0.020730
    27  H    0.119513   0.003856
    28  H    0.178438  -0.011544
    29  H    0.202167   0.019962
    30  H    0.256831  -0.004707
    31  H    0.176168  -0.000226
    32  H    0.197155   0.001201
    33  H    0.184739   0.002396
 Sum of Mulliken charges =  -1.00000   1.00000

 Dipole moment (field-independent basis, Debye):
    X=              4.1698    Y=              4.6557    Z=             -0.6431  Tot=              6.2830
 Quadrupole moment (field-independent basis, Debye-Ang):
   XX=           -156.5950   YY=           -132.2458   ZZ=           -121.7258
   XY=             -0.7568   XZ=             -1.8665   YZ=            -10.5021

 Summary of Natural Population Analysis:

                                       Natural Population
                Natural  -----------------------------------------------
    Atom  No    Charge         Core      Valence    Rydberg      Total
 -----------------------------------------------------------------------
      C    1   -0.10733      0.99959     2.09961    0.00813     3.10733
      O    2   -0.27880      0.99985     3.26959    0.00936     4.27880
      C    3    0.41647      0.99964     1.55481    0.02907     2.58353
      O    4   -0.31127      0.99987     3.30569    0.00572     4.31127
      C    5   -0.15104      0.99952     2.13822    0.01330     3.15104
      C    6   -0.22083      0.99958     2.21079    0.01046     3.22083
      C    7    0.31382      0.99962     1.66574    0.02082     2.68618
      O    8   -0.25077      0.99988     3.24482    0.00607     4.25077
      C    9   -0.05188      0.99947     2.04016    0.01226     3.05188
      C   10   -0.07206      0.99954     2.06476    0.00777     3.07206
      C   11   -0.13159      0.99957     2.12217    0.00985     3.13159
      C   12   -0.04838      0.99957     2.03886    0.00995     3.04838
      C   13   -0.13208      0.99957     2.12327    0.00924     3.13208
      C   14   -0.04480      0.99953     2.03636    0.00891     3.04480
      C   15   -0.25096      0.99956     2.23778    0.01362     3.25096
      S   16    0.07602      4.99964     2.90520    0.01914     7.92398
      C   17   -0.35325      0.99962     2.34857    0.00505     3.35325
      H   18    0.09021      0.00000     0.40903    0.00076     0.40979
      H   19    0.08371      0.00000     0.41524    0.00105     0.41629
      H   20    0.10441      0.00000     0.39450    0.00109     0.39559
      H   21    0.10687      0.00000     0.39073    0.00240     0.39313
      H   22    0.10561      0.00000     0.39272    0.00167     0.39439
      H   23    0.10230      0.00000     0.39645    0.00125     0.39770
      H   24    0.09502      0.00000     0.40360    0.00137     0.40498
      H   25    0.09068      0.00000     0.40822    0.00110     0.40932
      H   26    0.08489      0.00000     0.41402    0.00109     0.41511
      H   27    0.08958      0.00000     0.40935    0.00107     0.41042
      H   28    0.10541      0.00000     0.39344    0.00115     0.39459
      H   29    0.11248      0.00000     0.38621    0.00131     0.38752
      H   30    0.11959      0.00000     0.37942    0.00099     0.38041
      H   31    0.10424      0.00000     0.39444    0.00132     0.39576
      H   32    0.10266      0.00000     0.39618    0.00116     0.39734
      H   33    0.10105      0.00000     0.39803    0.00092     0.39895
 =======================================================================
   * Total *   -0.00000     20.99364    45.78796    0.21840    67.00000

 Normal termination of Gaussian 16 at Sun Dec 13 17:28:28 2020.
