 Gaussian 16, Revision A.03,

 -----------------------------------------------------------
 # opt freq B3LYP/6-31G(d) empiricaldispersion=gd3bj scf=xqc
 -----------------------------------------------------------

 ------------------------------
 CID_68048291_JID_7228_neutraal
 ------------------------------
 Symbolic Z-matrix:
 Charge =  0 Multiplicity = 1

 SCF Done:  E(RB3LYP) =  -1196.86644984     A.U. after   15 cycles
 SCF Done:  E(RB3LYP) =  -1196.87300789     A.U. after   12 cycles
 SCF Done:  E(RB3LYP) =  -1196.87434093     A.U. after   12 cycles
 SCF Done:  E(RB3LYP) =  -1196.87521524     A.U. after   13 cycles
 SCF Done:  E(RB3LYP) =  -1196.87559682     A.U. after   13 cycles
 SCF Done:  E(RB3LYP) =  -1196.87606774     A.U. after   12 cycles
 SCF Done:  E(RB3LYP) =  -1196.87632338     A.U. after   12 cycles
 SCF Done:  E(RB3LYP) =  -1196.87639013     A.U. after   12 cycles
 SCF Done:  E(RB3LYP) =  -1196.87643380     A.U. after   12 cycles
 SCF Done:  E(RB3LYP) =  -1196.87645520     A.U. after   11 cycles
 SCF Done:  E(RB3LYP) =  -1196.87647849     A.U. after   11 cycles
 SCF Done:  E(RB3LYP) =  -1196.87648071     A.U. after   10 cycles
 SCF Done:  E(RB3LYP) =  -1196.87648115     A.U. after   10 cycles
 SCF Done:  E(RB3LYP) =  -1196.87648128     A.U. after    7 cycles
 SCF Done:  E(RB3LYP) =  -1196.87648135     A.U. after    7 cycles
 Optimization completed.
    -- Stationary point found.
 Normal termination of Gaussian 16 at Fri Dec 11 11:59:55 2020.

 --------------------------------------------------------------------
 #N Geom=AllCheck Guess=TCheck SCRF=Check GenChk RB3LYP/6-31G(d) Freq
 --------------------------------------------------------------------

 Structure from the checkpoint file:  "JID_7228.chk"
 ------------------------------
 CID_68048291_JID_7228_neutraal
 ------------------------------
 Charge =  0 Multiplicity = 1

 SCF Done:  E(RB3LYP) =  -1196.87648135     A.U. after    1 cycles

  Exact polarizability: 205.164  -5.775 141.164   6.518   1.461  91.711
 Approx polarizability: 297.823 -16.865 243.168  18.591   0.753 138.105

                      1                      2                      3
                      A                      A                      A
 Frequencies --     14.4643                49.3657                76.1882
 Red. masses --      5.2400                 3.8721                 3.8374
 Frc consts  --      0.0006                 0.0056                 0.0131
 IR Inten    --      1.3040                 0.9599                 4.1595

                      4                      5                      6
                      A                      A                      A
 Frequencies --     94.7171               121.7933               129.7732
 Red. masses --      4.9917                 6.1394                 3.3145
 Frc consts  --      0.0264                 0.0537                 0.0329
 IR Inten    --      0.7361                 1.4726                 0.7079

                      7                      8                      9
                      A                      A                      A
 Frequencies --    169.1954               186.5192               203.3597
 Red. masses --      2.4190                 1.3097                 1.2461
 Frc consts  --      0.0408                 0.0268                 0.0304
 IR Inten    --     12.0965                 3.0648                 0.3118

                     10                     11                     12
                      A                      A                      A
 Frequencies --    218.3782               230.7244               256.3688
 Red. masses --      3.3785                 4.2870                 4.0674
 Frc consts  --      0.0949                 0.1345                 0.1575
 IR Inten    --      2.3928                 0.9360                 2.6707

                     13                     14                     15
                      A                      A                      A
 Frequencies --    285.5997               311.6562               369.7366
 Red. masses --      6.0911                 4.8643                 4.8996
 Frc consts  --      0.2927                 0.2784                 0.3946
 IR Inten    --      3.3281                 0.1924                 1.9179

                     16                     17                     18
                      A                      A                      A
 Frequencies --    372.1655               395.3179               427.2520
 Red. masses --      4.1716                 6.2366                 5.7860
 Frc consts  --      0.3404                 0.5742                 0.6223
 IR Inten    --      3.6480                 4.0091                13.7713

                     19                     20                     21
                      A                      A                      A
 Frequencies --    458.5411               469.8263               491.7647
 Red. masses --      7.7106                 5.2146                 4.4826
 Frc consts  --      0.9552                 0.6782                 0.6387
 IR Inten    --      5.1074                 9.2578                17.4639

                     22                     23                     24
                      A                      A                      A
 Frequencies --    499.8293               533.1822               574.2194
 Red. masses --      4.6472                 5.6600                 3.7689
 Frc consts  --      0.6840                 0.9480                 0.7322
 IR Inten    --     11.3355               133.5537                16.0056

                     25                     26                     27
                      A                      A                      A
 Frequencies --    584.5696               595.0531               634.8605
 Red. masses --      4.4436                 3.8307                 3.3856
 Frc consts  --      0.8947                 0.7992                 0.8040
 IR Inten    --      5.8910                37.5294               122.0943

                     28                     29                     30
                      A                      A                      A
 Frequencies --    655.7567               711.3989               727.7592
 Red. masses --      5.9163                 5.1792                 5.7584
 Frc consts  --      1.4990                 1.5443                 1.7969
 IR Inten    --     34.8312                 1.7686                 0.5027

                     31                     32                     33
                      A                      A                      A
 Frequencies --    756.5746               824.9486               835.5586
 Red. masses --      5.1041                 1.8093                 1.8353
 Frc consts  --      1.7214                 0.7255                 0.7549
 IR Inten    --     11.3684                73.1797                23.3510

                     34                     35                     36
                      A                      A                      A
 Frequencies --    865.5771               902.1878               946.9426
 Red. masses --      3.9694                 1.3192                 1.2924
 Frc consts  --      1.7522                 0.6327                 0.6828
 IR Inten    --    107.4242                10.7088                 1.5118

                     37                     38                     39
                      A                      A                      A
 Frequencies --    967.6459              1026.7105              1070.4381
 Red. masses --      2.9429                 2.2631                 3.2754
 Frc consts  --      1.6235                 1.4056                 2.2112
 IR Inten    --     12.1438                 3.0771                54.8198

                     40                     41                     42
                      A                      A                      A
 Frequencies --   1076.3697              1093.4894              1099.5422
 Red. masses --      5.8297                 4.3646                 3.6160
 Frc consts  --      3.9794                 3.0749                 2.5758
 IR Inten    --     41.1353                11.3194                63.3480

                     43                     44                     45
                      A                      A                      A
 Frequencies --   1142.9058              1156.7074              1162.5359
 Red. masses --      2.9683                 1.4077                 1.3331
 Frc consts  --      2.2844                 1.1097                 1.0615
 IR Inten    --    138.0851                41.3905                 6.8504

                     46                     47                     48
                      A                      A                      A
 Frequencies --   1166.3555              1168.0856              1179.0881
 Red. masses --      1.3866                 1.6474                 2.0122
 Frc consts  --      1.1113                 1.3244                 1.6482
 IR Inten    --     12.9976                24.9671                54.3838

                     49                     50                     51
                      A                      A                      A
 Frequencies --   1268.4244              1282.4269              1307.1990
 Red. masses --      1.3167                 1.6824                 2.1121
 Frc consts  --      1.2481                 1.6302                 2.1264
 IR Inten    --     21.8452                11.4135               137.2901

                     52                     53                     54
                      A                      A                      A
 Frequencies --   1321.5231              1353.3419              1369.2369
 Red. masses --      5.0393                 4.1949                 5.5393
 Frc consts  --      5.1852                 4.5268                 6.1188
 IR Inten    --     97.4590                38.0904               134.1125

                     55                     56                     57
                      A                      A                      A
 Frequencies --   1403.0226              1411.3770              1424.7860
 Red. masses --      1.7669                 3.2996                 1.2997
 Frc consts  --      2.0493                 3.8725                 1.5546
 IR Inten    --     16.6071               154.2029                35.0657

                     58                     59                     60
                      A                      A                      A
 Frequencies --   1465.7796              1477.1187              1478.8373
 Red. masses --      1.4642                 1.1925                 2.4780
 Frc consts  --      1.8534                 1.5329                 3.1929
 IR Inten    --     43.0465                 5.1170                74.9985

                     61                     62                     63
                      A                      A                      A
 Frequencies --   1508.8228              1518.7281              1527.6905
 Red. masses --      1.1290                 1.0422                 1.0709
 Frc consts  --      1.5144                 1.4164                 1.4725
 IR Inten    --     14.5858                 3.6077                30.0979

                     64                     65                     66
                      A                      A                      A
 Frequencies --   1541.1514              1543.2061              1553.8119
 Red. masses --      1.0483                 1.1818                 2.4989
 Frc consts  --      1.4669                 1.6583                 3.5546
 IR Inten    --     16.4065               106.3251                72.1990

                     67                     68                     69
                      A                      A                      A
 Frequencies --   1638.0730              1658.8895              1797.9097
 Red. masses --      6.9850                 7.1212                11.1757
 Frc consts  --     11.0429                11.5462                21.2843
 IR Inten    --     13.3012                20.5731               470.4868

                     70                     71                     72
                      A                      A                      A
 Frequencies --   3022.2769              3055.6601              3061.4781
 Red. masses --      1.0717                 1.0348                 1.0389
 Frc consts  --      5.7676                 5.6925                 5.7368
 IR Inten    --     40.7101                33.8617                26.6302

                     73                     74                     75
                      A                      A                      A
 Frequencies --   3125.7726              3128.2249              3149.9837
 Red. masses --      1.1031                 1.1027                 1.1045
 Frc consts  --      6.3498                 6.3580                 6.4568
 IR Inten    --     16.6121                17.0761                16.2962

                     76                     77                     78
                      A                      A                      A
 Frequencies --   3176.0040              3199.3617              3222.4485
 Red. masses --      1.0937                 1.0997                 1.0891
 Frc consts  --      6.5000                 6.6323                 6.6633
 IR Inten    --      6.9179                 0.4704                 2.0490

                     79                     80                     81
                      A                      A                      A
 Frequencies --   3238.9290              3252.4368              3519.5092
 Red. masses --      1.0945                 1.0901                 1.0750
 Frc consts  --      6.7650                 6.7939                 7.8454
 IR Inten    --      0.8039                 5.0619                28.5693

 - Thermochemistry -
 -------------------
 Temperature   298.150 Kelvin.  Pressure   1.00000 Atm.
 Atom     1 has atomic number  6 and mass  12.00000

 Molecular mass:   256.05178 amu.
 Principal axes and moments of inertia in atomic units:
                           1         2         3
     Eigenvalues --  1975.974767437.790628306.67805
           X            0.99992  -0.00148  -0.01253
           Y            0.00151   1.00000   0.00270
           Z            0.01253  -0.00272   0.99992
 This molecule is an asymmetric top.
 Rotational symmetry number  1.
 Warning -- assumption of classical behavior for rotation
           may cause significant error
 Rotational temperatures (Kelvin)      0.04383     0.01165     0.01043
 Rotational constants (GHZ):           0.91334     0.24264     0.21726
 Zero-point vibrational energy     587931.3 (Joules/Mol)
                                  140.51896 (Kcal/Mol)
 Warning -- explicit consideration of  26 degrees of freedom as
           vibrations may cause significant error
 Vibrational temperatures:     20.81    71.03   109.62   136.28   175.23
          (Kelvin)            186.71   243.43   268.36   292.59   314.20
                              331.96   368.86   410.91   448.40   531.97
                              535.46   568.77   614.72   659.74   675.98
                              707.54   719.14   767.13   826.17   841.07
                              856.15   913.42   943.49  1023.54  1047.08
                             1088.54  1186.92  1202.18  1245.37  1298.05
                             1362.44  1392.23  1477.21  1540.12  1548.66
                             1573.29  1582.00  1644.39  1664.24  1672.63
                             1678.13  1680.61  1696.44  1824.98  1845.13
                             1880.77  1901.38  1947.16  1970.03  2018.64
                             2030.66  2049.95  2108.93  2125.24  2127.72
                             2170.86  2185.11  2198.01  2217.37  2220.33
                             2235.59  2356.82  2386.77  2586.79  4348.38
                             4396.41  4404.78  4497.29  4500.82  4532.12
                             4569.56  4603.17  4636.38  4660.10  4679.53
                             5063.79

 Zero-point correction=                           0.223931 (Hartree/Particle)
 Thermal correction to Energy=                    0.239775
 Thermal correction to Enthalpy=                  0.240719
 Thermal correction to Gibbs Free Energy=         0.179499
 Sum of electronic and zero-point Energies=          -1196.652550
 Sum of electronic and thermal Energies=             -1196.636707
 Sum of electronic and thermal Enthalpies=           -1196.635762
 Sum of electronic and thermal Free Energies=        -1196.696982

                     E (Thermal)             CV                S
                      KCal/Mol        Cal/Mol-Kelvin    Cal/Mol-Kelvin
 Total                  150.461             59.592            128.849
 Electronic               0.000              0.000              0.000
 Translational            0.889              2.981             42.521
 Rotational               0.889              2.981             33.168
 Vibrational            148.684             53.631             53.160
 Vibration     1          0.593              1.986              7.278
 Vibration     2          0.595              1.978              4.843
 Vibration     3          0.599              1.965              3.987
 Vibration     4          0.603              1.953              3.560
 Vibration     5          0.609              1.931              3.072
 Vibration     6          0.612              1.924              2.949
 Vibration     7          0.625              1.880              2.444
 Vibration     8          0.632              1.858              2.262
 Vibration     9          0.639              1.835              2.102
 Vibration    10          0.646              1.813              1.972
 Vibration    11          0.652              1.794              1.873
 Vibration    12          0.666              1.752              1.686
 Vibration    13          0.683              1.700              1.500
 Vibration    14          0.700              1.651              1.354
 Vibration    15          0.742              1.534              1.081
 Vibration    16          0.744              1.529              1.071
 Vibration    17          0.762              1.480              0.980
 Vibration    18          0.789              1.411              0.868
 Vibration    19          0.817              1.342              0.770
 Vibration    20          0.827              1.317              0.738
 Vibration    21          0.848              1.268              0.679
 Vibration    22          0.855              1.250              0.659
 Vibration    23          0.888              1.177              0.580
 Vibration    24          0.931              1.087              0.496
 Vibration    25          0.942              1.065              0.477
 Vibration    26          0.953              1.042              0.458

 Optimization completed.
    -- Stationary point found.
 Normal termination of Gaussian 16 at Fri Dec 11 12:10:27 2020.

 ----------------------------------------------------------------------
 # B3LYP/6-311++G(d,p) empiricaldispersion=gd3bj scf=xqc pop=npa geom=c
 heck
 ----------------------------------------------------------------------

 --------------------------------------
 CID_68048291_JID_7228_Energie_neutraal
 --------------------------------------
 Structure from the checkpoint file:  "JID_7228.chk"
 Charge =  0 Multiplicity = 1

 SCF Done:  E(RB3LYP) =  -1197.12923916     A.U. after   16 cycles
 Normal termination of Gaussian 16 at Fri Dec 11 12:15:36 2020.

 ----------------------------------------------------------------------
 # B3LYP/6-311++G(d,p) empiricaldispersion=gd3bj scf=xqc pop=npa geom=c
 heck
 ----------------------------------------------------------------------

 ------------------------------------
 CID_68048291_JID_7228_Energie_kation
 ------------------------------------
 Structure from the checkpoint file:  "JID_7228.chk"
 Charge =  1 Multiplicity = 2

 SCF Done:  E(UB3LYP) =  -1196.82371196     A.U. after   25 cycles
 Normal termination of Gaussian 16 at Fri Dec 11 12:26:52 2020.
 Gaussian 16:  ES64L-G16RevA.03 25-Dec-2016

 ----------------------------------------------------------------------
 # B3LYP/6-311++G(d,p) empiricaldispersion=gd3bj scf=xqc pop=npa geom=c
 heck
 ----------------------------------------------------------------------

 -----------------------------------
 CID_68048291_JID_7228_Energie_anion
 -----------------------------------
 Structure from the checkpoint file:  "JID_7228.chk"
 Charge = -1 Multiplicity = 2

                         Standard orientation:
 ---------------------------------------------------------------------
 Center     Atomic      Atomic             Coordinates (Angstroms)
 Number     Number       Type             X           Y           Z
 ---------------------------------------------------------------------
      1          6           0       -3.123752   -0.690907    2.175856
      2          7           0       -3.431988    0.215328    1.063971
      3         16           0       -2.789820   -0.213407   -0.442661
      4          8           0       -2.702876   -1.673703   -0.585661
      5          8           0       -3.536340    0.595176   -1.410004
      6          6           0       -1.122298    0.402391   -0.296487
      7          6           0       -0.074272   -0.516014   -0.250722
      8          6           0        1.239036   -0.052498   -0.157099
      9          6           0        1.466410    1.336160   -0.093544
     10          6           0        0.407095    2.239993   -0.146935
     11          6           0       -0.900364    1.778198   -0.256756
     12          8           0        2.737171    1.822990   -0.028543
     13          6           0        3.666859    0.965278    0.633444
     14          6           0        3.598620   -0.489213    0.188762
     15          8           0        4.587355   -1.203949    0.217351
     16          7           0        2.344730   -0.926012   -0.179275
     17          6           0        2.165259   -2.327093   -0.545377
     18          1           0       -2.040231   -0.706560    2.324084
     19          1           0       -3.473335   -1.716686    2.011929
     20          1           0       -3.583331   -0.281807    3.079046
     21          1           0       -4.429092    0.373983    0.925241
     22          1           0       -0.300945   -1.572433   -0.309965
     23          1           0        0.633553    3.299984   -0.109037
     24          1           0       -1.734621    2.468111   -0.305755
     25          1           0        3.507339    1.009071    1.721671
     26          1           0        4.662600    1.344798    0.408291
     27          1           0        1.590450   -2.861178    0.219330
     28          1           0        1.641580   -2.398588   -1.502939
     29          1           0        3.155897   -2.771290   -0.624191
 ---------------------------------------------------------------------

 SCF Done:  E(UB3LYP) =  -1197.13052765     A.U. after   33 cycles
 SCF Done:  E(UB3LYP) =  -1197.13052765     a.u. after    1 cycles

 The electronic state is 2-A.
 Alpha  occ. eigenvalues --  -88.93509 -19.04316 -18.99401 -18.99306 -18.98871
 Alpha  occ. eigenvalues --  -14.25660 -14.22558 -10.16522 -10.13263 -10.10664
 Alpha  occ. eigenvalues --  -10.10010 -10.09878 -10.09780 -10.06583 -10.06426
 Alpha  occ. eigenvalues --  -10.05679 -10.04750  -7.99677  -5.95980  -5.95940
 Alpha  occ. eigenvalues --   -5.95737  -0.99536  -0.97001  -0.93966  -0.88659
 Alpha  occ. eigenvalues --   -0.84953  -0.80835  -0.74134  -0.66325  -0.64775
 Alpha  occ. eigenvalues --   -0.63584  -0.60479  -0.58308  -0.53394  -0.52098
 Alpha  occ. eigenvalues --   -0.49202  -0.45118  -0.43405  -0.41206  -0.39924
 Alpha  occ. eigenvalues --   -0.39852  -0.37794  -0.36896  -0.36546  -0.34888
 Alpha  occ. eigenvalues --   -0.34543  -0.33705  -0.33109  -0.32360  -0.31752
 Alpha  occ. eigenvalues --   -0.30372  -0.29683  -0.29656  -0.28232  -0.27843
 Alpha  occ. eigenvalues --   -0.26447  -0.23495  -0.22934  -0.22145  -0.20660
 Alpha  occ. eigenvalues --   -0.19883  -0.19449  -0.18538  -0.16241  -0.15761
 Alpha  occ. eigenvalues --   -0.13366  -0.10629   0.04628
 Alpha virt. eigenvalues --    0.06567   0.07854   0.08326   0.08955   0.09398
 Alpha virt. eigenvalues --    0.10042   0.10409   0.10684   0.11513   0.12080
 Alpha virt. eigenvalues --    0.12820   0.12919   0.13299   0.14605   0.15009

  Beta  occ. eigenvalues --  -88.93499 -19.04226 -18.99361 -18.99267 -18.98747
  Beta  occ. eigenvalues --  -14.25714 -14.22517 -10.16383 -10.13241 -10.10654
  Beta  occ. eigenvalues --  -10.09851 -10.09721 -10.09588 -10.06574 -10.06238
  Beta  occ. eigenvalues --  -10.05794 -10.04465  -7.99666  -5.95967  -5.95904
  Beta  occ. eigenvalues --   -5.95735  -0.99427  -0.96751  -0.93740  -0.88575
  Beta  occ. eigenvalues --   -0.84898  -0.80734  -0.73788  -0.65967  -0.64572
  Beta  occ. eigenvalues --   -0.63322  -0.60351  -0.58161  -0.52924  -0.51930
  Beta  occ. eigenvalues --   -0.49113  -0.44979  -0.43125  -0.41049  -0.39737
  Beta  occ. eigenvalues --   -0.39619  -0.37635  -0.36807  -0.36434  -0.34768
  Beta  occ. eigenvalues --   -0.34437  -0.33600  -0.33019  -0.32247  -0.31619
  Beta  occ. eigenvalues --   -0.30081  -0.29614  -0.29451  -0.27874  -0.27235
  Beta  occ. eigenvalues --   -0.26239  -0.23208  -0.22789  -0.21613  -0.20522
  Beta  occ. eigenvalues --   -0.19512  -0.19119  -0.18395  -0.16056  -0.15629
  Beta  occ. eigenvalues --   -0.12742  -0.09370
  Beta virt. eigenvalues --    0.07117   0.07943   0.08378   0.09280   0.09402
  Beta virt. eigenvalues --    0.09694   0.10392   0.10537   0.10838   0.11689
  Beta virt. eigenvalues --    0.12046   0.12765   0.12934   0.13705   0.14528

 Mulliken charges and spin densities:
               1          2
     1  C    0.051913  -0.452186
     2  N   -0.210248   0.006430
     3  S    0.495187  -0.251630
     4  O   -0.226759   0.003926
     5  O   -0.244058   0.002425
     6  C   -0.129856   0.009863
     7  C   -0.478462   0.069507
     8  C    0.201139   0.262852
     9  C   -0.316827   0.193420
    10  C   -0.247722  -0.090851
    11  C   -0.208099   0.189989
    12  O   -0.150399   0.017953
    13  C   -0.207196  -0.063290
    14  C    0.063365   0.126930
    15  O   -0.387694   0.038185
    16  N    0.066576  -0.016894
    17  C   -0.287104  -0.033737
    18  H    0.066116   0.087046
    19  H    0.148081   0.031756
    20  H   -0.276431   0.425774
    21  H    0.020182   0.263143
    22  H    0.247967  -0.009190
    23  H    0.141651   0.015259
    24  H    0.164831   0.012814
    25  H    0.153320   0.018598
    26  H    0.112849   0.075917
    27  H    0.137863   0.015321
    28  H    0.137791   0.021440
    29  H    0.162021   0.029231
 Sum of Mulliken charges =  -1.00000   1.00000

 Dipole moment (field-independent basis, Debye):
    X=              2.7273    Y=             -0.2821    Z=              1.2883  Tot=              3.0295
 Quadrupole moment (field-independent basis, Debye-Ang):
   XX=           -186.4708   YY=           -124.4113   ZZ=           -126.5835
   XY=              4.5665   XZ=             -1.2752   YZ=              1.2561

 Summary of Natural Population Analysis:

                                       Natural Population
                Natural  -----------------------------------------------
    Atom  No    Charge         Core      Valence    Rydberg      Total
 -----------------------------------------------------------------------
      C    1   -0.18822      0.99965     2.17826    0.01030     3.18822
      N    2   -0.42926      0.99977     2.91603    0.01346     3.92926
      S    3    1.10822      4.99919     1.79269    0.09990     6.89178
      O    4   -0.47366      0.99991     3.46856    0.00519     4.47366
      O    5   -0.46876      0.99991     3.46289    0.00596     4.46876
      C    6   -0.12049      0.99937     2.10670    0.01441     3.12049
      C    7   -0.11005      0.99949     2.10181    0.00875     3.11005
      C    8    0.05620      0.99945     1.93478    0.00957     2.94380
      C    9    0.21875      0.99937     1.76944    0.01245     2.78125
      C   10   -0.14467      0.99954     2.13525    0.00989     3.14467
      C   11   -0.03859      0.99952     2.02926    0.00982     3.03859
      O   12   -0.26992      0.99986     3.26064    0.00942     4.26992
      C   13   -0.04331      0.99955     2.03189    0.01187     3.04331
      C   14    0.34900      0.99967     1.62940    0.02194     2.65100
      O   15   -0.31583      0.99988     3.30999    0.00597     4.31583
      N   16   -0.24285      0.99960     2.73517    0.00808     3.74285
      C   17   -0.18173      0.99965     2.17555    0.00653     3.18173
      H   18    0.10097      0.00000     0.39802    0.00101     0.39903
      H   19    0.09175      0.00000     0.40690    0.00135     0.40825
      H   20    0.09795      0.00000     0.40069    0.00136     0.40205
      H   21    0.19195      0.00000     0.30501    0.00304     0.30805
      H   22    0.11485      0.00000     0.38385    0.00130     0.38515
      H   23    0.10217      0.00000     0.39663    0.00120     0.39783
      H   24    0.10435      0.00000     0.39459    0.00106     0.39565
      H   25    0.08751      0.00000     0.41065    0.00185     0.41249
      H   26    0.09938      0.00000     0.39875    0.00187     0.40062
      H   27    0.09327      0.00000     0.40524    0.00149     0.40673
      H   28    0.09750      0.00000     0.40098    0.00152     0.40250
      H   29    0.11352      0.00000     0.38519    0.00130     0.38648
 =======================================================================
   * Total *    0.00000     20.99337    45.72479    0.28184    67.00000

 Normal termination of Gaussian 16 at Fri Dec 11 12:45:59 2020.
