 Gaussian 16, Revision A.03,

 -----------------------------------------------------------
 # opt freq B3LYP/6-31G(d) empiricaldispersion=gd3bj scf=xqc
 -----------------------------------------------------------

 --------------------------------
 CID_111458503_JID_10097_neutraal
 --------------------------------
 Symbolic Z-matrix:
 Charge =  0 Multiplicity = 1

 SCF Done:  E(RB3LYP) =  -934.888755990     A.U. after   15 cycles
 SCF Done:  E(RB3LYP) =  -934.890343413     A.U. after   13 cycles
 SCF Done:  E(RB3LYP) =  -934.888819591     A.U. after   13 cycles
 SCF Done:  E(RB3LYP) =  -934.893816118     A.U. after   12 cycles
 SCF Done:  E(RB3LYP) =  -934.894627650     A.U. after   12 cycles
 SCF Done:  E(RB3LYP) =  -934.895624033     A.U. after   13 cycles
 SCF Done:  E(RB3LYP) =  -934.895833222     A.U. after   12 cycles
 SCF Done:  E(RB3LYP) =  -934.896079332     A.U. after   11 cycles
 SCF Done:  E(RB3LYP) =  -934.896216588     A.U. after   11 cycles
 SCF Done:  E(RB3LYP) =  -934.896265900     A.U. after   10 cycles
 SCF Done:  E(RB3LYP) =  -934.896371467     A.U. after    9 cycles
 SCF Done:  E(RB3LYP) =  -934.896370664     A.U. after    9 cycles
 SCF Done:  E(RB3LYP) =  -934.896371839     A.U. after    9 cycles
 SCF Done:  E(RB3LYP) =  -934.896371905     A.U. after    7 cycles
 SCF Done:  E(RB3LYP) =  -934.896371916     A.U. after    6 cycles
 Optimization completed.
    -- Stationary point found.
 Normal termination of Gaussian 16 at Sun Dec 13 21:02:37 2020.

 --------------------------------------------------------------------
 #N Geom=AllCheck Guess=TCheck SCRF=Check GenChk RB3LYP/6-31G(d) Freq
 --------------------------------------------------------------------

 Structure from the checkpoint file:  "JID_10097.chk"
 --------------------------------
 CID_111458503_JID_10097_neutraal
 --------------------------------
 Charge =  0 Multiplicity = 1

 SCF Done:  E(RB3LYP) =  -934.896371916     A.U. after    1 cycles

  Exact polarizability: 213.633  -5.386 184.553   4.121 -17.068 121.858
 Approx polarizability: 281.483   3.119 282.884   8.629 -42.669 195.201

                      1                      2                      3
                      A                      A                      A
 Frequencies --     19.8629                26.7951                30.3924
 Red. masses --      4.3775                 4.0327                 3.7733
 Frc consts  --      0.0010                 0.0017                 0.0021
 IR Inten    --      0.4332                 0.9354                 1.2780

                      4                      5                      6
                      A                      A                      A
 Frequencies --     53.0092                59.2865                62.6311
 Red. masses --      3.1084                 1.6551                 1.9101
 Frc consts  --      0.0051                 0.0034                 0.0044
 IR Inten    --      1.9040                 0.0688                 1.6350

                      7                      8                      9
                      A                      A                      A
 Frequencies --     92.7223               103.1247               125.3545
 Red. masses --      4.3215                 4.1568                 5.3487
 Frc consts  --      0.0219                 0.0260                 0.0495
 IR Inten    --      0.9739                 0.7750                 1.0943

                     10                     11                     12
                      A                      A                      A
 Frequencies --    136.3806               167.6556               185.3537
 Red. masses --      3.7925                 3.6466                 2.7778
 Frc consts  --      0.0416                 0.0604                 0.0562
 IR Inten    --      3.9174                 1.5829                 0.5327

                     13                     14                     15
                      A                      A                      A
 Frequencies --    197.0772               212.2925               238.8882
 Red. masses --      2.6222                 3.4604                 1.6055
 Frc consts  --      0.0600                 0.0919                 0.0540
 IR Inten    --      1.6392                 0.9976                 1.5200

                     16                     17                     18
                      A                      A                      A
 Frequencies --    260.5382               280.3575               294.8373
 Red. masses --      3.8567                 1.2047                 2.5726
 Frc consts  --      0.1542                 0.0558                 0.1318
 IR Inten    --      9.8068                 0.6013                21.5147

                     19                     20                     21
                      A                      A                      A
 Frequencies --    306.3671               344.9837               355.0375
 Red. masses --      1.4414                 2.6048                 3.8310
 Frc consts  --      0.0797                 0.1827                 0.2845
 IR Inten    --     66.9545                12.0940                 2.0119

                     22                     23                     24
                      A                      A                      A
 Frequencies --    376.3333               396.3296               412.4517
 Red. masses --      3.2692                 2.5224                 3.5426
 Frc consts  --      0.2728                 0.2334                 0.3551
 IR Inten    --     36.4961                 2.6531                 2.0998

                     25                     26                     27
                      A                      A                      A
 Frequencies --    439.3020               477.6390               506.3261
 Red. masses --      3.8817                 3.3649                 3.3755
 Frc consts  --      0.4414                 0.4523                 0.5099
 IR Inten    --      4.6867                 9.4790                 3.1196

                     28                     29                     30
                      A                      A                      A
 Frequencies --    545.7906               591.2236               624.9867
 Red. masses --      4.2790                 1.8278                 4.5084
 Frc consts  --      0.7510                 0.3764                 1.0376
 IR Inten    --     14.0367                37.2700                12.4142

                     31                     32                     33
                      A                      A                      A
 Frequencies --    646.3433               654.5168               675.4468
 Red. masses --      5.4149                 4.1472                 2.7674
 Frc consts  --      1.3328                 1.0468                 0.7439
 IR Inten    --      4.0815                 4.0505                32.2643

                     34                     35                     36
                      A                      A                      A
 Frequencies --    692.2833               715.1250               721.9279
 Red. masses --      3.1538                 3.4554                 3.8075
 Frc consts  --      0.8905                 1.0411                 1.1692
 IR Inten    --     28.3984                 7.7462                11.1410

                     37                     38                     39
                      A                      A                      A
 Frequencies --    743.3718               763.5286               798.6693
 Red. masses --      4.1567                 6.3201                 1.2090
 Frc consts  --      1.3533                 2.1708                 0.4544
 IR Inten    --     19.4804                33.7950                 3.9623

                     40                     41                     42
                      A                      A                      A
 Frequencies --    803.3083               817.1636               859.0095
 Red. masses --      1.3944                 1.2666                 1.9558
 Frc consts  --      0.5301                 0.4983                 0.8503
 IR Inten    --      8.2435                24.9069                 1.2415

                     43                     44                     45
                      A                      A                      A
 Frequencies --    868.6812               912.5468               931.8439
 Red. masses --      1.6891                 1.3737                 1.8827
 Frc consts  --      0.7510                 0.6740                 0.9632
 IR Inten    --     14.6531                 9.8525                14.1214

                     46                     47                     48
                      A                      A                      A
 Frequencies --    960.1458               967.2351               975.5877
 Red. masses --      2.8524                 3.2654                 2.7426
 Frc consts  --      1.5493                 1.7999                 1.5380
 IR Inten    --      3.9435                13.0862                16.0890

                     49                     50                     51
                      A                      A                      A
 Frequencies --   1010.0184              1016.3872              1028.8991
 Red. masses --      3.4267                 3.7209                 3.7359
 Frc consts  --      2.0596                 2.2647                 2.3302
 IR Inten    --     44.7778                17.3536                 8.4703

                     52                     53                     54
                      A                      A                      A
 Frequencies --   1059.4582              1079.9230              1083.3036
 Red. masses --      1.4425                 1.8247                 1.5431
 Frc consts  --      0.9540                 1.2538                 1.0670
 IR Inten    --     13.0110                28.1778                 8.5648

                     55                     56                     57
                      A                      A                      A
 Frequencies --   1097.8579              1106.0683              1121.8154
 Red. masses --      2.0809                 1.6646                 1.7754
 Frc consts  --      1.4778                 1.1998                 1.3164
 IR Inten    --     43.8107                12.8074                21.4320

                     58                     59                     60
                      A                      A                      A
 Frequencies --   1134.7411              1159.5185              1185.6884
 Red. masses --      1.8754                 1.3225                 2.8082
 Frc consts  --      1.4227                 1.0476                 2.3261
 IR Inten    --     17.4790                 9.3548                76.1329

                     61                     62                     63
                      A                      A                      A
 Frequencies --   1207.2757              1224.7127              1245.5160
 Red. masses --      3.2447                 1.9357                 1.9681
 Frc consts  --      2.7864                 1.7106                 1.7988
 IR Inten    --     59.4890                36.1353                57.6197

                     64                     65                     66
                      A                      A                      A
 Frequencies --   1249.4075              1260.9454              1308.2012
 Red. masses --      1.8045                 3.0790                 1.4223
 Frc consts  --      1.6596                 2.8844                 1.4341
 IR Inten    --     26.0231                24.9495                37.0685

                     67                     68                     69
                      A                      A                      A
 Frequencies --   1318.3454              1347.3988              1360.8526
 Red. masses --      1.4659                 3.7119                 1.4382
 Frc consts  --      1.5011                 3.9705                 1.5692
 IR Inten    --     57.0589                 0.9585                49.1547

                     70                     71                     72
                      A                      A                      A
 Frequencies --   1373.2484              1382.5180              1399.9166
 Red. masses --      1.5394                 2.2620                 4.2872
 Frc consts  --      1.7104                 2.5473                 4.9503
 IR Inten    --     57.8686                99.3378                23.5678

                     73                     74                     75
                      A                      A                      A
 Frequencies --   1419.5967              1426.3476              1428.2861
 Red. masses --      2.2284                 2.7843                 2.0203
 Frc consts  --      2.6458                 3.3375                 2.4282
 IR Inten    --      7.6785                 2.1716                79.3189

                     76                     77                     78
                      A                      A                      A
 Frequencies --   1436.1620              1440.0417              1468.9011
 Red. masses --      1.3602                 1.6004                 1.7258
 Frc consts  --      1.6529                 1.9553                 2.1939
 IR Inten    --      7.6089                 3.6684                21.2634

                     79                     80                     81
                      A                      A                      A
 Frequencies --   1492.6868              1497.2606              1506.4839
 Red. masses --      1.8855                 1.7076                 1.0878
 Frc consts  --      2.4753                 2.2554                 1.4545
 IR Inten    --      4.1361                88.7889                 4.8558

                     82                     83                     84
                      A                      A                      A
 Frequencies --   1506.7870              1509.0809              1525.0780
 Red. masses --      1.1007                 1.0590                 1.0679
 Frc consts  --      1.4725                 1.4209                 1.4634
 IR Inten    --      1.2268                 9.1525                 3.3302

                     85                     86                     87
                      A                      A                      A
 Frequencies --   1526.6988              1532.0698              1536.5703
 Red. masses --      1.0426                 1.0603                 1.0882
 Frc consts  --      1.4318                 1.4663                 1.5137
 IR Inten    --      7.4636                 7.9778                 1.3183

                     88                     89                     90
                      A                      A                      A
 Frequencies --   1546.2739              1572.9341              1608.5485
 Red. masses --      1.1942                 6.3879                 5.0238
 Frc consts  --      1.6823                 9.3117                 7.6586
 IR Inten    --      5.5394               154.7606                23.1729

                     91                     92                     93
                      A                      A                      A
 Frequencies --   1643.0111              1765.9408              3044.1461
 Red. masses --      6.1815                 7.7582                 1.0651
 Frc consts  --      9.8316                14.2548                 5.8154
 IR Inten    --      2.7440               368.3039                26.8973

                     94                     95                     96
                      A                      A                      A
 Frequencies --   3051.1326              3055.8086              3057.9252
 Red. masses --      1.0609                 1.0461                 1.0351
 Frc consts  --      5.8189                 5.7554                 5.7026
 IR Inten    --     23.5331                30.5796                31.8281

                     97                     98                     99
                      A                      A                      A
 Frequencies --   3068.8212              3094.0670              3117.8141
 Red. masses --      1.0366                 1.0979                 1.1018
 Frc consts  --      5.7519                 6.1924                 6.3106
 IR Inten    --     49.2945                10.0972                23.1005

                    100                    101                    102
                      A                      A                      A
 Frequencies --   3126.2882              3140.2734              3141.7523
 Red. masses --      1.1034                 1.1029                 1.1002
 Frc consts  --      6.3541                 6.4078                 6.3984
 IR Inten    --     40.6787                25.1472                14.0258

                    103                    104                    105
                      A                      A                      A
 Frequencies --   3146.7836              3154.9502              3172.7499
 Red. masses --      1.1018                 1.0938                 1.1058
 Frc consts  --      6.4284                 6.4148                 6.5584
 IR Inten    --     20.3791                 3.8840                 7.1404

                    106                    107                    108
                      A                      A                      A
 Frequencies --   3256.6987              3262.9693              3283.8200
 Red. masses --      1.0956                 1.0953                 1.0974
 Frc consts  --      6.8461                 6.8710                 6.9723
 IR Inten    --      5.2594                 4.9329                 0.0581

                    109                    110                    111
                      A                      A                      A
 Frequencies --   3287.8293              3590.3895              3734.0244
 Red. masses --      1.0992                 1.0751                 1.0659
 Frc consts  --      7.0008                 8.1658                 8.7566
 IR Inten    --     24.5271                22.9534                12.2572

 - Thermochemistry -
 -------------------
 Temperature   298.150 Kelvin.  Pressure   1.00000 Atm.
 Atom     1 has atomic number  6 and mass  12.00000

 Molecular mass:   277.14264 amu.
 Principal axes and moments of inertia in atomic units:
                           1         2         3
     Eigenvalues --  3227.77675********************
           X            0.99986  -0.01599  -0.00563
           Y            0.01602   0.99986   0.00466
           Z            0.00555  -0.00475   0.99997
 This molecule is an asymmetric top.
 Rotational symmetry number  1.
 Warning -- assumption of classical behavior for rotation
           may cause significant error
 Rotational temperatures (Kelvin)      0.02683     0.00784     0.00662
 Rotational constants (GHZ):           0.55913     0.16342     0.13801
 Zero-point vibrational energy     851556.2 (Joules/Mol)
                                  203.52683 (Kcal/Mol)
 Warning -- explicit consideration of  29 degrees of freedom as
           vibrations may cause significant error
 Vibrational temperatures:     28.58    38.55    43.73    76.27    85.30
          (Kelvin)             90.11   133.41   148.37   180.36   196.22
                              241.22   266.68   283.55   305.44   343.71
                              374.86   403.37   424.21   440.79   496.35
                              510.82   541.46   570.23   593.43   632.06
                              687.22   728.49   785.27   850.64   899.22
                              929.94   941.70   971.82   996.04  1028.91
                             1038.69  1069.55  1098.55  1149.11  1155.78
                             1175.72  1235.92  1249.84  1312.95  1340.72
                             1381.44  1391.64  1403.65  1453.19  1462.35
                             1480.36  1524.32  1553.77  1558.63  1579.57
                             1591.39  1614.04  1632.64  1668.29  1705.94
                             1737.00  1762.09  1792.02  1797.62  1814.22
                             1882.21  1896.81  1938.61  1957.96  1975.80
                             1989.14  2014.17  2042.48  2052.20  2054.99
                             2066.32  2071.90  2113.42  2147.64  2154.22
                             2167.49  2167.93  2171.23  2194.25  2196.58
                             2204.31  2210.78  2224.74  2263.10  2314.34
                             2363.93  2540.79  4379.85  4389.90  4396.63
                             4399.67  4415.35  4451.67  4485.84  4498.03
                             4518.15  4520.28  4527.52  4539.27  4564.88
                             4685.66  4694.69  4724.68  4730.45  5165.77
                             5372.43

 Zero-point correction=                           0.324341 (Hartree/Particle)
 Thermal correction to Energy=                    0.344615
 Thermal correction to Enthalpy=                  0.345559
 Thermal correction to Gibbs Free Energy=         0.272795
 Sum of electronic and zero-point Energies=           -934.572031
 Sum of electronic and thermal Energies=              -934.551757
 Sum of electronic and thermal Enthalpies=            -934.550813
 Sum of electronic and thermal Free Energies=         -934.623577

                     E (Thermal)             CV                S
                      KCal/Mol        Cal/Mol-Kelvin    Cal/Mol-Kelvin
 Total                  216.249             74.818            153.145
 Electronic               0.000              0.000              0.000
 Translational            0.889              2.981             42.757
 Rotational               0.889              2.981             34.499
 Vibrational            214.472             68.857             75.890
 Vibration     1          0.593              1.986              6.648
 Vibration     2          0.593              1.984              6.054
 Vibration     3          0.594              1.984              5.804
 Vibration     4          0.596              1.976              4.702
 Vibration     5          0.597              1.974              4.481
 Vibration     6          0.597              1.972              4.373
 Vibration     7          0.602              1.954              3.602
 Vibration     8          0.605              1.947              3.394
 Vibration     9          0.610              1.928              3.016
 Vibration    10          0.614              1.917              2.854
 Vibration    11          0.624              1.882              2.462
 Vibration    12          0.631              1.860              2.274
 Vibration    13          0.636              1.844              2.160
 Vibration    14          0.643              1.822              2.024
 Vibration    15          0.657              1.781              1.811
 Vibration    16          0.669              1.745              1.658
 Vibration    17          0.680              1.710              1.531
 Vibration    18          0.689              1.683              1.446
 Vibration    19          0.697              1.662              1.382
 Vibration    20          0.723              1.585              1.189
 Vibration    21          0.731              1.565              1.144
 Vibration    22          0.747              1.521              1.054
 Vibration    23          0.763              1.478              0.976
 Vibration    24          0.776              1.443              0.918
 Vibration    25          0.799              1.384              0.829
 Vibration    26          0.834              1.300              0.716
 Vibration    27          0.862              1.236              0.642
 Vibration    28          0.901              1.149              0.553
 Vibration    29          0.949              1.050              0.465

 Optimization completed.
    -- Stationary point found.
 Normal termination of Gaussian 16 at Sun Dec 13 21:20:13 2020.

 ----------------------------------------------------------------------
 # B3LYP/6-311++G(d,p) empiricaldispersion=gd3bj scf=xqc pop=npa geom=c
 heck
 ----------------------------------------------------------------------

 ----------------------------------------
 CID_111458503_JID_10097_Energie_neutraal
 ----------------------------------------
 Structure from the checkpoint file:  "JID_10097.chk"
 Charge =  0 Multiplicity = 1

 SCF Done:  E(RB3LYP) =  -935.165809725     A.U. after   16 cycles
 Normal termination of Gaussian 16 at Sun Dec 13 21:27:30 2020.

 ----------------------------------------------------------------------
 # B3LYP/6-311++G(d,p) empiricaldispersion=gd3bj scf=xqc pop=npa geom=c
 heck
 ----------------------------------------------------------------------

 --------------------------------------
 CID_111458503_JID_10097_Energie_kation
 --------------------------------------
 Structure from the checkpoint file:  "JID_10097.chk"
 Charge =  1 Multiplicity = 2

 SCF Done:  E(UB3LYP) =  -934.873710467     A.U. after   30 cycles
 Normal termination of Gaussian 16 at Sun Dec 13 21:45:40 2020.
 Gaussian 16:  ES64L-G16RevA.03 25-Dec-2016

 ----------------------------------------------------------------------
 # B3LYP/6-311++G(d,p) empiricaldispersion=gd3bj scf=xqc pop=npa geom=c
 heck
 ----------------------------------------------------------------------

 -------------------------------------
 CID_111458503_JID_10097_Energie_anion
 -------------------------------------
 Structure from the checkpoint file:  "JID_10097.chk"
 Charge = -1 Multiplicity = 2

                         Standard orientation:
 ---------------------------------------------------------------------
 Center     Atomic      Atomic             Coordinates (Angstroms)
 Number     Number       Type             X           Y           Z
 ---------------------------------------------------------------------
      1          6           0        5.347463   -1.916925   -1.299004
      2          6           0        5.108946   -1.588344    0.184460
      3          6           0        3.757511   -1.015365    0.441979
      4          6           0        2.671981   -1.439060    1.160097
      5          6           0        1.652749   -0.454488    0.983035
      6          6           0        2.182749    0.508733    0.163335
      7          8           0        3.473271    0.170254   -0.162326
      8          6           0        1.750984    1.830725   -0.335040
      9          8           0        2.565880    2.712411   -0.586741
     10          7           0        0.398554    2.062259   -0.481133
     11          6           0       -0.673556    1.104907   -0.681950
     12          6           0       -1.797178    1.162840    0.379418
     13          6           0       -2.348886    2.585018    0.521198
     14          6           0       -2.873826    0.178363   -0.003087
     15          6           0       -2.905375   -1.168433    0.327313
     16          7           0       -4.010773   -1.696408   -0.259461
     17          7           0       -4.715167   -0.775677   -0.954404
     18          6           0       -4.027547    0.357460   -0.805123
     19          6           0       -4.523928   -3.046699   -0.141436
     20          8           0       -1.185686    0.757552    1.614371
     21          1           0        4.623455   -2.657693   -1.654944
     22          1           0        6.354744   -2.319844   -1.448299
     23          1           0        5.241914   -1.017495   -1.912850
     24          1           0        5.215415   -2.490809    0.796414
     25          1           0        5.874729   -0.879468    0.526620
     26          1           0        2.613795   -2.343040    1.750582
     27          1           0        0.669390   -0.425357    1.428555
     28          1           0        0.242124    3.000269   -0.829552
     29          1           0       -1.137801    1.273962   -1.661752
     30          1           0       -0.255280    0.097814   -0.691808
     31          1           0       -2.752193    2.955910   -0.427909
     32          1           0       -3.159596    2.609514    1.257859
     33          1           0       -1.552036    3.254934    0.854688
     34          1           0       -2.231659   -1.764455    0.924874
     35          1           0       -4.382799    1.261112   -1.282575
     36          1           0       -5.339713   -3.092406    0.587694
     37          1           0       -4.897618   -3.368190   -1.115288
     38          1           0       -3.715389   -3.708230    0.176669
     39          1           0       -1.880021    0.768121    2.292391
 ---------------------------------------------------------------------

 SCF Done:  E(UB3LYP) =  -935.161815187     A.U. after   33 cycles
 SCF Done:  E(UB3LYP) =  -935.161815187     a.u. after    1 cycles

 The electronic state is 2-A.
 Alpha  occ. eigenvalues --  -19.08493 -19.03909 -18.98263 -14.30647 -14.24277
 Alpha  occ. eigenvalues --  -14.23803 -10.17361 -10.15689 -10.13263 -10.12524
 Alpha  occ. eigenvalues --  -10.12347 -10.12072 -10.11894 -10.10482 -10.09818
 Alpha  occ. eigenvalues --  -10.08588 -10.08325 -10.08204 -10.07457 -10.07272
 Alpha  occ. eigenvalues --   -1.01477  -0.96641  -0.94562  -0.93424  -0.82580
 Alpha  occ. eigenvalues --   -0.75922  -0.72071  -0.71486  -0.70341  -0.67971
 Alpha  occ. eigenvalues --   -0.64412  -0.61664  -0.61456  -0.56478  -0.54319
 Alpha  occ. eigenvalues --   -0.51434  -0.50544  -0.49231  -0.48708  -0.45375
 Alpha  occ. eigenvalues --   -0.45240  -0.42278  -0.41733  -0.40117  -0.39083
 Alpha  occ. eigenvalues --   -0.38621  -0.37090  -0.36299  -0.35709  -0.35408
 Alpha  occ. eigenvalues --   -0.34777  -0.33559  -0.33336  -0.32707  -0.32240
 Alpha  occ. eigenvalues --   -0.31590  -0.31044  -0.30449  -0.29909  -0.29188
 Alpha  occ. eigenvalues --   -0.28788  -0.28328  -0.27997  -0.27492  -0.26275
 Alpha  occ. eigenvalues --   -0.25541  -0.21872  -0.19908  -0.18783  -0.17202
 Alpha  occ. eigenvalues --   -0.16877  -0.16487  -0.14946  -0.13209   0.03448
 Alpha virt. eigenvalues --    0.05031   0.05703   0.06323   0.06980   0.07292
 Alpha virt. eigenvalues --    0.07941   0.08144   0.08859   0.08973   0.09195
 Alpha virt. eigenvalues --    0.09967   0.10343   0.10413   0.11396   0.11493

  Beta  occ. eigenvalues --  -19.08422 -19.03882 -18.98183 -14.30646 -14.24262
  Beta  occ. eigenvalues --  -14.23793 -10.17295 -10.15687 -10.13202 -10.12477
  Beta  occ. eigenvalues --  -10.12319 -10.12063 -10.11877 -10.10472 -10.09816
  Beta  occ. eigenvalues --  -10.08589 -10.08305 -10.08181 -10.07470 -10.07218
  Beta  occ. eigenvalues --   -1.01358  -0.96627  -0.94504  -0.93288  -0.82522
  Beta  occ. eigenvalues --   -0.75898  -0.72045  -0.71410  -0.70258  -0.67940
  Beta  occ. eigenvalues --   -0.64318  -0.61628  -0.61399  -0.56376  -0.54288
  Beta  occ. eigenvalues --   -0.51360  -0.50490  -0.49189  -0.48655  -0.45297
  Beta  occ. eigenvalues --   -0.45192  -0.42219  -0.41681  -0.40082  -0.39041
  Beta  occ. eigenvalues --   -0.38502  -0.37040  -0.36177  -0.35658  -0.35358
  Beta  occ. eigenvalues --   -0.34700  -0.33492  -0.33280  -0.32625  -0.32181
  Beta  occ. eigenvalues --   -0.31516  -0.30996  -0.30386  -0.29834  -0.29117
  Beta  occ. eigenvalues --   -0.28719  -0.28261  -0.27919  -0.27403  -0.26226
  Beta  occ. eigenvalues --   -0.25486  -0.21842  -0.19874  -0.18527  -0.17162
  Beta  occ. eigenvalues --   -0.16726  -0.16420  -0.14838  -0.12883
  Beta virt. eigenvalues --    0.05476   0.05848   0.06333   0.06904   0.07502
  Beta virt. eigenvalues --    0.07710   0.08103   0.08266   0.08856   0.09053
  Beta virt. eigenvalues --    0.09641   0.10048   0.10532   0.10755   0.11552

 Mulliken charges and spin densities:
               1          2
     1  C   -0.060806  -0.475845
     2  C   -0.684933   0.302907
     3  C    0.320771  -0.111270
     4  C   -0.359867   0.193701
     5  C    0.089737  -0.147289
     6  C   -0.056734   0.019296
     7  O    0.025451   0.022059
     8  C    0.367337  -0.400844
     9  O   -0.354948   0.031930
    10  N   -0.127586   0.042061
    11  C   -0.322700  -0.617336
    12  C    0.554038  -0.460359
    13  C   -0.039447  -0.582524
    14  C   -0.369606   0.363412
    15  C   -0.250668   0.130717
    16  N    0.171881   0.051097
    17  N   -0.422477   0.227171
    18  C    0.063645  -0.209450
    19  C    0.987463  -1.292851
    20  O   -0.163524   0.049492
    21  H    0.029705   0.100869
    22  H   -0.073564   0.204891
    23  H    0.150293   0.015225
    24  H    0.065637   0.099221
    25  H    0.066586   0.086376
    26  H   -0.266909   0.437209
    27  H    0.360919  -0.109138
    28  H    0.306406   0.006558
    29  H   -0.099907   0.305382
    30  H    0.282518  -0.083065
    31  H    0.037867   0.106755
    32  H   -0.106048   0.254454
    33  H    0.156411   0.021979
    34  H   -0.416072   0.625627
    35  H    0.040947   0.108119
    36  H   -0.329436   0.509882
    37  H   -0.108175   0.271487
    38  H   -0.436756   0.589669
    39  H   -0.027450   0.312425
 Sum of Mulliken charges =  -1.00000   1.00000

 Dipole moment (field-independent basis, Debye):
    X=              1.2665    Y=              2.2567    Z=             -1.2909  Tot=              2.8918
 Quadrupole moment (field-independent basis, Debye-Ang):
   XX=           -219.2521   YY=           -171.8231   ZZ=           -149.5903
   XY=            -24.6272   XZ=              6.6707   YZ=              2.5915

 Summary of Natural Population Analysis:

                                       Natural Population
                Natural  -----------------------------------------------
    Atom  No    Charge         Core      Valence    Rydberg      Total
 -----------------------------------------------------------------------
      C    1   -0.28068      0.99966     2.27686    0.00416     3.28068
      C    2   -0.21141      0.99960     2.20437    0.00744     3.21141
      C    3    0.17311      0.99948     1.81312    0.01429     2.82689
      C    4   -0.16028      0.99950     2.15142    0.00936     3.16028
      C    5   -0.12124      0.99953     2.11325    0.00846     3.12124
      C    6    0.09792      0.99943     1.88944    0.01321     2.90208
      O    7   -0.22364      0.99985     3.21583    0.00796     4.22364
      C    8    0.32611      0.99962     1.65297    0.02130     2.67389
      O    9   -0.31135      0.99988     3.30614    0.00533     4.31135
      N   10   -0.31693      0.99967     2.80827    0.00898     3.81693
      C   11   -0.08975      0.99955     2.07920    0.01099     3.08975
      C   12    0.12064      0.99949     1.86418    0.01569     2.87936
      C   13   -0.29707      0.99963     2.29148    0.00596     3.29707
      C   14   -0.09331      0.99948     2.07983    0.01400     3.09331
      C   15    0.00243      0.99949     1.98594    0.01215     2.99757
      N   16   -0.10373      0.99967     2.59070    0.01337     3.60373
      N   17   -0.15152      0.99973     2.63975    0.01204     3.65152
      C   18   -0.00923      0.99957     1.99680    0.01286     3.00923
      C   19   -0.17118      0.99963     2.16315    0.00839     3.17118
      O   20   -0.37566      0.99989     3.36794    0.00783     4.37566
      H   21    0.09822      0.00000     0.40060    0.00118     0.40178
      H   22    0.09503      0.00000     0.40367    0.00130     0.40497
      H   23    0.10263      0.00000     0.39605    0.00132     0.39737
      H   24    0.10311      0.00000     0.39567    0.00123     0.39689
      H   25    0.10413      0.00000     0.39444    0.00143     0.39587
      H   26    0.10765      0.00000     0.39148    0.00087     0.39235
      H   27    0.12432      0.00000     0.37403    0.00166     0.37568
      H   28    0.18949      0.00000     0.30778    0.00273     0.31051
      H   29    0.09663      0.00000     0.40235    0.00102     0.40337
      H   30    0.11198      0.00000     0.38644    0.00158     0.38802
      H   31    0.09984      0.00000     0.39913    0.00103     0.40016
      H   32    0.10346      0.00000     0.39542    0.00112     0.39654
      H   33    0.10776      0.00000     0.39104    0.00120     0.39224
      H   34    0.11243      0.00000     0.38557    0.00200     0.38757
      H   35    0.09816      0.00000     0.40080    0.00104     0.40184
      H   36    0.10103      0.00000     0.39722    0.00175     0.39897
      H   37    0.10411      0.00000     0.39452    0.00137     0.39589
      H   38    0.10375      0.00000     0.39441    0.00184     0.39625
      H   39    0.23303      0.00000     0.26324    0.00373     0.26697
 =======================================================================
   * Total *    0.00000     19.99235    53.76450    0.24316    74.00000

 Normal termination of Gaussian 16 at Sun Dec 13 22:06:18 2020.
