 Gaussian 16, Revision A.03,

 -----------------------------------------------------------
 # opt freq B3LYP/6-31G(d) empiricaldispersion=gd3bj scf=xqc
 -----------------------------------------------------------

 ------------------------------
 CID_13416608_JID_3640_neutraal
 ------------------------------
 Symbolic Z-matrix:
 Charge =  0 Multiplicity = 1

 SCF Done:  E(RB3LYP) =  -592.916745356     A.U. after   15 cycles
 SCF Done:  E(RB3LYP) =  -592.921922456     A.U. after   13 cycles
 SCF Done:  E(RB3LYP) =  -592.922263736     A.U. after   13 cycles
 SCF Done:  E(RB3LYP) =  -592.922433666     A.U. after   12 cycles
 SCF Done:  E(RB3LYP) =  -592.922630310     A.U. after   12 cycles
 SCF Done:  E(RB3LYP) =  -592.922722739     A.U. after   12 cycles
 SCF Done:  E(RB3LYP) =  -592.922772861     A.U. after   13 cycles
 SCF Done:  E(RB3LYP) =  -592.922792081     A.U. after   12 cycles
 SCF Done:  E(RB3LYP) =  -592.922836580     A.U. after   12 cycles
 SCF Done:  E(RB3LYP) =  -592.922860526     A.U. after   12 cycles
 SCF Done:  E(RB3LYP) =  -592.922862183     A.U. after    8 cycles
 SCF Done:  E(RB3LYP) =  -592.922862705     A.U. after    9 cycles
 SCF Done:  E(RB3LYP) =  -592.922862838     A.U. after    8 cycles
 SCF Done:  E(RB3LYP) =  -592.922862851     A.U. after    7 cycles
 Optimization completed.
    -- Stationary point found.
 Normal termination of Gaussian 16 at Wed Dec  9 23:52:20 2020.

 --------------------------------------------------------------------
 #N Geom=AllCheck Guess=TCheck SCRF=Check GenChk RB3LYP/6-31G(d) Freq
 --------------------------------------------------------------------

 Structure from the checkpoint file:  "JID_3640.chk"
 ------------------------------
 CID_13416608_JID_3640_neutraal
 ------------------------------
 Charge =  0 Multiplicity = 1

 SCF Done:  E(RB3LYP) =  -592.922862851     A.U. after    1 cycles

  Exact polarizability: 137.410   1.852 108.699   2.591  -2.294  75.373
 Approx polarizability: 190.170   0.595 186.264   3.582  -3.436 117.749

                      1                      2                      3
                      A                      A                      A
 Frequencies --     29.5407                53.7168                96.0707
 Red. masses --      4.1450                 4.2588                 4.6621
 Frc consts  --      0.0021                 0.0072                 0.0254
 IR Inten    --      2.7430                 2.4811                 0.0722

                      4                      5                      6
                      A                      A                      A
 Frequencies --    154.6146               204.9601               250.4684
 Red. masses --      3.7149                 2.5164                 4.6551
 Frc consts  --      0.0523                 0.0623                 0.1721
 IR Inten    --      0.6787                 2.7040                 3.5362

                      7                      8                      9
                      A                      A                      A
 Frequencies --    299.1529               314.0328               369.6162
 Red. masses --      5.8090                 3.8064                 4.8607
 Frc consts  --      0.3063                 0.2212                 0.3912
 IR Inten    --     10.5919                 2.0749                 7.1746

                     10                     11                     12
                      A                      A                      A
 Frequencies --    416.5861               448.7990               493.3268
 Red. masses --      3.5231                 2.6250                 1.5363
 Frc consts  --      0.3602                 0.3115                 0.2203
 IR Inten    --      3.8011                 3.8030                49.4322

                     13                     14                     15
                      A                      A                      A
 Frequencies --    510.9310               535.6490               590.1171
 Red. masses --      2.6516                 2.1834                 3.6068
 Frc consts  --      0.4078                 0.3691                 0.7400
 IR Inten    --     29.9099                36.6775                23.6887

                     16                     17                     18
                      A                      A                      A
 Frequencies --    619.4540               636.8085               703.1742
 Red. masses --      2.7798                 6.5133                 4.3896
 Frc consts  --      0.6285                 1.5562                 1.2788
 IR Inten    --     17.2199                 0.8576                 4.9928

                     19                     20                     21
                      A                      A                      A
 Frequencies --    729.5674               771.4653               796.1119
 Red. masses --      5.6056                 1.7505                 2.2715
 Frc consts  --      1.7579                 0.6138                 0.8482
 IR Inten    --      3.8917                13.6014                15.3425

                     22                     23                     24
                      A                      A                      A
 Frequencies --    836.4084               855.3076               914.4070
 Red. masses --      2.0100                 1.8697                 1.7092
 Frc consts  --      0.8285                 0.8059                 0.8420
 IR Inten    --      6.8855                 6.1793                 1.5467

                     25                     26                     27
                      A                      A                      A
 Frequencies --    927.1098               943.3390               977.7777
 Red. masses --      1.7517                 3.7433                 1.4277
 Frc consts  --      0.8871                 1.9626                 0.8042
 IR Inten    --      3.0737                 7.3642                 0.3840

                     28                     29                     30
                      A                      A                      A
 Frequencies --   1007.6386              1013.5232              1016.7493
 Red. masses --      1.9277                 1.2964                 7.0768
 Frc consts  --      1.1532                 0.7846                 4.3104
 IR Inten    --      4.1935                 0.2602                 6.3814

                     31                     32                     33
                      A                      A                      A
 Frequencies --   1034.5050              1055.1930              1076.5066
 Red. masses --      2.7986                 1.8532                 2.1084
 Frc consts  --      1.7647                 1.2157                 1.4396
 IR Inten    --      7.6109                14.5511                 8.7320

                     34                     35                     36
                      A                      A                      A
 Frequencies --   1091.8535              1119.9687              1175.7241
 Red. masses --      2.3244                 1.5668                 2.3907
 Frc consts  --      1.6326                 1.1579                 1.9471
 IR Inten    --     43.9004                 0.3814                44.5962

                     37                     38                     39
                      A                      A                      A
 Frequencies --   1182.2327              1199.0065              1217.0138
 Red. masses --      1.1683                 1.6298                 1.9888
 Frc consts  --      0.9621                 1.3805                 1.7355
 IR Inten    --      2.6193                20.8086                23.5856

                     40                     41                     42
                      A                      A                      A
 Frequencies --   1267.8366              1296.7378              1318.8792
 Red. masses --      2.5963                 1.6314                 1.4569
 Frc consts  --      2.4589                 1.6163                 1.4931
 IR Inten    --      6.8706                 5.3853                 7.5761

                     43                     44                     45
                      A                      A                      A
 Frequencies --   1323.6325              1330.3843              1354.3347
 Red. masses --      5.3532                 1.5880                 1.4711
 Frc consts  --      5.5259                 1.6559                 1.5898
 IR Inten    --      1.1951                 4.1271                24.6362

                     46                     47                     48
                      A                      A                      A
 Frequencies --   1368.9098              1397.2204              1478.7109
 Red. masses --      1.3025                 1.4280                 1.1351
 Frc consts  --      1.4380                 1.6425                 1.4624
 IR Inten    --      3.1538                75.9668                12.1634

                     49                     50                     51
                      A                      A                      A
 Frequencies --   1480.9836              1502.8395              1515.1708
 Red. masses --      2.0337                 1.1106                 2.2080
 Frc consts  --      2.6281                 1.4779                 2.9866
 IR Inten    --     26.5849                 8.6121                21.5547

                     52                     53                     54
                      A                      A                      A
 Frequencies --   1532.4834              1632.8583              1649.4010
 Red. masses --      1.0962                 5.9405                 5.5312
 Frc consts  --      1.5169                 9.3319                 8.8659
 IR Inten    --      2.2958                12.7233                57.9476

                     55                     56                     57
                      A                      A                      A
 Frequencies --   1841.3365              3056.4654              3067.7758
 Red. masses --     12.3028                 1.0667                 1.0634
 Frc consts  --     24.5764                 5.8710                 5.8963
 IR Inten    --    172.9688                 2.2178                34.2509

                     58                     59                     60
                      A                      A                      A
 Frequencies --   3092.9774              3121.5372              3142.1397
 Red. masses --      1.0610                 1.0998                 1.0992
 Frc consts  --      5.9805                 6.3140                 6.3938
 IR Inten    --     12.0589                21.6512                17.2517

                     61                     62                     63
                      A                      A                      A
 Frequencies --   3146.2733              3173.4745              3195.3174
 Red. masses --      1.1070                 1.0892                 1.0890
 Frc consts  --      6.4561                 6.4629                 6.5512
 IR Inten    --     17.0502                22.3422                13.2455

                     64                     65                     66
                      A                      A                      A
 Frequencies --   3217.0883              3240.2694              3650.0554
 Red. masses --      1.0959                 1.0926                 1.0652
 Frc consts  --      6.6826                 6.7589                 8.3615
 IR Inten    --     21.7530                 2.3639                32.8331

 - Thermochemistry -
 -------------------
 Temperature   298.150 Kelvin.  Pressure   1.00000 Atm.
 Atom     1 has atomic number  6 and mass  12.00000

 Molecular mass:   177.07898 amu.
 Principal axes and moments of inertia in atomic units:
                           1         2         3
     Eigenvalues --  1177.158893011.143313230.63285
           X            0.99975   0.01729   0.01411
           Y           -0.01718   0.99982  -0.00814
           Z           -0.01425   0.00789   0.99987
 This molecule is an asymmetric top.
 Rotational symmetry number  1.
 Warning -- assumption of classical behavior for rotation
           may cause significant error
 Rotational temperatures (Kelvin)      0.07358     0.02876     0.02681
 Rotational constants (GHZ):           1.53313     0.59935     0.55863
 Zero-point vibrational energy     514774.2 (Joules/Mol)
                                  123.03398 (Kcal/Mol)
 Warning -- explicit consideration of  16 degrees of freedom as
           vibrations may cause significant error
 Vibrational temperatures:     42.50    77.29   138.22   222.46   294.89
          (Kelvin)            360.37   430.41   451.82   531.80   599.37
                              645.72   709.79   735.12   770.68   849.05
                              891.26   916.23  1011.71  1049.68  1109.97
                             1145.43  1203.41  1230.60  1315.63  1333.90
                             1357.25  1406.80  1449.77  1458.23  1462.88
                             1488.42  1518.19  1548.85  1570.93  1611.39
                             1691.60  1700.97  1725.10  1751.01  1824.13
                             1865.72  1897.57  1904.41  1914.13  1948.59
                             1969.56  2010.29  2127.54  2130.81  2162.25
                             2179.99  2204.90  2349.32  2373.12  2649.27
                             4397.57  4413.85  4450.10  4491.20  4520.84
                             4526.79  4565.92  4597.35  4628.67  4662.02
                             5251.62

 Zero-point correction=                           0.196067 (Hartree/Particle)
 Thermal correction to Energy=                    0.206965
 Thermal correction to Enthalpy=                  0.207909
 Thermal correction to Gibbs Free Energy=         0.158338
 Sum of electronic and zero-point Energies=           -592.726796
 Sum of electronic and thermal Energies=              -592.715898
 Sum of electronic and thermal Enthalpies=            -592.714954
 Sum of electronic and thermal Free Energies=         -592.764525

                     E (Thermal)             CV                S
                      KCal/Mol        Cal/Mol-Kelvin    Cal/Mol-Kelvin
 Total                  129.872             42.580            104.331
 Electronic               0.000              0.000              0.000
 Translational            0.889              2.981             41.421
 Rotational               0.889              2.981             30.816
 Vibrational            128.095             36.618             32.093
 Vibration     1          0.593              1.984              5.860
 Vibration     2          0.596              1.976              4.676
 Vibration     3          0.603              1.952              3.533
 Vibration     4          0.620              1.898              2.615
 Vibration     5          0.640              1.833              2.088
 Vibration     6          0.663              1.762              1.727
 Vibration     7          0.692              1.675              1.422
 Vibration     8          0.702              1.647              1.341
 Vibration     9          0.742              1.535              1.081
 Vibration    10          0.780              1.434              0.904
 Vibration    11          0.808              1.364              0.799
 Vibration    12          0.849              1.265              0.675
 Vibration    13          0.866              1.226              0.631
 Vibration    14          0.891              1.171              0.575
 Vibration    15          0.947              1.053              0.467
 Vibration    16          0.979              0.991              0.417

 Optimization completed.
    -- Stationary point found.
 Normal termination of Gaussian 16 at Wed Dec  9 23:58:20 2020.

 ----------------------------------------------------------------------
 # B3LYP/6-311++G(d,p) empiricaldispersion=gd3bj scf=xqc pop=npa geom=c
 heck
 ----------------------------------------------------------------------

 --------------------------------------
 CID_13416608_JID_3640_Energie_neutraal
 --------------------------------------
 Structure from the checkpoint file:  "JID_3640.chk"
 Charge =  0 Multiplicity = 1

 SCF Done:  E(RB3LYP) =  -593.092736598     A.U. after   14 cycles
 Normal termination of Gaussian 16 at Thu Dec 10 00:00:42 2020.

 ----------------------------------------------------------------------
 # B3LYP/6-311++G(d,p) empiricaldispersion=gd3bj scf=xqc pop=npa geom=c
 heck
 ----------------------------------------------------------------------

 ------------------------------------
 CID_13416608_JID_3640_Energie_kation
 ------------------------------------
 Structure from the checkpoint file:  "JID_3640.chk"
 Charge =  1 Multiplicity = 2

 SCF Done:  E(UB3LYP) =  -592.773340218     A.U. after   23 cycles
 Normal termination of Gaussian 16 at Thu Dec 10 00:06:04 2020.
 Gaussian 16:  ES64L-G16RevA.03 25-Dec-2016

 ----------------------------------------------------------------------
 # B3LYP/6-311++G(d,p) empiricaldispersion=gd3bj scf=xqc pop=npa geom=c
 heck
 ----------------------------------------------------------------------

 -----------------------------------
 CID_13416608_JID_3640_Energie_anion
 -----------------------------------
 Structure from the checkpoint file:  "JID_3640.chk"
 Charge = -1 Multiplicity = 2

                         Standard orientation:
 ---------------------------------------------------------------------
 Center     Atomic      Atomic             Coordinates (Angstroms)
 Number     Number       Type             X           Y           Z
 ---------------------------------------------------------------------
      1          6           0       -2.714592   -0.781944   -0.921043
      2          6           0       -2.354880   -1.145132    0.532789
      3          6           0       -1.499828    0.030855    0.939964
      4          8           0       -1.475233    0.624113    1.996602
      5          6           0       -0.723446    0.548619   -0.308122
      6          6           0       -1.416712   -0.160565   -1.492338
      7          6           0        0.745339    0.178292   -0.172591
      8          6           0        1.754774    1.138531   -0.247732
      9          6           0        3.077536    0.722890   -0.106131
     10          6           0        3.342604   -0.627781    0.112710
     11          6           0        2.262435   -1.508796    0.176015
     12          7           0        0.989667   -1.126075    0.035763
     13          8           0       -0.919132    1.953306   -0.376418
     14          1           0       -3.523108   -0.041788   -0.925079
     15          1           0       -3.050866   -1.645448   -1.501184
     16          1           0       -3.198675   -1.292536    1.210574
     17          1           0       -1.714705   -2.037509    0.550342
     18          1           0       -0.764283   -0.952050   -1.869680
     19          1           0       -1.601247    0.552763   -2.299256
     20          1           0        1.492835    2.174813   -0.423324
     21          1           0        3.888596    1.443461   -0.165915
     22          1           0        4.357448   -0.993703    0.231922
     23          1           0        2.425409   -2.571332    0.347317
     24          1           0       -0.923530    2.256693    0.551339
 ---------------------------------------------------------------------

 SCF Done:  E(UB3LYP) =  -593.084210061     A.U. after   33 cycles
 SCF Done:  E(UB3LYP) =  -593.084210098     a.u. after    2 cycles

 The electronic state is 2-A.
 Alpha  occ. eigenvalues --  -19.00692 -18.98002 -14.17904 -10.11109 -10.10719
 Alpha  occ. eigenvalues --  -10.08606 -10.07661 -10.06152 -10.05790 -10.05693
 Alpha  occ. eigenvalues --  -10.05142 -10.05060 -10.04780  -0.92889  -0.89894
 Alpha  occ. eigenvalues --   -0.81881  -0.71148  -0.67828  -0.64778  -0.59197
 Alpha  occ. eigenvalues --   -0.56147  -0.50814  -0.49728  -0.46126  -0.43164
 Alpha  occ. eigenvalues --   -0.41218  -0.37173  -0.35939  -0.34790  -0.34085
 Alpha  occ. eigenvalues --   -0.32832  -0.31673  -0.30350  -0.28796  -0.27586
 Alpha  occ. eigenvalues --   -0.26962  -0.25715  -0.25114  -0.23945  -0.23653
 Alpha  occ. eigenvalues --   -0.22165  -0.21671  -0.17590  -0.16700  -0.14438
 Alpha  occ. eigenvalues --   -0.13449  -0.11367   0.05171
 Alpha virt. eigenvalues --    0.07156   0.07858   0.08683   0.08771   0.09967
 Alpha virt. eigenvalues --    0.10181   0.10330   0.10872   0.11852   0.12282
 Alpha virt. eigenvalues --    0.13152   0.13694   0.14570   0.15545   0.16687

  Beta  occ. eigenvalues --  -19.00662 -18.97767 -14.17808 -10.10826 -10.10734
  Beta  occ. eigenvalues --  -10.08608 -10.07518 -10.06010 -10.05827 -10.05661
  Beta  occ. eigenvalues --  -10.05168 -10.05046 -10.04680  -0.92619  -0.89617
  Beta  occ. eigenvalues --   -0.81694  -0.70996  -0.67589  -0.64602  -0.59121
  Beta  occ. eigenvalues --   -0.55908  -0.50466  -0.49609  -0.46007  -0.42978
  Beta  occ. eigenvalues --   -0.41057  -0.37002  -0.35797  -0.34585  -0.33880
  Beta  occ. eigenvalues --   -0.32678  -0.31579  -0.29951  -0.28607  -0.27369
  Beta  occ. eigenvalues --   -0.26636  -0.25548  -0.24881  -0.23790  -0.23294
  Beta  occ. eigenvalues --   -0.22068  -0.21090  -0.17505  -0.15970  -0.14028
  Beta  occ. eigenvalues --   -0.13294  -0.11138
  Beta virt. eigenvalues --    0.07577   0.08309   0.09080   0.09118   0.09797
  Beta virt. eigenvalues --    0.10236   0.10324   0.10507   0.11852   0.12113
  Beta virt. eigenvalues --    0.12509   0.13222   0.13754   0.14814   0.15493

 Mulliken charges and spin densities:
               1          2
     1  C    0.097555  -0.406846
     2  C   -0.126556  -0.264993
     3  C   -0.109394   0.249375
     4  O   -0.365477   0.076765
     5  C    1.045238  -0.491127
     6  C   -0.102569  -0.340348
     7  C   -0.431312  -0.006573
     8  C   -0.619199   0.631919
     9  C   -0.042519  -0.318867
    10  C    0.619864  -0.791085
    11  C   -0.153797   0.121520
    12  N    0.009591   0.137409
    13  O   -0.229466  -0.009897
    14  H    0.196334  -0.075967
    15  H   -0.473202   0.644638
    16  H    0.123080   0.026685
    17  H    0.018000   0.161872
    18  H    0.006691   0.164901
    19  H    0.018027   0.143626
    20  H    0.047592   0.122708
    21  H   -0.126547   0.276837
    22  H   -0.384971   0.534625
    23  H   -0.232169   0.379561
    24  H    0.215208   0.033261
 Sum of Mulliken charges =  -1.00000   1.00000

 Dipole moment (field-independent basis, Debye):
    X=             -1.2091    Y=              2.3288    Z=             -0.5823  Tot=              2.6878
 Quadrupole moment (field-independent basis, Debye-Ang):
   XX=           -120.3034   YY=           -104.0213   ZZ=           -103.6092
   XY=              0.8137   XZ=             -1.5816   YZ=             -2.5846

 Summary of Natural Population Analysis:

                                       Natural Population
                Natural  -----------------------------------------------
    Atom  No    Charge         Core      Valence    Rydberg      Total
 -----------------------------------------------------------------------
      C    1   -0.18721      0.99964     2.17954    0.00803     3.18721
      C    2   -0.24460      0.99958     2.23614    0.00888     3.24460
      C    3    0.34095      0.99962     1.63588    0.02355     2.65905
      O    4   -0.28229      0.99987     3.27492    0.00751     4.28229
      C    5    0.08166      0.99942     1.90190    0.01702     2.91834
      C    6   -0.19260      0.99960     2.18288    0.01011     3.19260
      C    7    0.10512      0.99948     1.87902    0.01639     2.89488
      C    8   -0.11092      0.99950     2.10272    0.00871     3.11092
      C    9   -0.05878      0.99957     2.04946    0.00975     3.05878
      C   10   -0.14138      0.99956     2.13217    0.00965     3.14138
      C   11    0.05123      0.99958     1.93422    0.01497     2.94877
      N   12   -0.23629      0.99967     2.72520    0.01141     3.73629
      O   13   -0.37365      0.99989     3.36722    0.00654     4.37365
      H   14    0.09161      0.00000     0.40724    0.00115     0.40839
      H   15    0.10051      0.00000     0.39713    0.00236     0.39949
      H   16    0.10256      0.00000     0.39642    0.00103     0.39744
      H   17    0.12125      0.00000     0.37614    0.00261     0.37875
      H   18    0.10781      0.00000     0.39073    0.00146     0.39219
      H   19    0.10283      0.00000     0.39615    0.00102     0.39717
      H   20    0.10774      0.00000     0.39111    0.00115     0.39226
      H   21    0.09469      0.00000     0.40447    0.00084     0.40531
      H   22    0.09981      0.00000     0.39905    0.00114     0.40019
      H   23    0.08500      0.00000     0.41394    0.00107     0.41500
      H   24    0.23498      0.00000     0.26198    0.00305     0.26502
 =======================================================================
   * Total *   -0.00000     12.99499    33.83561    0.16940    47.00000

 Normal termination of Gaussian 16 at Thu Dec 10 00:20:29 2020.
