 Gaussian 16, Revision A.03,

 -----------------------------------------------------------
 # opt freq B3LYP/6-31G(d) empiricaldispersion=gd3bj scf=xqc
 -----------------------------------------------------------

 --------------------------------
 CID_147106026_JID_10025_neutraal
 --------------------------------
 Symbolic Z-matrix:
 Charge =  0 Multiplicity = 1

 SCF Done:  E(RB3LYP) =  -912.442829684     A.U. after   17 cycles
 SCF Done:  E(RB3LYP) =  -912.452954939     A.U. after   15 cycles
 SCF Done:  E(RB3LYP) =  -912.458658088     A.U. after   16 cycles
 SCF Done:  E(RB3LYP) =  -912.458208859     A.U. after   16 cycles
 SCF Done:  E(RB3LYP) =  -912.460708419     A.U. after   16 cycles
 SCF Done:  E(RB3LYP) =  -912.463124258     A.U. after   14 cycles
 SCF Done:  E(RB3LYP) =  -912.463748646     A.U. after   14 cycles
 SCF Done:  E(RB3LYP) =  -912.463985569     A.U. after   14 cycles
 SCF Done:  E(RB3LYP) =  -912.464058984     A.U. after   13 cycles
 SCF Done:  E(RB3LYP) =  -912.464070541     A.U. after   13 cycles
 SCF Done:  E(RB3LYP) =  -912.464079736     A.U. after   11 cycles
 SCF Done:  E(RB3LYP) =  -912.464079697     A.U. after   11 cycles
 SCF Done:  E(RB3LYP) =  -912.464079757     A.U. after   10 cycles
 SCF Done:  E(RB3LYP) =  -912.464079892     A.U. after   10 cycles
 SCF Done:  E(RB3LYP) =  -912.464079919     A.U. after    8 cycles
 Optimization completed.
    -- Stationary point found.
 Normal termination of Gaussian 16 at Sat Dec 12 14:57:40 2020.

 --------------------------------------------------------------------
 #N Geom=AllCheck Guess=TCheck SCRF=Check GenChk RB3LYP/6-31G(d) Freq
 --------------------------------------------------------------------

 Structure from the checkpoint file:  "JID_10025.chk"
 --------------------------------
 CID_147106026_JID_10025_neutraal
 --------------------------------
 Charge =  0 Multiplicity = 1

 SCF Done:  E(RB3LYP) =  -912.464079919     A.U. after    1 cycles

  Exact polarizability: 383.873  -2.544 165.651 -17.063  -9.994 105.959
 Approx polarizability: 506.526  -5.136 317.018 -40.458 -26.142 163.934

                      1                      2                      3
                      A                      A                      A
 Frequencies --     16.4702                26.0173                46.0806
 Red. masses --      4.6130                 5.4606                 6.4092
 Frc consts  --      0.0007                 0.0022                 0.0080
 IR Inten    --      0.0679                 0.1820                 0.6378

                      4                      5                      6
                      A                      A                      A
 Frequencies --     59.6163                63.3490                92.1667
 Red. masses --      4.1387                 7.0085                 3.2288
 Frc consts  --      0.0087                 0.0166                 0.0162
 IR Inten    --      0.1633                 0.0677                 1.1860

                      7                      8                      9
                      A                      A                      A
 Frequencies --    123.1867               156.3936               183.4211
 Red. masses --      5.8168                 9.0447                 4.1726
 Frc consts  --      0.0520                 0.1303                 0.0827
 IR Inten    --      2.5396                 2.1473                 0.5473

                     10                     11                     12
                      A                      A                      A
 Frequencies --    193.1259               222.1248               245.6013
 Red. masses --      3.5922                 6.3173                 1.2529
 Frc consts  --      0.0789                 0.1836                 0.0445
 IR Inten    --      4.1287                 2.3430                 1.6734

                     13                     14                     15
                      A                      A                      A
 Frequencies --    250.2133               270.7312               282.2700
 Red. masses --      1.2619                 1.6577                 2.9444
 Frc consts  --      0.0465                 0.0716                 0.1382
 IR Inten    --      1.4283                 1.6292                 2.1145

                     16                     17                     18
                      A                      A                      A
 Frequencies --    308.6338               330.8267               356.2482
 Red. masses --      5.8014                 3.5274                 4.4947
 Frc consts  --      0.3256                 0.2275                 0.3361
 IR Inten    --      2.4541                 2.3681                 8.0331

                     19                     20                     21
                      A                      A                      A
 Frequencies --    375.1947               415.8646               425.5053
 Red. masses --      3.9268                 2.5731                 3.1345
 Frc consts  --      0.3257                 0.2622                 0.3344
 IR Inten    --      0.6897                 9.3624                 0.0796

                     22                     23                     24
                      A                      A                      A
 Frequencies --    434.9480               474.6916               513.2762
 Red. masses --      3.7115                 2.8819                 6.3511
 Frc consts  --      0.4137                 0.3826                 0.9858
 IR Inten    --      4.4238                 6.2124                22.2383

                     25                     26                     27
                      A                      A                      A
 Frequencies --    525.3750               553.6538               580.8836
 Red. masses --      3.3701                 5.4835                 5.6015
 Frc consts  --      0.5481                 0.9903                 1.1136
 IR Inten    --      3.9025                15.1524                 2.7327

                     28                     29                     30
                      A                      A                      A
 Frequencies --    606.1421               646.8461               652.2654
 Red. masses --      4.8040                 7.1023                 4.3489
 Frc consts  --      1.0399                 1.7509                 1.0901
 IR Inten    --      3.5307                 0.9689                 3.5820

                     31                     32                     33
                      A                      A                      A
 Frequencies --    697.0493               704.3882               745.0748
 Red. masses --      5.5662                 3.7548                 3.0341
 Frc consts  --      1.5934                 1.0976                 0.9924
 IR Inten    --      1.3274                26.3214                10.5493

                     34                     35                     36
                      A                      A                      A
 Frequencies --    767.8680               792.6975               817.6141
 Red. masses --      5.3363                 1.7634                 3.8603
 Frc consts  --      1.8538                 0.6529                 1.5204
 IR Inten    --      8.2641                13.6909                13.5124

                     37                     38                     39
                      A                      A                      A
 Frequencies --    849.8501               858.2996               866.3142
 Red. masses --      1.7036                 1.2504                 5.9902
 Frc consts  --      0.7249                 0.5427                 2.6488
 IR Inten    --     27.1180                 1.0588                35.3302

                     40                     41                     42
                      A                      A                      A
 Frequencies --    893.1500               896.6329               939.3958
 Red. masses --      2.6736                 2.0520                 4.3043
 Frc consts  --      1.2566                 0.9720                 2.2380
 IR Inten    --     24.2675                21.5285                13.4048

                     43                     44                     45
                      A                      A                      A
 Frequencies --    965.1875               981.2178               992.4447
 Red. masses --      2.6047                 2.8760                 1.3261
 Frc consts  --      1.4296                 1.6314                 0.7696
 IR Inten    --     16.4839                 6.9100                 0.0286

                     46                     47                     48
                      A                      A                      A
 Frequencies --   1001.4070              1008.9672              1016.7345
 Red. masses --      1.3464                 1.3103                 2.3110
 Frc consts  --      0.7955                 0.7859                 1.4075
 IR Inten    --      0.8804                 0.0126                 5.6756

                     49                     50                     51
                      A                      A                      A
 Frequencies --   1030.7921              1060.6572              1081.3512
 Red. masses --      2.6279                 2.4327                 1.5599
 Frc consts  --      1.6451                 1.6124                 1.0747
 IR Inten    --      3.7408                59.3538                10.0826

                     52                     53                     54
                      A                      A                      A
 Frequencies --   1120.2478              1129.3756              1130.5017
 Red. masses --      1.5304                 1.2536                 1.2475
 Frc consts  --      1.1316                 0.9421                 0.9393
 IR Inten    --     27.8089                 8.4690                10.0368

                     55                     56                     57
                      A                      A                      A
 Frequencies --   1134.3485              1170.2838              1189.3379
 Red. masses --      2.9238                 2.6969                 1.2400
 Frc consts  --      2.2166                 2.1762                 1.0334
 IR Inten    --     73.1615                10.8239                12.6800

                     58                     59                     60
                      A                      A                      A
 Frequencies --   1194.7492              1198.9773              1213.0372
 Red. masses --      1.4840                 1.5018                 1.4989
 Frc consts  --      1.2481                 1.2720                 1.2995
 IR Inten    --      3.3567                 3.1951                16.8761

                     61                     62                     63
                      A                      A                      A
 Frequencies --   1249.8332              1267.5654              1313.5023
 Red. masses --      2.5106                 2.0509                 2.2651
 Frc consts  --      2.3107                 1.9415                 2.3025
 IR Inten    --      5.8454                 6.7482                18.9355

                     64                     65                     66
                      A                      A                      A
 Frequencies --   1322.9926              1327.4166              1346.1294
 Red. masses --      1.3222                 1.6910                 1.6353
 Frc consts  --      1.3635                 1.7555                 1.7460
 IR Inten    --      0.4831                 8.3320                 8.0676

                     67                     68                     69
                      A                      A                      A
 Frequencies --   1388.8207              1391.6148              1395.2428
 Red. masses --      9.9577                 2.1874                 4.6581
 Frc consts  --     11.3163                 2.4958                 5.3427
 IR Inten    --     27.6292               228.2665               461.8322

                     70                     71                     72
                      A                      A                      A
 Frequencies --   1411.6956              1453.1213              1456.3706
 Red. masses --      1.3522                 2.1728                 2.8893
 Frc consts  --      1.5877                 2.7032                 3.6107
 IR Inten    --     13.8666                 0.7187                11.1178

                     73                     74                     75
                      A                      A                      A
 Frequencies --   1467.8547              1475.3093              1499.1942
 Red. masses --      1.1613                 1.1413                 1.1658
 Frc consts  --      1.4742                 1.4636                 1.5438
 IR Inten    --      3.7851                19.2968                 4.4685

                     76                     77                     78
                      A                      A                      A
 Frequencies --   1506.8065              1516.7830              1521.4653
 Red. masses --      1.0492                 3.0547                 1.0797
 Frc consts  --      1.4036                 4.1406                 1.4725
 IR Inten    --      8.2564               107.0444                13.5938

                     79                     80                     81
                      A                      A                      A
 Frequencies --   1535.2482              1541.0402              1550.1007
 Red. masses --      1.0605                 3.8385                 1.0551
 Frc consts  --      1.4727                 5.3708                 1.4937
 IR Inten    --      3.9750                37.9852                 6.8183

                     82                     83                     84
                      A                      A                      A
 Frequencies --   1617.0912              1644.2151              1655.7957
 Red. masses --     10.4994                 7.4766                 6.2666
 Frc consts  --     16.1764                11.9089                10.1226
 IR Inten    --    111.7205                88.8041                25.7778

                     85                     86                     87
                      A                      A                      A
 Frequencies --   1669.7608              1711.3280              2965.3005
 Red. masses --      9.3298                 6.4686                 1.0579
 Frc consts  --     15.3261                11.1617                 5.4808
 IR Inten    --     86.0563                15.7533                78.8209

                     88                     89                     90
                      A                      A                      A
 Frequencies --   2983.7419              2999.9446              3056.4729
 Red. masses --      1.0577                 1.0719                 1.0849
 Frc consts  --      5.5482                 5.6835                 5.9713
 IR Inten    --     56.9651                12.8501                36.9063

                     91                     92                     93
                      A                      A                      A
 Frequencies --   3073.6015              3078.0361              3087.2455
 Red. masses --      1.0739                 1.0889                 1.0769
 Frc consts  --      5.9771                 6.0786                 6.0472
 IR Inten    --     58.8148                 5.3979                30.3832

                     94                     95                     96
                      A                      A                      A
 Frequencies --   3116.9251              3132.8771              3182.3220
 Red. masses --      1.1036                 1.1018                 1.0853
 Frc consts  --      6.3173                 6.3716                 6.4755
 IR Inten    --     30.2954                56.9531                 4.3796

                     97                     98                     99
                      A                      A                      A
 Frequencies --   3202.7343              3213.9213              3223.4891
 Red. masses --      1.0968                 1.0898                 1.0905
 Frc consts  --      6.6288                 6.6322                 6.6761
 IR Inten    --     20.8056                 0.3127                 1.9422

                    100                    101                    102
                      A                      A                      A
 Frequencies --   3240.1446              3254.4393              3257.5080
 Red. masses --      1.0887                 1.0938                 1.0930
 Frc consts  --      6.7339                 6.8256                 6.8333
 IR Inten    --      0.8432                 0.1909                 0.3825

 - Thermochemistry -
 -------------------
 Temperature   298.150 Kelvin.  Pressure   1.00000 Atm.
 Atom     1 has atomic number  6 and mass  12.00000

 Molecular mass:   272.12733 amu.
 Principal axes and moments of inertia in atomic units:
                           1         2         3
     Eigenvalues --  1392.22253********************
           X            0.99999   0.00054   0.00539
           Y           -0.00045   0.99985  -0.01705
           Z           -0.00540   0.01704   0.99984
 This molecule is an asymmetric top.
 Rotational symmetry number  1.
 Warning -- assumption of classical behavior for rotation
           may cause significant error
 Rotational temperatures (Kelvin)      0.06221     0.00499     0.00488
 Rotational constants (GHZ):           1.29630     0.10387     0.10171
 Zero-point vibrational energy     760729.7 (Joules/Mol)
                                  181.81877 (Kcal/Mol)
 Warning -- explicit consideration of  28 degrees of freedom as
           vibrations may cause significant error
 Vibrational temperatures:     23.70    37.43    66.30    85.77    91.15
          (Kelvin)            132.61   177.24   225.02   263.90   277.87
                              319.59   353.37   360.00   389.52   406.12
                              444.06   475.99   512.56   539.82   598.34
                              612.21   625.79   682.98   738.49   755.90
                              796.58   835.76   872.10   930.67   938.46
                             1002.90  1013.46  1072.00  1104.79  1140.51
                             1176.36  1222.74  1234.90  1246.43  1285.04
                             1290.05  1351.58  1388.69  1411.75  1427.91
                             1440.80  1451.68  1462.85  1483.08  1526.05
                             1555.82  1611.79  1624.92  1626.54  1632.07
                             1683.78  1711.19  1718.98  1725.06  1745.29
                             1798.23  1823.74  1889.84  1903.49  1909.86
                             1936.78  1998.20  2002.22  2007.44  2031.12
                             2090.72  2095.39  2111.92  2122.64  2157.01
                             2167.96  2182.31  2189.05  2208.88  2217.21
                             2230.25  2326.63  2365.66  2382.32  2402.41
                             2462.22  4266.41  4292.94  4316.25  4397.58
                             4422.23  4428.61  4441.86  4484.56  4507.51
                             4578.65  4608.02  4624.12  4637.88  4661.85
                             4682.41  4686.83

 Zero-point correction=                           0.289747 (Hartree/Particle)
 Thermal correction to Energy=                    0.307825
 Thermal correction to Enthalpy=                  0.308769
 Thermal correction to Gibbs Free Energy=         0.241313
 Sum of electronic and zero-point Energies=           -912.174333
 Sum of electronic and thermal Energies=              -912.156255
 Sum of electronic and thermal Enthalpies=            -912.155311
 Sum of electronic and thermal Free Energies=         -912.222767

                     E (Thermal)             CV                S
                      KCal/Mol        Cal/Mol-Kelvin    Cal/Mol-Kelvin
 Total                  193.163             68.737            141.974
 Electronic               0.000              0.000              0.000
 Translational            0.889              2.981             42.702
 Rotational               0.889              2.981             34.417
 Vibrational            191.386             62.775             64.855
 Vibration     1          0.593              1.986              7.020
 Vibration     2          0.593              1.985              6.112
 Vibration     3          0.595              1.979              4.979
 Vibration     4          0.597              1.974              4.470
 Vibration     5          0.597              1.972              4.350
 Vibration     6          0.602              1.955              3.614
 Vibration     7          0.610              1.930              3.050
 Vibration     8          0.620              1.896              2.593
 Vibration     9          0.631              1.862              2.293
 Vibration    10          0.635              1.849              2.198
 Vibration    11          0.648              1.807              1.942
 Vibration    12          0.660              1.770              1.762
 Vibration    13          0.663              1.762              1.729
 Vibration    14          0.674              1.727              1.592
 Vibration    15          0.681              1.706              1.520
 Vibration    16          0.698              1.657              1.370
 Vibration    17          0.713              1.614              1.256
 Vibration    18          0.732              1.562              1.138
 Vibration    19          0.746              1.523              1.058
 Vibration    20          0.779              1.436              0.906
 Vibration    21          0.787              1.415              0.873
 Vibration    22          0.796              1.394              0.843
 Vibration    23          0.831              1.306              0.725
 Vibration    24          0.868              1.221              0.626
 Vibration    25          0.880              1.194              0.598
 Vibration    26          0.909              1.132              0.537
 Vibration    27          0.938              1.073              0.484
 Vibration    28          0.965              1.019              0.439

 Optimization completed.
    -- Stationary point found.
 Normal termination of Gaussian 16 at Sat Dec 12 15:11:59 2020.

 ----------------------------------------------------------------------
 # B3LYP/6-311++G(d,p) empiricaldispersion=gd3bj scf=xqc pop=npa geom=c
 heck
 ----------------------------------------------------------------------

 ----------------------------------------
 CID_147106026_JID_10025_Energie_neutraal
 ----------------------------------------
 Structure from the checkpoint file:  "JID_10025.chk"
 Charge =  0 Multiplicity = 1

 SCF Done:  E(RB3LYP) =  -912.711138861     A.U. after   20 cycles
 Normal termination of Gaussian 16 at Sat Dec 12 15:19:39 2020.

 ----------------------------------------------------------------------
 # B3LYP/6-311++G(d,p) empiricaldispersion=gd3bj scf=xqc pop=npa geom=c
 heck
 ----------------------------------------------------------------------

 --------------------------------------
 CID_147106026_JID_10025_Energie_kation
 --------------------------------------
 Structure from the checkpoint file:  "JID_10025.chk"
 Charge =  1 Multiplicity = 2

 SCF Done:  E(UB3LYP) =  -912.422264176     A.U. after   33 cycles
 SCF Done:  E(UB3LYP) =  -912.422264176     a.u. after    2 cycles
 Normal termination of Gaussian 16 at Sat Dec 12 15:52:59 2020.
 Gaussian 16:  ES64L-G16RevA.03 25-Dec-2016

 ----------------------------------------------------------------------
 # B3LYP/6-311++G(d,p) empiricaldispersion=gd3bj scf=xqc pop=npa geom=c
 heck
 ----------------------------------------------------------------------

 -------------------------------------
 CID_147106026_JID_10025_Energie_anion
 -------------------------------------
 Structure from the checkpoint file:  "JID_10025.chk"
 Charge = -1 Multiplicity = 2

                         Standard orientation:
 ---------------------------------------------------------------------
 Center     Atomic      Atomic             Coordinates (Angstroms)
 Number     Number       Type             X           Y           Z
 ---------------------------------------------------------------------
      1          6           0        4.123144    1.081706    1.471603
      2          7           0        5.153919    0.615430    0.553157
      3          6           0        6.259624   -0.015359    1.261526
      4          6           0        4.666077   -0.181966   -0.589904
      5          6           0        3.774825    0.669585   -1.518915
      6          6           0        2.310731    0.623775   -1.210589
      7          6           0        1.776600   -0.435033   -0.558388
      8          6           0        2.625000   -1.543964   -0.118047
      9          6           0        3.962980   -1.458122   -0.166904
     10          7           0        0.394616   -0.614215   -0.328968
     11          7           0       -0.296941    0.440131   -0.360841
     12          6           0       -1.688186    0.226058   -0.193563
     13          6           0       -2.476126    1.385255   -0.184534
     14          6           0       -3.854037    1.298865   -0.025598
     15          6           0       -4.426288    0.037733    0.123167
     16          6           0       -3.662340   -1.132542    0.117119
     17          6           0       -2.289147   -1.036526   -0.043016
     18          7           0       -5.881165   -0.065745    0.290731
     19          8           0       -6.532626    0.979021    0.292736
     20          8           0       -6.363267   -1.191329    0.419579
     21          1           0        4.592210    1.724097    2.224242
     22          1           0        3.591275    0.269103    1.995933
     23          1           0        3.379525    1.676719    0.934470
     24          1           0        5.971145   -0.904162    1.851183
     25          1           0        7.031510   -0.316599    0.544784
     26          1           0        6.702671    0.710164    1.952586
     27          1           0        5.569202   -0.443299   -1.153157
     28          1           0        4.147080    1.701127   -1.507346
     29          1           0        3.908000    0.313154   -2.553543
     30          1           0        1.659514    1.414303   -1.570177
     31          1           0        2.117162   -2.426544    0.261620
     32          1           0        4.574877   -2.279626    0.195999
     33          1           0       -1.983074    2.344027   -0.303724
     34          1           0       -4.486083    2.177397   -0.014605
     35          1           0       -4.156904   -2.088330    0.235509
     36          1           0       -1.661114   -1.919053   -0.054597
 ---------------------------------------------------------------------

 SCF Done:  E(UB3LYP) =  -912.784566549     A.U. after   25 cycles

 The electronic state is 2-A.
 Alpha  occ. eigenvalues --  -19.00894 -19.00875 -14.39731 -14.22148 -14.20813
 Alpha  occ. eigenvalues --  -14.20582 -10.11522 -10.11228 -10.09506 -10.09405
 Alpha  occ. eigenvalues --  -10.08117 -10.07806 -10.07765 -10.07467 -10.07022
 Alpha  occ. eigenvalues --  -10.06804 -10.06522 -10.06037 -10.05703 -10.05275
 Alpha  occ. eigenvalues --   -1.08601  -0.91434  -0.89297  -0.84028  -0.75884
 Alpha  occ. eigenvalues --   -0.73621  -0.68813  -0.65379  -0.64610  -0.64114
 Alpha  occ. eigenvalues --   -0.62355  -0.59976  -0.55420  -0.52136  -0.50685
 Alpha  occ. eigenvalues --   -0.50332  -0.47557  -0.45031  -0.42646  -0.41335
 Alpha  occ. eigenvalues --   -0.40445  -0.39950  -0.39077  -0.38057  -0.37160
 Alpha  occ. eigenvalues --   -0.35494  -0.34988  -0.33998  -0.33466  -0.32520
 Alpha  occ. eigenvalues --   -0.32116  -0.31770  -0.30817  -0.30441  -0.29859
 Alpha  occ. eigenvalues --   -0.28742  -0.28077  -0.27850  -0.26905  -0.25379
 Alpha  occ. eigenvalues --   -0.24251  -0.23200  -0.22749  -0.20548  -0.18647
 Alpha  occ. eigenvalues --   -0.17663  -0.15859  -0.15169  -0.14913  -0.13138
 Alpha  occ. eigenvalues --   -0.11155  -0.09880  -0.02068
 Alpha virt. eigenvalues --    0.03985   0.05612   0.07483   0.07861   0.08003
 Alpha virt. eigenvalues --    0.08512   0.09548   0.09848   0.10016   0.10190
 Alpha virt. eigenvalues --    0.10578   0.11022   0.11860   0.11884   0.13204

  Beta  occ. eigenvalues --  -19.00676 -19.00632 -14.39522 -14.22148 -14.20648
  Beta  occ. eigenvalues --  -14.20050 -10.11514 -10.11226 -10.09500 -10.09286
  Beta  occ. eigenvalues --  -10.08015 -10.07946 -10.07791 -10.07429 -10.07063
  Beta  occ. eigenvalues --  -10.06811 -10.06464 -10.06028 -10.05658 -10.04880
  Beta  occ. eigenvalues --   -1.08173  -0.91006  -0.88590  -0.84026  -0.75659
  Beta  occ. eigenvalues --   -0.73460  -0.68417  -0.65254  -0.64325  -0.63942
  Beta  occ. eigenvalues --   -0.62332  -0.59444  -0.55287  -0.51670  -0.50570
  Beta  occ. eigenvalues --   -0.50265  -0.47373  -0.44863  -0.42391  -0.41228
  Beta  occ. eigenvalues --   -0.40327  -0.38919  -0.38665  -0.37827  -0.37037
  Beta  occ. eigenvalues --   -0.35424  -0.34798  -0.33820  -0.33397  -0.32418
  Beta  occ. eigenvalues --   -0.31794  -0.31715  -0.30789  -0.30266  -0.28839
  Beta  occ. eigenvalues --   -0.28562  -0.27988  -0.27603  -0.26699  -0.24815
  Beta  occ. eigenvalues --   -0.23993  -0.22922  -0.22656  -0.20120  -0.17418
  Beta  occ. eigenvalues --   -0.17076  -0.15630  -0.14601  -0.14037  -0.13070
  Beta  occ. eigenvalues --   -0.10080  -0.09220
  Beta virt. eigenvalues --    0.03305   0.05504   0.06190   0.07484   0.07989
  Beta virt. eigenvalues --    0.08433   0.09095   0.09547   0.10005   0.10131
  Beta virt. eigenvalues --    0.10246   0.10639   0.11017   0.11862   0.11901

 Mulliken charges and spin densities:
               1          2
     1  C   -0.395687  -0.000646
     2  N    0.102178  -0.005666
     3  C   -0.311633  -0.002428
     4  C    0.302075   0.038264
     5  C   -1.335065  -0.041381
     6  C    0.433119   0.332446
     7  C   -0.561194  -0.139257
     8  C    0.388713   0.044797
     9  C   -0.716507  -0.050102
    10  N    0.091606   0.289414
    11  N    0.007983   0.048257
    12  C   -0.513630   0.007838
    13  C   -0.124825  -0.010197
    14  C   -0.062147   0.063176
    15  C   -0.427253   0.036115
    16  C   -0.173592   0.018034
    17  C    0.209447   0.119962
    18  N   -0.223702   0.072025
    19  O   -0.105811   0.081049
    20  O   -0.108592   0.089076
    21  H    0.121163   0.002608
    22  H    0.131301  -0.000788
    23  H    0.169756   0.000551
    24  H    0.117836   0.001946
    25  H    0.128129   0.000250
    26  H    0.112219   0.000372
    27  H    0.159878   0.002976
    28  H    0.172259   0.007052
    29  H    0.128820   0.022039
    30  H    0.194825  -0.018105
    31  H    0.162012  -0.002014
    32  H    0.153512   0.001929
    33  H    0.143669  -0.000333
    34  H    0.224012  -0.003523
    35  H    0.226683  -0.000065
    36  H    0.178442  -0.005671
 Sum of Mulliken charges =  -1.00000   1.00000

 Dipole moment (field-independent basis, Debye):
    X=             12.5111    Y=              0.0983    Z=              0.0253  Tot=             12.5115
 Quadrupole moment (field-independent basis, Debye-Ang):
   XX=           -244.1527   YY=           -127.4597   ZZ=           -125.8318
   XY=             -3.8609   XZ=              6.8909   YZ=             -0.6991

 Summary of Natural Population Analysis:

                                       Natural Population
                Natural  -----------------------------------------------
    Atom  No    Charge         Core      Valence    Rydberg      Total
 -----------------------------------------------------------------------
      C    1   -0.18129      0.99965     2.17401    0.00763     3.18129
      N    2   -0.27873      0.99973     2.76448    0.01453     3.77873
      C    3   -0.17584      0.99966     2.16905    0.00714     3.17584
      C    4   -0.01223      0.99958     2.00032    0.01234     3.01223
      C    5   -0.21501      0.99962     2.20788    0.00751     3.21501
      C    6    0.02008      0.99949     1.97196    0.00846     2.97992
      C    7   -0.00546      0.99944     1.99138    0.01465     3.00546
      C    8   -0.08038      0.99950     2.07040    0.01048     3.08038
      C    9   -0.13298      0.99954     2.12412    0.00932     3.13298
      N   10   -0.03240      0.99970     2.51313    0.01957     3.53240
      N   11   -0.11002      0.99971     2.58978    0.02054     3.61002
      C   12    0.08431      0.99947     1.90259    0.01363     2.91569
      C   13   -0.09593      0.99953     2.08762    0.00878     3.09593
      C   14   -0.08914      0.99953     2.08040    0.00922     3.08914
      C   15    0.05131      0.99939     1.93842    0.01088     2.94869
      C   16   -0.09866      0.99954     2.08995    0.00918     3.09866
      C   17   -0.09777      0.99952     2.08973    0.00852     3.09777
      N   18    0.26198      0.99972     2.21064    0.02767     3.23802
      O   19   -0.20109      0.99990     3.19332    0.00788     4.20109
      O   20   -0.19703      0.99990     3.18928    0.00785     4.19703
      H   21    0.08808      0.00000     0.41089    0.00103     0.41192
      H   22    0.08667      0.00000     0.41192    0.00141     0.41333
      H   23    0.10435      0.00000     0.39473    0.00091     0.39565
      H   24    0.07911      0.00000     0.41899    0.00191     0.42089
      H   25    0.09100      0.00000     0.40803    0.00097     0.40900
      H   26    0.09098      0.00000     0.40794    0.00108     0.40902
      H   27    0.09423      0.00000     0.40454    0.00123     0.40577
      H   28    0.10795      0.00000     0.39075    0.00130     0.39205
      H   29    0.10970      0.00000     0.38911    0.00119     0.39030
      H   30    0.10143      0.00000     0.39658    0.00199     0.39857
      H   31    0.10237      0.00000     0.39601    0.00162     0.39763
      H   32    0.09279      0.00000     0.40615    0.00106     0.40721
      H   33    0.10249      0.00000     0.39637    0.00114     0.39751
      H   34    0.11250      0.00000     0.38630    0.00120     0.38750
      H   35    0.11264      0.00000     0.38619    0.00117     0.38736
      H   36    0.11004      0.00000     0.38816    0.00180     0.38996
 =======================================================================
   * Total *    0.00000     19.99211    51.75112    0.25676    72.00000

 Normal termination of Gaussian 16 at Sat Dec 12 16:06:43 2020.
