 Gaussian 16, Revision A.03,

 -----------------------------------------------------------
 # opt freq B3LYP/6-31G(d) empiricaldispersion=gd3bj scf=xqc
 -----------------------------------------------------------

 -------------------------------
 CID_141123348_JID_5411_neutraal
 -------------------------------
 Symbolic Z-matrix:
 Charge =  0 Multiplicity = 1

 SCF Done:  E(RB3LYP) =  -1088.56659953     A.U. after   15 cycles
 SCF Done:  E(RB3LYP) =  -1088.57186668     A.U. after   12 cycles
 SCF Done:  E(RB3LYP) =  -1088.57198693     A.U. after   13 cycles
 SCF Done:  E(RB3LYP) =  -1088.57286925     A.U. after   12 cycles
 SCF Done:  E(RB3LYP) =  -1088.57323358     A.U. after   11 cycles
 SCF Done:  E(RB3LYP) =  -1088.57330083     A.U. after   11 cycles
 SCF Done:  E(RB3LYP) =  -1088.57332230     A.U. after    9 cycles
 SCF Done:  E(RB3LYP) =  -1088.57334493     A.U. after   10 cycles
 SCF Done:  E(RB3LYP) =  -1088.57336024     A.U. after   10 cycles
 SCF Done:  E(RB3LYP) =  -1088.57338151     A.U. after   10 cycles
 SCF Done:  E(RB3LYP) =  -1088.57341758     A.U. after   10 cycles
 SCF Done:  E(RB3LYP) =  -1088.57341839     A.U. after    8 cycles
 SCF Done:  E(RB3LYP) =  -1088.57341857     A.U. after    7 cycles
 SCF Done:  E(RB3LYP) =  -1088.57341872     A.U. after    7 cycles
 SCF Done:  E(RB3LYP) =  -1088.57341873     A.U. after    7 cycles
 Optimization completed.
    -- Stationary point found.
 Normal termination of Gaussian 16 at Thu Dec 10 15:55:13 2020.

 --------------------------------------------------------------------
 #N Geom=AllCheck Guess=TCheck SCRF=Check GenChk RB3LYP/6-31G(d) Freq
 --------------------------------------------------------------------

 Structure from the checkpoint file:  "JID_5411.chk"
 -------------------------------
 CID_141123348_JID_5411_neutraal
 -------------------------------
 Charge =  0 Multiplicity = 1

 SCF Done:  E(RB3LYP) =  -1088.57341873     A.U. after    1 cycles

  Exact polarizability: 151.346   5.082 139.100  12.741   2.975  88.033
 Approx polarizability: 215.096   2.656 219.851  23.878   3.229 145.266

                      1                      2                      3
                      A                      A                      A
 Frequencies --     32.6023                44.6920                69.8720
 Red. masses --      5.4274                 6.4017                 6.0150
 Frc consts  --      0.0034                 0.0075                 0.0173
 IR Inten    --      0.4993                 2.2397                 1.1310

                      4                      5                      6
                      A                      A                      A
 Frequencies --     92.6359               118.6970               163.6192
 Red. masses --      4.6060                 4.1055                 2.6485
 Frc consts  --      0.0233                 0.0341                 0.0418
 IR Inten    --      0.8556                 1.1899                35.9808

                      7                      8                      9
                      A                      A                      A
 Frequencies --    179.0058               236.3332               248.0350
 Red. masses --      2.0351                 3.0714                 1.2785
 Frc consts  --      0.0384                 0.1011                 0.0463
 IR Inten    --     32.5944                19.5065                 1.0894

                     10                     11                     12
                      A                      A                      A
 Frequencies --    257.3682               269.5098               298.8558
 Red. masses --      2.2509                 2.1280                 1.3799
 Frc consts  --      0.0878                 0.0911                 0.0726
 IR Inten    --      0.6658                 0.9392                 2.0249

                     13                     14                     15
                      A                      A                      A
 Frequencies --    303.9797               357.2729               374.4484
 Red. masses --      3.0484                 3.8321                 2.7733
 Frc consts  --      0.1660                 0.2882                 0.2291
 IR Inten    --      0.9009                 0.1534                17.5687

                     16                     17                     18
                      A                      A                      A
 Frequencies --    394.7965               421.8567               445.3029
 Red. masses --      2.7129                 3.0261                 3.2503
 Frc consts  --      0.2491                 0.3173                 0.3797
 IR Inten    --      2.4342                 0.1640                23.4902

                     19                     20                     21
                      A                      A                      A
 Frequencies --    452.1017               488.5025               501.7792
 Red. masses --      3.4636                 5.3877                 5.7901
 Frc consts  --      0.4171                 0.7575                 0.8589
 IR Inten    --      2.9636                20.4791                 6.5677

                     22                     23                     24
                      A                      A                      A
 Frequencies --    529.8595               577.3014               623.6109
 Red. masses --      4.1041                 7.5587                 4.4533
 Frc consts  --      0.6789                 1.4842                 1.0204
 IR Inten    --     35.5995                34.2533                 4.4762

                     25                     26                     27
                      A                      A                      A
 Frequencies --    638.7974               708.6514               721.5711
 Red. masses --      6.2033                 6.2670                 1.7595
 Frc consts  --      1.4914                 1.8543                 0.5398
 IR Inten    --      0.2366                33.0149                43.9128

                     28                     29                     30
                      A                      A                      A
 Frequencies --    764.6508               816.9198               839.5971
 Red. masses --      2.2089                 7.9112                 3.4515
 Frc consts  --      0.7609                 3.1106                 1.4335
 IR Inten    --     17.0059               102.2333                 0.9012

                     31                     32                     33
                      A                      A                      A
 Frequencies --    848.1863               866.5756               877.5445
 Red. masses --      3.6560                 1.3175                 6.4537
 Frc consts  --      1.5497                 0.5829                 2.9282
 IR Inten    --    102.3015                13.4837               395.5243

                     34                     35                     36
                      A                      A                      A
 Frequencies --    907.1128               936.9159               961.1478
 Red. masses --      1.8212                 1.4337                 1.4837
 Frc consts  --      0.8830                 0.7415                 0.8076
 IR Inten    --      1.9506                 1.5475                11.3913

                     37                     38                     39
                      A                      A                      A
 Frequencies --    974.7977               996.1779               999.8946
 Red. masses --      1.3314                 1.7890                 1.2511
 Frc consts  --      0.7454                 1.0460                 0.7370
 IR Inten    --      0.7298                 1.6213                 0.9475

                     40                     41                     42
                      A                      A                      A
 Frequencies --   1023.4673              1046.0622              1062.9910
 Red. masses --      6.1979                 1.3587                 2.1966
 Frc consts  --      3.8251                 0.8760                 1.4624
 IR Inten    --      0.5197                 1.0528                 2.8987

                     43                     44                     45
                      A                      A                      A
 Frequencies --   1113.1710              1145.1184              1171.9093
 Red. masses --      1.5743                 2.3208                 2.6863
 Frc consts  --      1.1494                 1.7930                 2.1736
 IR Inten    --      2.0092                93.0074                84.3471

                     46                     47                     48
                      A                      A                      A
 Frequencies --   1181.1287              1193.9844              1219.1787
 Red. masses --      1.2694                 1.0960                 1.1920
 Frc consts  --      1.0434                 0.9206                 1.0439
 IR Inten    --     81.4838                 0.0188                 3.8660

                     49                     50                     51
                      A                      A                      A
 Frequencies --   1223.1425              1240.7103              1258.6391
 Red. masses --      2.4042                 2.3834                 2.2506
 Frc consts  --      2.1192                 2.1617                 2.1006
 IR Inten    --     34.1250                 0.8581                26.4429

                     52                     53                     54
                      A                      A                      A
 Frequencies --   1303.1939              1366.9697              1374.4163
 Red. masses --      2.2429                 4.1111                 1.5731
 Frc consts  --      2.2443                 4.5261                 1.7508
 IR Inten    --      9.0566                 0.5215                67.6234

                     55                     56                     57
                      A                      A                      A
 Frequencies --   1383.4766              1392.1172              1434.6283
 Red. masses --      2.7816                 1.7437                 1.2990
 Frc consts  --      3.1368                 1.9910                 1.5752
 IR Inten    --    169.9216                22.8957                 9.3887

                     58                     59                     60
                      A                      A                      A
 Frequencies --   1452.8692              1503.6208              1507.4151
 Red. masses --      1.2329                 1.5269                 1.3488
 Frc consts  --      1.5333                 2.0340                 1.8058
 IR Inten    --     13.1516                 8.1367                 1.2675

                     61                     62                     63
                      A                      A                      A
 Frequencies --   1517.1214              1518.1402              1529.6295
 Red. masses --      1.0572                 1.0757                 1.0638
 Frc consts  --      1.4336                 1.4607                 1.4665
 IR Inten    --      2.3551                 5.5091                 0.5175

                     64                     65                     66
                      A                      A                      A
 Frequencies --   1542.8582              1550.8060              1647.3477
 Red. masses --      1.0731                 2.1483                 5.4631
 Frc consts  --      1.5051                 3.0441                 8.7350
 IR Inten    --     10.8470                10.7521                 0.8720

                     67                     68                     69
                      A                      A                      A
 Frequencies --   1669.7151              3060.5111              3067.5720
 Red. masses --      5.5630                 1.0644                 1.0359
 Frc consts  --      9.1379                 5.8742                 5.7431
 IR Inten    --      3.0221                12.2345                 7.0450

                     70                     71                     72
                      A                      A                      A
 Frequencies --   3073.7869              3129.1520              3137.4535
 Red. masses --      1.0388                 1.0963                 1.1019
 Frc consts  --      5.7827                 6.3246                 6.3904
 IR Inten    --     18.6375                 1.3439                 5.9831

                     73                     74                     75
                      A                      A                      A
 Frequencies --   3142.1148              3156.9218              3161.5601
 Red. masses --      1.1019                 1.1038                 1.1026
 Frc consts  --      6.4097                 6.4811                 6.4931
 IR Inten    --     26.0144                11.1473                13.6847

                     76                     77                     78
                      A                      A                      A
 Frequencies --   3173.3667              3185.2059              3195.6668
 Red. masses --      1.0866                 1.0870                 1.0917
 Frc consts  --      6.4472                 6.4979                 6.5689
 IR Inten    --      8.9311                 2.3989                29.9733

                     79                     80                     81
                      A                      A                      A
 Frequencies --   3207.5578              3220.2338              3702.4323
 Red. masses --      1.0959                 1.0941                 1.0658
 Frc consts  --      6.6431                 6.6849                 8.6083
 IR Inten    --     28.3208                 4.8560               114.4451

 - Thermochemistry -
 -------------------
 Temperature   298.150 Kelvin.  Pressure   1.00000 Atm.
 Atom     1 has atomic number  6 and mass  12.00000

 Molecular mass:   230.06128 amu.
 Principal axes and moments of inertia in atomic units:
                           1         2         3
     Eigenvalues --  1901.763814652.929485715.67341
           X            0.99984   0.01759   0.00408
           Y           -0.01761   0.99984   0.00369
           Z           -0.00402  -0.00376   0.99998
 This molecule is an asymmetric top.
 Rotational symmetry number  1.
 Warning -- assumption of classical behavior for rotation
           may cause significant error
 Rotational temperatures (Kelvin)      0.04554     0.01861     0.01515
 Rotational constants (GHZ):           0.94898     0.38787     0.31575
 Zero-point vibrational energy     613253.3 (Joules/Mol)
                                  146.57105 (Kcal/Mol)
 Warning -- explicit consideration of  23 degrees of freedom as
           vibrations may cause significant error
 Vibrational temperatures:     46.91    64.30   100.53   133.28   170.78
          (Kelvin)            235.41   257.55   340.03   356.87   370.30
                              387.76   429.99   437.36   514.04   538.75
                              568.02   606.96   640.69   650.47   702.85
                              721.95   762.35   830.61   897.24   919.09
                             1019.59  1038.18  1100.16  1175.37  1207.99
                             1220.35  1246.81  1262.59  1305.13  1348.01
                             1382.88  1402.52  1433.28  1438.63  1472.54
                             1505.05  1529.41  1601.60  1647.57  1686.12
                             1699.38  1717.88  1754.13  1759.83  1785.11
                             1810.90  1875.01  1966.76  1977.48  1990.51
                             2002.95  2064.11  2090.35  2163.37  2168.83
                             2182.80  2184.27  2200.80  2219.83  2231.26
                             2370.17  2402.35  4403.39  4413.55  4422.49
                             4502.15  4514.10  4520.80  4542.11  4548.78
                             4565.77  4582.80  4597.85  4614.96  4633.20
                             5326.97

 Zero-point correction=                           0.233576 (Hartree/Particle)
 Thermal correction to Energy=                    0.248520
 Thermal correction to Enthalpy=                  0.249464
 Thermal correction to Gibbs Free Energy=         0.191189
 Sum of electronic and zero-point Energies=          -1088.339843
 Sum of electronic and thermal Energies=             -1088.324899
 Sum of electronic and thermal Enthalpies=           -1088.323955
 Sum of electronic and thermal Free Energies=        -1088.382230

                     E (Thermal)             CV                S
                      KCal/Mol        Cal/Mol-Kelvin    Cal/Mol-Kelvin
 Total                  155.948             57.290            122.651
 Electronic               0.000              0.000              0.000
 Translational            0.889              2.981             42.202
 Rotational               0.889              2.981             32.292
 Vibrational            154.171             51.329             48.157
 Vibration     1          0.594              1.983              5.664
 Vibration     2          0.595              1.980              5.039
 Vibration     3          0.598              1.968              4.157
 Vibration     4          0.602              1.954              3.604
 Vibration     5          0.609              1.934              3.121
 Vibration     6          0.623              1.887              2.508
 Vibration     7          0.629              1.868              2.339
 Vibration     8          0.655              1.785              1.830
 Vibration     9          0.662              1.766              1.745
 Vibration    10          0.667              1.750              1.680
 Vibration    11          0.674              1.729              1.599
 Vibration    12          0.692              1.676              1.423
 Vibration    13          0.695              1.666              1.395
 Vibration    14          0.732              1.560              1.134
 Vibration    15          0.746              1.525              1.062
 Vibration    16          0.762              1.481              0.982
 Vibration    17          0.784              1.423              0.886
 Vibration    18          0.805              1.371              0.810
 Vibration    19          0.811              1.356              0.789
 Vibration    20          0.844              1.276              0.688
 Vibration    21          0.857              1.246              0.654
 Vibration    22          0.885              1.184              0.588
 Vibration    23          0.934              1.080              0.490

 Optimization completed.
    -- Stationary point found.
 Normal termination of Gaussian 16 at Thu Dec 10 16:04:27 2020.

 ----------------------------------------------------------------------
 # B3LYP/6-311++G(d,p) empiricaldispersion=gd3bj scf=xqc pop=npa geom=c
 heck
 ----------------------------------------------------------------------

 ---------------------------------------
 CID_141123348_JID_5411_Energie_neutraal
 ---------------------------------------
 Structure from the checkpoint file:  "JID_5411.chk"
 Charge =  0 Multiplicity = 1

 SCF Done:  E(RB3LYP) =  -1088.80065764     A.U. after   16 cycles
 Normal termination of Gaussian 16 at Thu Dec 10 16:08:30 2020.

 ----------------------------------------------------------------------
 # B3LYP/6-311++G(d,p) empiricaldispersion=gd3bj scf=xqc pop=npa geom=c
 heck
 ----------------------------------------------------------------------

 -------------------------------------
 CID_141123348_JID_5411_Energie_kation
 -------------------------------------
 Structure from the checkpoint file:  "JID_5411.chk"
 Charge =  1 Multiplicity = 2

 SCF Done:  E(UB3LYP) =  -1088.47832774     A.U. after   25 cycles
 Normal termination of Gaussian 16 at Thu Dec 10 16:16:45 2020.
 Gaussian 16:  ES64L-G16RevA.03 25-Dec-2016

 ----------------------------------------------------------------------
 # B3LYP/6-311++G(d,p) empiricaldispersion=gd3bj scf=xqc pop=npa geom=c
 heck
 ----------------------------------------------------------------------

 ------------------------------------
 CID_141123348_JID_5411_Energie_anion
 ------------------------------------
 Structure from the checkpoint file:  "JID_5411.chk"
 Charge = -1 Multiplicity = 2

                         Standard orientation:
 ---------------------------------------------------------------------
 Center     Atomic      Atomic             Coordinates (Angstroms)
 Number     Number       Type             X           Y           Z
 ---------------------------------------------------------------------
      1          6           0       -0.022989    2.197368   -1.252239
      2          6           0        0.574722    1.455340   -0.062999
      3          6           0        1.770398    2.207566    0.516460
      4          6           0       -0.469014    1.142454    1.031584
      5          6           0       -1.663723    0.345246    0.565334
      6          6           0       -1.620508   -1.054677    0.543409
      7          6           0       -2.712838   -1.791512    0.087729
      8          6           0       -3.867563   -1.141094   -0.350334
      9          6           0       -3.925460    0.252577   -0.323561
     10          6           0       -2.830826    0.986868    0.133111
     11          8           0        1.012179    0.172857   -0.698635
     12         16           0        2.102338   -0.779933    0.001635
     13          8           0        3.440820   -0.349800   -0.374260
     14          8           0        1.755747   -1.045117    1.385748
     15          8           0        1.745116   -2.129429   -0.826162
     16          1           0       -0.442010    3.151425   -0.915911
     17          1           0       -0.821039    1.610886   -1.712326
     18          1           0        0.749124    2.398315   -2.000194
     19          1           0        1.437956    3.195444    0.850711
     20          1           0        2.196451    1.687196    1.378696
     21          1           0        2.551646    2.338030   -0.236469
     22          1           0        0.039147    0.618590    1.844821
     23          1           0       -0.797512    2.111391    1.427186
     24          1           0       -0.730106   -1.565771    0.894703
     25          1           0       -2.662382   -2.876796    0.078894
     26          1           0       -4.719066   -1.716399   -0.702907
     27          1           0       -4.823424    0.768652   -0.652222
     28          1           0       -2.883744    2.072918    0.159052
     29          1           0        2.243479   -2.103843   -1.664666
 ---------------------------------------------------------------------

 SCF Done:  E(UB3LYP) =  -1088.79400667     A.U. after   33 cycles
 SCF Done:  E(UB3LYP) =  -1088.79400667     a.u. after    1 cycles

 The electronic state is 2-A.
 Alpha  occ. eigenvalues --  -89.01189 -19.07877 -19.07310 -19.03807 -19.03474
 Alpha  occ. eigenvalues --  -10.16108 -10.08740 -10.08256 -10.08201 -10.08069
 Alpha  occ. eigenvalues --  -10.08000 -10.07809 -10.07521 -10.07376 -10.06819
 Alpha  occ. eigenvalues --   -8.06900  -6.03222  -6.03176  -6.03026  -1.08352
 Alpha  occ. eigenvalues --   -0.95790  -0.94781  -0.93380  -0.76716  -0.72893
 Alpha  occ. eigenvalues --   -0.67011  -0.65260  -0.61162  -0.59517  -0.58099
 Alpha  occ. eigenvalues --   -0.51402  -0.50734  -0.49445  -0.45082  -0.42650
 Alpha  occ. eigenvalues --   -0.40865  -0.40431  -0.38237  -0.37650  -0.36420
 Alpha  occ. eigenvalues --   -0.35805  -0.34506  -0.33775  -0.32882  -0.31544
 Alpha  occ. eigenvalues --   -0.30487  -0.29691  -0.29279  -0.28405  -0.27802
 Alpha  occ. eigenvalues --   -0.26924  -0.26753  -0.26551  -0.25566  -0.24661
 Alpha  occ. eigenvalues --   -0.24148  -0.23148  -0.22181  -0.20299  -0.16114
 Alpha  occ. eigenvalues --   -0.15465   0.04009
 Alpha virt. eigenvalues --    0.06074   0.06685   0.07595   0.07909   0.08223
 Alpha virt. eigenvalues --    0.09118   0.09272   0.10160   0.10736   0.11475
 Alpha virt. eigenvalues --    0.11944   0.12194   0.13245   0.13872   0.14268

  Beta  occ. eigenvalues --  -89.01165 -19.07758 -19.07248 -19.03768 -19.03442
  Beta  occ. eigenvalues --  -10.16089 -10.08738 -10.08249 -10.08195 -10.08059
  Beta  occ. eigenvalues --  -10.07986 -10.07786 -10.07515 -10.07354 -10.06788
  Beta  occ. eigenvalues --   -8.06868  -6.03198  -6.03148  -6.03006  -1.08204
  Beta  occ. eigenvalues --   -0.95570  -0.94612  -0.93271  -0.76692  -0.72839
  Beta  occ. eigenvalues --   -0.66982  -0.65232  -0.61107  -0.59479  -0.57965
  Beta  occ. eigenvalues --   -0.51362  -0.50644  -0.49392  -0.45030  -0.42612
  Beta  occ. eigenvalues --   -0.40814  -0.40385  -0.38191  -0.37601  -0.36381
  Beta  occ. eigenvalues --   -0.35764  -0.34420  -0.33733  -0.32856  -0.31475
  Beta  occ. eigenvalues --   -0.30439  -0.29657  -0.29226  -0.28346  -0.27769
  Beta  occ. eigenvalues --   -0.26879  -0.26665  -0.26496  -0.25506  -0.24632
  Beta  occ. eigenvalues --   -0.24105  -0.23102  -0.22122  -0.20251  -0.16078
  Beta  occ. eigenvalues --   -0.15436
  Beta virt. eigenvalues --    0.06349   0.07189   0.07612   0.07879   0.07936
  Beta virt. eigenvalues --    0.08776   0.09427   0.09603   0.10500   0.10907
  Beta virt. eigenvalues --    0.11692   0.12149   0.12505   0.13538   0.13961

 Mulliken charges and spin densities:
               1          2
     1  C    0.894370  -1.448711
     2  C   -1.990011   1.748346
     3  C    0.721345  -1.264848
     4  C    1.709446  -2.671789
     5  C    0.056910   1.468861
     6  C   -1.764086   1.422843
     7  C    0.025744  -0.386041
     8  C    0.217551  -0.561084
     9  C   -0.004752  -0.351337
    10  C    0.070577  -0.386453
    11  O   -0.058377   0.038282
    12  S    0.909867  -0.588678
    13  O   -0.121819  -0.005191
    14  O   -0.158970   0.001607
    15  O   -0.148341  -0.048069
    16  H   -0.337399   0.523292
    17  H    0.161879  -0.001828
    18  H   -0.063214   0.226890
    19  H   -0.200597   0.358451
    20  H    0.153760   0.060034
    21  H    0.148992   0.044503
    22  H    0.309386  -0.074934
    23  H   -0.408333   0.626130
    24  H   -0.001691   0.179885
    25  H    0.005444   0.168370
    26  H    0.027834   0.109184
    27  H   -0.244445   0.416970
    28  H   -0.408275   0.564679
    29  H   -0.502792   0.830636
 Sum of Mulliken charges =  -1.00000   1.00000

 Dipole moment (field-independent basis, Debye):
    X=             -1.3418    Y=             -1.1227    Z=              1.3857  Tot=              2.2319
 Quadrupole moment (field-independent basis, Debye-Ang):
   XX=           -153.0986   YY=           -147.9530   ZZ=           -127.3088
   XY=             14.7992   XZ=              5.2351   YZ=             -5.9668

 Summary of Natural Population Analysis:

                                       Natural Population
                Natural  -----------------------------------------------
    Atom  No    Charge         Core      Valence    Rydberg      Total
 -----------------------------------------------------------------------
      C    1   -0.29508      0.99958     2.28775    0.00775     3.29508
      C    2    0.14780      0.99952     1.83742    0.01526     2.85220
      C    3   -0.30697      0.99959     2.29991    0.00747     3.30697
      C    4   -0.21753      0.99953     2.20624    0.01177     3.21753
      C    5   -0.01559      0.99951     2.00443    0.01166     3.01559
      C    6   -0.09381      0.99950     2.08572    0.00858     3.09381
      C    7   -0.09892      0.99956     2.09002    0.00934     3.09892
      C    8   -0.10666      0.99956     2.09785    0.00926     3.10666
      C    9   -0.10350      0.99956     2.09362    0.01032     3.10350
      C   10   -0.09850      0.99951     2.08930    0.00969     3.09850
      O   11   -0.37898      0.99988     3.36797    0.01113     4.37898
      S   12    1.23439      4.99944     1.65666    0.10950     6.76561
      O   13   -0.44675      0.99990     3.44116    0.00569     4.44675
      O   14   -0.44671      0.99989     3.44140    0.00542     4.44671
      O   15   -0.42050      0.99990     3.41448    0.00612     4.42050
      H   16    0.10784      0.00000     0.38969    0.00246     0.39216
      H   17    0.11072      0.00000     0.38788    0.00140     0.38928
      H   18    0.10508      0.00000     0.39387    0.00105     0.39492
      H   19    0.11026      0.00000     0.38829    0.00145     0.38974
      H   20    0.10755      0.00000     0.39145    0.00100     0.39245
      H   21    0.11047      0.00000     0.38865    0.00088     0.38953
      H   22    0.11660      0.00000     0.38203    0.00137     0.38340
      H   23    0.11101      0.00000     0.38731    0.00168     0.38899
      H   24    0.10977      0.00000     0.38849    0.00174     0.39023
      H   25    0.09988      0.00000     0.39933    0.00079     0.40012
      H   26    0.09809      0.00000     0.40116    0.00075     0.40191
      H   27    0.09997      0.00000     0.39915    0.00088     0.40003
      H   28    0.10300      0.00000     0.39500    0.00200     0.39700
      H   29    0.25706      0.00000     0.21450    0.02844     0.24294
 =======================================================================
   * Total *   -0.00000     18.99444    41.72074    0.28482    61.00000

 Normal termination of Gaussian 16 at Thu Dec 10 16:27:59 2020.
