 Gaussian 16, Revision A.03,

 -----------------------------------------------------------
 # opt freq B3LYP/6-31G(d) empiricaldispersion=gd3bj scf=xqc
 -----------------------------------------------------------

 --------------------------------
 CID_110718472_JID_10621_neutraal
 --------------------------------
 Symbolic Z-matrix:
 Charge =  0 Multiplicity = 1

 SCF Done:  E(RB3LYP) =  -1600.67703715     A.U. after   15 cycles
 SCF Done:  E(RB3LYP) =  -1600.68353975     A.U. after   12 cycles
 SCF Done:  E(RB3LYP) =  -1600.68523681     A.U. after   13 cycles
 SCF Done:  E(RB3LYP) =  -1600.68587335     A.U. after   12 cycles
 SCF Done:  E(RB3LYP) =  -1600.68615446     A.U. after   12 cycles
 SCF Done:  E(RB3LYP) =  -1600.68624522     A.U. after   11 cycles
 SCF Done:  E(RB3LYP) =  -1600.68627265     A.U. after   10 cycles
 SCF Done:  E(RB3LYP) =  -1600.68629627     A.U. after   10 cycles
 SCF Done:  E(RB3LYP) =  -1600.68638482     A.U. after   12 cycles
 SCF Done:  E(RB3LYP) =  -1600.68642169     A.U. after   12 cycles
 SCF Done:  E(RB3LYP) =  -1600.68696253     A.U. after    9 cycles
 SCF Done:  E(RB3LYP) =  -1600.68696273     A.U. after    8 cycles
 SCF Done:  E(RB3LYP) =  -1600.68696276     A.U. after    8 cycles
 SCF Done:  E(RB3LYP) =  -1600.68696274     A.U. after    7 cycles
 Optimization completed.
    -- Stationary point found.
 Normal termination of Gaussian 16 at Sat Dec 12 17:00:22 2020.

 --------------------------------------------------------------------
 #N Geom=AllCheck Guess=TCheck SCRF=Check GenChk RB3LYP/6-31G(d) Freq
 --------------------------------------------------------------------

 Structure from the checkpoint file:  "JID_10621.chk"
 --------------------------------
 CID_110718472_JID_10621_neutraal
 --------------------------------
 Charge =  0 Multiplicity = 1

 SCF Done:  E(RB3LYP) =  -1600.68696274     A.U. after    1 cycles

  Exact polarizability: 257.392   2.717 193.283 -10.145  -1.432 133.494
 Approx polarizability: 340.609  18.076 330.898 -27.140  -7.060 232.675

                      1                      2                      3
                      A                      A                      A
 Frequencies --     10.1885                19.2846                25.1835
 Red. masses --      6.5577                 4.5062                 3.0061
 Frc consts  --      0.0004                 0.0010                 0.0011
 IR Inten    --      0.9165                 0.1807                 0.4676

                      4                      5                      6
                      A                      A                      A
 Frequencies --     26.2724                40.4406                64.8771
 Red. masses --      1.2303                 4.9383                 6.7343
 Frc consts  --      0.0005                 0.0048                 0.0167
 IR Inten    --      0.1289                 1.5435                 0.5543

                      7                      8                      9
                      A                      A                      A
 Frequencies --     82.9379                89.7415               115.0229
 Red. masses --      3.0277                 1.2242                 4.0068
 Frc consts  --      0.0123                 0.0058                 0.0312
 IR Inten    --      0.5807                 0.2691                 0.9271

                     10                     11                     12
                      A                      A                      A
 Frequencies --    143.4000               147.1482               198.7495
 Red. masses --      1.8251                 2.0958                 4.7190
 Frc consts  --      0.0221                 0.0267                 0.1098
 IR Inten    --      0.8402                 1.0347                 3.8960

                     13                     14                     15
                      A                      A                      A
 Frequencies --    207.0143               213.8900               235.6402
 Red. masses --      2.3171                 4.7303                 3.9848
 Frc consts  --      0.0585                 0.1275                 0.1304
 IR Inten    --      1.2255                 0.4416                 5.6253

                     16                     17                     18
                      A                      A                      A
 Frequencies --    269.0963               276.3797               303.1575
 Red. masses --      4.2239                 4.6675                 3.4336
 Frc consts  --      0.1802                 0.2101                 0.1859
 IR Inten    --      1.8359                 1.9653                 1.3667

                     19                     20                     21
                      A                      A                      A
 Frequencies --    313.2162               350.1203               361.8226
 Red. masses --      2.8970                 3.8857                 3.0780
 Frc consts  --      0.1675                 0.2806                 0.2374
 IR Inten    --      3.3131                 6.8060                 2.7522

                     22                     23                     24
                      A                      A                      A
 Frequencies --    375.7107               417.3129               426.8888
 Red. masses --      3.4755                 3.3375                 3.6612
 Frc consts  --      0.2890                 0.3425                 0.3931
 IR Inten    --      8.8857                 6.1419                 9.9259

                     25                     26                     27
                      A                      A                      A
 Frequencies --    461.8343               484.2603               487.3794
 Red. masses --      3.4234                 3.3881                 3.5500
 Frc consts  --      0.4302                 0.4681                 0.4968
 IR Inten    --      4.2375                12.1118                 9.6536

                     28                     29                     30
                      A                      A                      A
 Frequencies --    523.3643               546.9874               557.2108
 Red. masses --      6.1149                 6.3627                 4.4360
 Frc consts  --      0.9868                 1.1216                 0.8115
 IR Inten    --      7.0743                63.3541                 3.3608

                     31                     32                     33
                      A                      A                      A
 Frequencies --    569.5776               576.9957               612.5500
 Red. masses --      3.7877                 4.2488                 2.9431
 Frc consts  --      0.7240                 0.8334                 0.6506
 IR Inten    --      6.4576                19.6636                52.6196

                     34                     35                     36
                      A                      A                      A
 Frequencies --    636.9472               654.5133               673.2225
 Red. masses --      4.7669                 3.7097                 4.2946
 Frc consts  --      1.1394                 0.9363                 1.1468
 IR Inten    --     19.9697                29.4092                19.2134

                     37                     38                     39
                      A                      A                      A
 Frequencies --    703.4913               719.0004               743.0800
 Red. masses --      6.5893                 4.0161                 5.0369
 Frc consts  --      1.9213                 1.2232                 1.6387
 IR Inten    --     11.0522                 1.5580                11.4837

                     40                     41                     42
                      A                      A                      A
 Frequencies --    784.6751               801.2417               832.6540
 Red. masses --      1.8998                 1.3875                 3.9316
 Frc consts  --      0.6892                 0.5248                 1.6060
 IR Inten    --    174.8215                27.4337                19.1366

                     43                     44                     45
                      A                      A                      A
 Frequencies --    837.9254               891.0569               901.5444
 Red. masses --      1.3195                 2.9844                 1.2784
 Frc consts  --      0.5459                 1.3961                 0.6122
 IR Inten    --     24.3706               148.0538                 1.8927

                     46                     47                     48
                      A                      A                      A
 Frequencies --    922.8211               950.2933               970.9139
 Red. masses --      3.1135                 3.1782                 1.3168
 Frc consts  --      1.5622                 1.6910                 0.7314
 IR Inten    --      0.6302                24.5939                 0.2763

                     49                     50                     51
                      A                      A                      A
 Frequencies --    972.4066              1015.2967              1020.9228
 Red. masses --      2.1249                 1.6072                 1.5063
 Frc consts  --      1.1838                 0.9761                 0.9250
 IR Inten    --     30.3260                 7.2039                 3.7046

                     52                     53                     54
                      A                      A                      A
 Frequencies --   1056.0284              1070.1240              1074.5385
 Red. masses --      1.5049                 4.6064                 1.5159
 Frc consts  --      0.9888                 3.1080                 1.0313
 IR Inten    --      2.2582                22.4179                 3.8486

                     55                     56                     57
                      A                      A                      A
 Frequencies --   1076.5026              1077.9702              1100.5549
 Red. masses --      1.6882                 1.4970                 2.6296
 Frc consts  --      1.1527                 1.0249                 1.8765
 IR Inten    --     12.0066                 2.6013                67.2292

                     58                     59                     60
                      A                      A                      A
 Frequencies --   1108.0396              1119.4534              1183.8498
 Red. masses --      3.9196                 6.6470                 2.0482
 Frc consts  --      2.8353                 4.9078                 1.6913
 IR Inten    --     28.3572               129.5691                 1.1017

                     61                     62                     63
                      A                      A                      A
 Frequencies --   1186.0616              1200.4075              1247.2998
 Red. masses --      1.9135                 1.6812                 1.3253
 Frc consts  --      1.5860                 1.4274                 1.2148
 IR Inten    --      4.9189                13.2833                 8.7741

                     64                     65                     66
                      A                      A                      A
 Frequencies --   1270.1330              1272.2890              1280.4049
 Red. masses --      1.5208                 2.1390                 1.6272
 Frc consts  --      1.4455                 2.0400                 1.5718
 IR Inten    --     18.4423                 8.0194                 3.1216

                     67                     68                     69
                      A                      A                      A
 Frequencies --   1313.0038              1322.1304              1350.0788
 Red. masses --      3.9590                 1.4983                 7.4664
 Frc consts  --      4.0213                 1.5431                 8.0182
 IR Inten    --    143.9395                 3.1778                 0.6227

                     70                     71                     72
                      A                      A                      A
 Frequencies --   1356.3986              1384.1793              1401.6791
 Red. masses --      2.5890                 1.5885                 1.2267
 Frc consts  --      2.8065                 1.7932                 1.4200
 IR Inten    --      2.5940                 9.0389                16.7064

                     73                     74                     75
                      A                      A                      A
 Frequencies --   1441.4009              1442.1210              1446.1291
 Red. masses --      1.3170                 1.3282                 1.2543
 Frc consts  --      1.6121                 1.6275                 1.5454
 IR Inten    --      1.3909                 5.5648                 4.2173

                     76                     77                     78
                      A                      A                      A
 Frequencies --   1450.4470              1458.6044              1495.3511
 Red. masses --      2.2600                 1.3240                 4.5217
 Frc consts  --      2.8013                 1.6596                 5.9571
 IR Inten    --      7.6712                44.2595                28.1672

                     79                     80                     81
                      A                      A                      A
 Frequencies --   1505.7796              1507.7456              1508.8360
 Red. masses --      1.1430                 1.2101                 1.1469
 Frc consts  --      1.5269                 1.6207                 1.5383
 IR Inten    --     13.4524                 7.5014                11.7530

                     82                     83                     84
                      A                      A                      A
 Frequencies --   1511.5766              1515.2459              1515.9099
 Red. masses --      1.1352                 1.2523                 1.1827
 Frc consts  --      1.5283                 1.6941                 1.6014
 IR Inten    --      8.0990                 0.9125                10.6330

                     85                     86                     87
                      A                      A                      A
 Frequencies --   1523.3680              1525.1731              1540.6972
 Red. masses --      1.1373                 1.1055                 1.2670
 Frc consts  --      1.5550                 1.5151                 1.7720
 IR Inten    --     17.7894                10.2064                23.3729

                     88                     89                     90
                      A                      A                      A
 Frequencies --   1602.3233              1630.0186              1663.6297
 Red. masses --      5.2978                 5.7925                 5.7187
 Frc consts  --      8.0139                 9.0677                 9.3253
 IR Inten    --     22.3330                 9.0430                21.1607

                     91                     92                     93
                      A                      A                      A
 Frequencies --   3047.4427              3054.4485              3065.5857
 Red. masses --      1.0385                 1.0387                 1.0665
 Frc consts  --      5.6825                 5.7095                 5.9051
 IR Inten    --     27.9411                18.4176                14.6771

                     94                     95                     96
                      A                      A                      A
 Frequencies --   3066.6179              3073.2635              3102.7490
 Red. masses --      1.0353                 1.0658                 1.0989
 Frc consts  --      5.7362                 5.9308                 6.2332
 IR Inten    --     12.3162                28.9265                16.9370

                     97                     98                     99
                      A                      A                      A
 Frequencies --   3110.4839              3130.1056              3131.9220
 Red. masses --      1.0992                 1.0963                 1.1018
 Frc consts  --      6.2660                 6.3283                 6.3678
 IR Inten    --     14.1062                 3.7915                14.6566

                    100                    101                    102
                      A                      A                      A
 Frequencies --   3132.1160              3140.1520              3142.6970
 Red. masses --      1.1008                 1.1013                 1.1013
 Frc consts  --      6.3624                 6.3984                 6.4087
 IR Inten    --      3.2444                23.2920                10.3989

                    103                    104                    105
                      A                      A                      A
 Frequencies --   3143.7892              3177.4792              3192.5663
 Red. masses --      1.1038                 1.0899                 1.0899
 Frc consts  --      6.4275                 6.4832                 6.5453
 IR Inten    --     15.0639                19.8909                14.3201

                    106                    107                    108
                      A                      A                      A
 Frequencies --   3239.2385              3243.5577              3536.0367
 Red. masses --      1.0914                 1.0938                 1.0748
 Frc consts  --      6.7469                 6.7801                 7.9183
 IR Inten    --      2.6466                 1.8571                55.6642

 - Thermochemistry -
 -------------------
 Temperature   298.150 Kelvin.  Pressure   1.00000 Atm.
 Atom     1 has atomic number  6 and mass  12.00000

 Molecular mass:   310.08097 amu.
 Principal axes and moments of inertia in atomic units:
                           1         2         3
     Eigenvalues --  2455.83293********************
           X            0.99997   0.00650   0.00483
           Y           -0.00650   0.99998  -0.00053
           Z           -0.00484   0.00050   0.99999
 This molecule is an asymmetric top.
 Rotational symmetry number  1.
 Warning -- assumption of classical behavior for rotation
           may cause significant error
 Rotational temperatures (Kelvin)      0.03527     0.00637     0.00589
 Rotational constants (GHZ):           0.73488     0.13272     0.12268
 Zero-point vibrational energy     801685.8 (Joules/Mol)
                                  191.60750 (Kcal/Mol)
 Warning -- explicit consideration of  33 degrees of freedom as
           vibrations may cause significant error
 Vibrational temperatures:     14.66    27.75    36.23    37.80    58.19
          (Kelvin)             93.34   119.33   129.12   165.49   206.32
                              211.71   285.96   297.85   307.74   339.03
                              387.17   397.65   436.18   450.65   503.75
                              520.58   540.56   600.42   614.20   664.48
                              696.74   701.23   753.00   786.99   801.70
                              819.50   830.17   881.32   916.42   941.70
                              968.62  1012.17  1034.48  1069.13  1128.97
                             1152.81  1198.00  1205.59  1282.03  1297.12
                             1327.73  1367.26  1396.93  1399.08  1460.79
                             1468.88  1519.39  1539.67  1546.02  1548.85
                             1550.96  1583.45  1594.22  1610.64  1703.30
                             1706.48  1727.12  1794.59  1827.44  1830.54
                             1842.22  1889.12  1902.25  1942.46  1951.56
                             1991.53  2016.70  2073.85  2074.89  2080.66
                             2086.87  2098.61  2151.48  2166.48  2169.31
                             2170.88  2174.82  2180.10  2181.06  2191.79
                             2194.38  2216.72  2305.39  2345.23  2393.59
                             4384.59  4394.67  4410.69  4412.18  4421.74
                             4464.16  4475.29  4503.52  4506.14  4506.42
                             4517.98  4521.64  4523.21  4571.68  4593.39
                             4660.54  4666.76  5087.57

 Zero-point correction=                           0.305346 (Hartree/Particle)
 Thermal correction to Energy=                    0.326104
 Thermal correction to Enthalpy=                  0.327049
 Thermal correction to Gibbs Free Energy=         0.251336
 Sum of electronic and zero-point Energies=          -1600.381617
 Sum of electronic and thermal Energies=             -1600.360858
 Sum of electronic and thermal Enthalpies=           -1600.359914
 Sum of electronic and thermal Free Energies=        -1600.435627

                     E (Thermal)             CV                S
                      KCal/Mol        Cal/Mol-Kelvin    Cal/Mol-Kelvin
 Total                  204.634             76.377            159.351
 Electronic               0.000              0.000              0.000
 Translational            0.889              2.981             43.091
 Rotational               0.889              2.981             34.551
 Vibrational            202.856             70.416             81.708
 Vibration     1          0.593              1.987              7.974
 Vibration     2          0.593              1.986              6.707
 Vibration     3          0.593              1.985              6.177
 Vibration     4          0.593              1.985              6.093
 Vibration     5          0.594              1.981              5.237
 Vibration     6          0.597              1.971              4.303
 Vibration     7          0.600              1.961              3.820
 Vibration     8          0.602              1.956              3.666
 Vibration     9          0.608              1.937              3.182
 Vibration    10          0.616              1.910              2.758
 Vibration    11          0.617              1.906              2.709
 Vibration    12          0.637              1.842              2.145
 Vibration    13          0.641              1.830              2.070
 Vibration    14          0.644              1.820              2.010
 Vibration    15          0.655              1.786              1.836
 Vibration    16          0.673              1.730              1.602
 Vibration    17          0.678              1.717              1.556
 Vibration    18          0.695              1.668              1.399
 Vibration    19          0.701              1.648              1.345
 Vibration    20          0.727              1.575              1.166
 Vibration    21          0.736              1.551              1.114
 Vibration    22          0.747              1.522              1.056
 Vibration    23          0.780              1.433              0.901
 Vibration    24          0.789              1.412              0.869
 Vibration    25          0.820              1.335              0.761
 Vibration    26          0.840              1.285              0.699
 Vibration    27          0.843              1.278              0.690
 Vibration    28          0.878              1.198              0.602
 Vibration    29          0.902              1.146              0.550
 Vibration    30          0.913              1.124              0.529
 Vibration    31          0.926              1.097              0.505
 Vibration    32          0.933              1.081              0.491
 Vibration    33          0.972              1.005              0.429

 Optimization completed.
    -- Stationary point found.
 Normal termination of Gaussian 16 at Sat Dec 12 17:20:39 2020.

 ----------------------------------------------------------------------
 # B3LYP/6-311++G(d,p) empiricaldispersion=gd3bj scf=xqc pop=npa geom=c
 heck
 ----------------------------------------------------------------------

 ----------------------------------------
 CID_110718472_JID_10621_Energie_neutraal
 ----------------------------------------
 Structure from the checkpoint file:  "JID_10621.chk"
 Charge =  0 Multiplicity = 1

 SCF Done:  E(RB3LYP) =  -1600.95804627     A.U. after   17 cycles
 Normal termination of Gaussian 16 at Sat Dec 12 17:31:15 2020.

 ----------------------------------------------------------------------
 # B3LYP/6-311++G(d,p) empiricaldispersion=gd3bj scf=xqc pop=npa geom=c
 heck
 ----------------------------------------------------------------------

 --------------------------------------
 CID_110718472_JID_10621_Energie_kation
 --------------------------------------
 Structure from the checkpoint file:  "JID_10621.chk"
 Charge =  1 Multiplicity = 2

 SCF Done:  E(UB3LYP) =  -1600.65649613     A.U. after   33 cycles
 SCF Done:  E(UB3LYP) =  -1600.65649613     a.u. after    1 cycles
 Normal termination of Gaussian 16 at Sat Dec 12 18:00:35 2020.
 Gaussian 16:  ES64L-G16RevA.03 25-Dec-2016

 ----------------------------------------------------------------------
 # B3LYP/6-311++G(d,p) empiricaldispersion=gd3bj scf=xqc pop=npa geom=c
 heck
 ----------------------------------------------------------------------

 -------------------------------------
 CID_110718472_JID_10621_Energie_anion
 -------------------------------------
 Structure from the checkpoint file:  "JID_10621.chk"
 Charge = -1 Multiplicity = 2

                         Standard orientation:
 ---------------------------------------------------------------------
 Center     Atomic      Atomic             Coordinates (Angstroms)
 Number     Number       Type             X           Y           Z
 ---------------------------------------------------------------------
      1          6           0       -6.228323    1.568191   -0.547365
      2          6           0       -4.837721    1.003976   -0.396979
      3          6           0       -4.652320   -0.318887    0.026871
      4          6           0       -3.390205   -0.887245    0.201744
      5          6           0       -2.275944   -0.067608   -0.071437
      6          6           0       -2.429652    1.247137   -0.503934
      7          6           0       -3.707988    1.779439   -0.663014
      8         16           0       -0.636076   -0.762755    0.133423
      9          8           0       -0.490770   -1.138183    1.548344
     10          8           0       -0.396659   -1.751999   -0.925484
     11          7           0        0.386279    0.532734   -0.201056
     12          6           0        1.074615    1.190914    0.914833
     13          6           0        2.281412    0.411551    1.475322
     14          6           0        3.337126    0.148918    0.441544
     15          6           0        4.374011    0.954999    0.036235
     16          7           0        5.159296    0.448261   -0.984457
     17          6           0        4.735642   -0.719322   -1.365724
     18         16           0        3.335118   -1.317444   -0.514961
     19          6           0        4.716232    2.305794    0.592035
     20          6           0       -3.257977   -2.318109    0.660388
     21          1           0       -6.876083    0.886270   -1.109577
     22          1           0       -6.697609    1.724932    0.432120
     23          1           0       -6.215180    2.530612   -1.067369
     24          1           0       -5.526104   -0.934742    0.227901
     25          1           0       -1.549590    1.840654   -0.718549
     26          1           0       -3.823066    2.805619   -1.001080
     27          1           0        0.993280    0.266512   -0.973501
     28          1           0        1.398482    2.171195    0.548669
     29          1           0        0.341263    1.355927    1.707621
     30          1           0        2.714624    0.998100    2.294241
     31          1           0        1.916937   -0.523347    1.908183
     32          1           0        5.197997   -1.304579   -2.152092
     33          1           0        5.774674    2.344993    0.870393
     34          1           0        4.550472    3.088291   -0.158148
     35          1           0        4.116548    2.547751    1.473456
     36          1           0       -2.768015   -2.371749    1.637385
     37          1           0       -4.242025   -2.788616    0.733362
     38          1           0       -2.644306   -2.898611   -0.035813
 ---------------------------------------------------------------------

 SCF Done:  E(UB3LYP) =  -1600.95460892     A.U. after   33 cycles
 SCF Done:  E(UB3LYP) =  -1600.95460892     a.u. after    1 cycles

 The electronic state is 2-A.
 Alpha  occ. eigenvalues --  -88.95302 -88.77097 -19.00571 -19.00553 -14.23801
 Alpha  occ. eigenvalues --  -14.20579 -10.11866 -10.11505 -10.10133 -10.09676
 Alpha  occ. eigenvalues --  -10.08676 -10.08541 -10.08422 -10.07638 -10.07492
 Alpha  occ. eigenvalues --  -10.07217 -10.07103 -10.06757 -10.06622 -10.06561
 Alpha  occ. eigenvalues --   -8.01439  -7.85757  -5.97770  -5.97678  -5.97495
 Alpha  occ. eigenvalues --   -5.82018  -5.81669  -5.81389  -1.00867  -0.89792
 Alpha  occ. eigenvalues --   -0.85660  -0.82536  -0.76402  -0.71242  -0.69019
 Alpha  occ. eigenvalues --   -0.67874  -0.66770  -0.64775  -0.60943  -0.59155
 Alpha  occ. eigenvalues --   -0.58327  -0.55393  -0.52697  -0.50386  -0.48171
 Alpha  occ. eigenvalues --   -0.46984  -0.43784  -0.43087  -0.40444  -0.39687
 Alpha  occ. eigenvalues --   -0.37930  -0.36408  -0.35835  -0.35370  -0.34901
 Alpha  occ. eigenvalues --   -0.33725  -0.33304  -0.33015  -0.32641  -0.32130
 Alpha  occ. eigenvalues --   -0.31906  -0.31402  -0.30322  -0.29264  -0.28656
 Alpha  occ. eigenvalues --   -0.28527  -0.28029  -0.27046  -0.26112  -0.25410
 Alpha  occ. eigenvalues --   -0.24718  -0.24395  -0.23885  -0.21843  -0.20421
 Alpha  occ. eigenvalues --   -0.19816  -0.17817  -0.17297  -0.17039  -0.15219
 Alpha  occ. eigenvalues --   -0.14445  -0.13544   0.04193
 Alpha virt. eigenvalues --    0.05867   0.06314   0.06702   0.07809   0.08077
 Alpha virt. eigenvalues --    0.08344   0.08482   0.08779   0.09387   0.10141
 Alpha virt. eigenvalues --    0.10279   0.10451   0.11404   0.11571   0.11980

  Beta  occ. eigenvalues --  -88.95299 -88.77073 -19.00538 -19.00504 -14.23804
  Beta  occ. eigenvalues --  -14.20552 -10.11687 -10.11469 -10.10114 -10.09576
  Beta  occ. eigenvalues --  -10.08597 -10.08421 -10.08385 -10.07651 -10.07472
  Beta  occ. eigenvalues --  -10.07147 -10.06846 -10.06779 -10.06631 -10.06568
  Beta  occ. eigenvalues --   -8.01436  -7.85736  -5.97768  -5.97661  -5.97498
  Beta  occ. eigenvalues --   -5.82009  -5.81661  -5.81309  -1.00783  -0.89691
  Beta  occ. eigenvalues --   -0.85513  -0.82508  -0.76157  -0.71107  -0.68720
  Beta  occ. eigenvalues --   -0.67743  -0.66593  -0.64697  -0.60797  -0.59104
  Beta  occ. eigenvalues --   -0.58183  -0.55288  -0.52556  -0.50296  -0.47980
  Beta  occ. eigenvalues --   -0.46764  -0.43688  -0.42995  -0.40374  -0.39607
  Beta  occ. eigenvalues --   -0.37827  -0.36327  -0.35685  -0.35258  -0.34763
  Beta  occ. eigenvalues --   -0.33605  -0.33105  -0.32821  -0.32572  -0.32046
  Beta  occ. eigenvalues --   -0.31751  -0.31350  -0.30297  -0.29203  -0.28498
  Beta  occ. eigenvalues --   -0.28448  -0.27766  -0.26962  -0.25994  -0.24956
  Beta  occ. eigenvalues --   -0.24624  -0.24310  -0.23781  -0.21721  -0.20282
  Beta  occ. eigenvalues --   -0.19668  -0.17506  -0.17168  -0.16950  -0.14712
  Beta  occ. eigenvalues --   -0.13540  -0.12958
  Beta virt. eigenvalues --    0.06227   0.06613   0.07707   0.07825   0.07919
  Beta virt. eigenvalues --    0.08090   0.08440   0.08653   0.09093   0.09531
  Beta virt. eigenvalues --    0.10184   0.10387   0.10451   0.11406   0.11556

 Mulliken charges and spin densities:
               1          2
     1  C    0.161920  -0.485638
     2  C    0.417391   0.276811
     3  C   -0.428529   0.225318
     4  C    0.302371   0.152212
     5  C   -0.176928  -0.099181
     6  C    0.086079  -0.117194
     7  C   -1.426345   0.099923
     8  S    0.530380  -0.334443
     9  O   -0.093791  -0.008801
    10  O   -0.094799  -0.007243
    11  N   -0.297968   0.010605
    12  C   -0.253557  -0.123138
    13  C    0.576128  -0.446515
    14  C    0.831497   0.418119
    15  C   -1.583286   0.223694
    16  N   -0.011001   0.030756
    17  C    0.014469   0.202568
    18  S   -0.386970   0.073344
    19  C    0.214676  -1.094828
    20  C   -0.594188   0.079532
    21  H   -0.019609   0.163818
    22  H    0.177975  -0.021246
    23  H   -0.010698   0.149090
    24  H    0.070096   0.025440
    25  H    0.102498   0.130485
    26  H   -0.029422   0.157568
    27  H    0.255793   0.033549
    28  H   -0.038021   0.218992
    29  H    0.033132   0.155484
    30  H   -0.048307   0.263230
    31  H    0.153896   0.059714
    32  H    0.224468  -0.003269
    33  H    0.054545   0.089991
    34  H   -0.030906   0.201499
    35  H   -0.150066   0.246042
    36  H    0.151971   0.038406
    37  H    0.125150   0.023177
    38  H    0.189956  -0.007870
 Sum of Mulliken charges =  -1.00000   1.00000

 Dipole moment (field-independent basis, Debye):
    X=             -1.4085    Y=             -0.8513    Z=              0.6990  Tot=              1.7881
 Quadrupole moment (field-independent basis, Debye-Ang):
   XX=           -220.4939   YY=           -163.1715   ZZ=           -158.1685
   XY=             -4.7567   XZ=             -5.0919   YZ=              1.4980

 Summary of Natural Population Analysis:

                                       Natural Population
                Natural  -----------------------------------------------
    Atom  No    Charge         Core      Valence    Rydberg      Total
 -----------------------------------------------------------------------
      C    1   -0.29328      0.99964     2.28895    0.00469     3.29328
      C    2    0.03253      0.99952     1.95781    0.01014     2.96747
      C    3   -0.11052      0.99948     2.10305    0.00799     3.11052
      C    4    0.00953      0.99948     1.98274    0.00826     2.99047
      C    5   -0.11369      0.99931     2.09937    0.01501     3.11369
      C    6   -0.07997      0.99952     2.07020    0.01026     3.07997
      C    7   -0.11336      0.99952     2.10472    0.00912     3.11336
      S    8    1.10563      4.99918     1.79489    0.10030     6.89437
      O    9   -0.46699      0.99991     3.46149    0.00559     4.46699
      O   10   -0.46445      0.99991     3.45953    0.00502     4.46445
      N   11   -0.44558      0.99976     2.93342    0.01241     3.94558
      C   12   -0.08643      0.99961     2.07383    0.01300     3.08643
      C   13   -0.21975      0.99957     2.20932    0.01086     3.21975
      C   14   -0.10174      0.99942     2.08935    0.01298     3.10174
      C   15    0.05609      0.99942     1.92964    0.01485     2.94391
      N   16   -0.24434      0.99967     2.73361    0.01106     3.74434
      C   17   -0.02901      0.99966     2.01293    0.01642     3.02901
      S   18    0.19622      4.99943     2.78472    0.01964     7.80378
      C   19   -0.29497      0.99963     2.28913    0.00620     3.29497
      C   20   -0.30284      0.99964     2.29837    0.00484     3.30284
      H   21    0.10254      0.00000     0.39606    0.00140     0.39746
      H   22    0.10169      0.00000     0.39730    0.00101     0.39831
      H   23    0.09983      0.00000     0.39927    0.00090     0.40017
      H   24    0.09381      0.00000     0.40512    0.00107     0.40619
      H   25    0.11151      0.00000     0.38739    0.00110     0.38849
      H   26    0.09667      0.00000     0.40246    0.00087     0.40333
      H   27    0.20233      0.00000     0.29545    0.00222     0.29767
      H   28    0.09787      0.00000     0.40091    0.00122     0.40213
      H   29    0.10611      0.00000     0.39270    0.00119     0.39389
      H   30    0.10788      0.00000     0.39090    0.00122     0.39212
      H   31    0.11816      0.00000     0.38047    0.00137     0.38184
      H   32    0.09270      0.00000     0.40629    0.00101     0.40730
      H   33    0.10435      0.00000     0.39459    0.00106     0.39565
      H   34    0.10599      0.00000     0.39269    0.00133     0.39401
      H   35    0.10150      0.00000     0.39756    0.00094     0.39850
      H   36    0.11467      0.00000     0.38400    0.00133     0.38533
      H   37    0.09638      0.00000     0.40272    0.00091     0.40362
      H   38    0.11294      0.00000     0.38584    0.00123     0.38706
 =======================================================================
   * Total *   -0.00000     27.99126    53.68877    0.31997    82.00000

 Normal termination of Gaussian 16 at Sat Dec 12 18:30:03 2020.
