 Gaussian 16, Revision A.03,

 -----------------------------------------------------------
 # opt freq B3LYP/6-31G(d) empiricaldispersion=gd3bj scf=xqc
 -----------------------------------------------------------

 ------------------------------
 CID_136934794_JID_207_neutraal
 ------------------------------
 Symbolic Z-matrix:
 Charge =  0 Multiplicity = 1

 SCF Done:  E(RB3LYP) =  -421.606372216     A.U. after   14 cycles
 SCF Done:  E(RB3LYP) =  -421.609237631     A.U. after   13 cycles
 SCF Done:  E(RB3LYP) =  -421.609789455     A.U. after   12 cycles
 SCF Done:  E(RB3LYP) =  -421.610038757     A.U. after   12 cycles
 SCF Done:  E(RB3LYP) =  -421.610204057     A.U. after   11 cycles
 SCF Done:  E(RB3LYP) =  -421.610390469     A.U. after   12 cycles
 SCF Done:  E(RB3LYP) =  -421.610504262     A.U. after   12 cycles
 SCF Done:  E(RB3LYP) =  -421.610717786     A.U. after   11 cycles
 SCF Done:  E(RB3LYP) =  -421.610816600     A.U. after   11 cycles
 SCF Done:  E(RB3LYP) =  -421.610835647     A.U. after   10 cycles
 SCF Done:  E(RB3LYP) =  -421.610863701     A.U. after   10 cycles
 SCF Done:  E(RB3LYP) =  -421.610864768     A.U. after    9 cycles
 SCF Done:  E(RB3LYP) =  -421.610864987     A.U. after    8 cycles
 SCF Done:  E(RB3LYP) =  -421.610865034     A.U. after    6 cycles
 SCF Done:  E(RB3LYP) =  -421.610865075     A.U. after    7 cycles
 Optimization completed.
    -- Stationary point found.

 1\1\GINC-NODE202\FOpt\RB3LYP\6-31G(d)\C8H12N2\VSC10255\08-Dec-2020\0\\
 # opt freq B3LYP/6-31G(d) empiricaldispersion=gd3bj scf=xqc\\CID_13693
 4794_JID_207_neutraal\\0,1\C,2.5643933261,0.5041505894,-0.1310520515\C
 ,1.1070017349,0.1798476046,-0.0967980225\C,-0.0079826479,1.0001853181,
 -0.1521727226\C,-1.171163134,0.1918235056,-0.0825617329\C,-0.743464979
 5,-1.1366485277,0.0162881424\N,0.6468402118,-1.1036897338,0.0044711859
 \C,-1.4686494697,-2.4003679304,0.1175817507\N,-2.7476804522,-2.5440944
 382,0.1369782254\C,-0.6378329121,-3.6652562134,0.2089231584\C,-2.58151

 Normal termination of Gaussian 16 at Tue Dec  8 10:22:46 2020.

 --------------------------------------------------------------------
 #N Geom=AllCheck Guess=TCheck SCRF=Check GenChk RB3LYP/6-31G(d) Freq
 --------------------------------------------------------------------

 Structure from the checkpoint file:  "JID_207.chk"
 ------------------------------
 CID_136934794_JID_207_neutraal
 ------------------------------
 Charge =  0 Multiplicity = 1

 SCF Done:  E(RB3LYP) =  -421.610865075     A.U. after    1 cycles

  Exact polarizability: 134.776   3.751 106.848  -0.001   0.001  52.499
 Approx polarizability: 211.467   8.248 159.112  -0.004   0.003  78.241

                      1                      2                      3
                      A                      A                      A
 Frequencies --     27.1556                84.0736               138.1350
 Red. masses --      2.6301                 1.0464                 3.7350
 Frc consts  --      0.0011                 0.0044                 0.0420
 IR Inten    --      0.0522                 0.0694                 0.0120

                      4                      5                      6
                      A                      A                      A
 Frequencies --    185.7001               201.7508               209.0076
 Red. masses --      3.3232                 1.5103                 1.6319
 Frc consts  --      0.0675                 0.0362                 0.0420
 IR Inten    --      0.5175                 5.8642                 0.2118

                      7                      8                      9
                      A                      A                      A
 Frequencies --    220.9451               265.7112               314.8225
 Red. masses --      1.0835                 2.6871                 4.3081
 Frc consts  --      0.0312                 0.1118                 0.2516
 IR Inten    --      0.0000                 0.1945                 0.9933

                     10                     11                     12
                      A                      A                      A
 Frequencies --    348.0751               411.9784               475.8184
 Red. masses --      2.8853                 3.9228                 1.3358
 Frc consts  --      0.2060                 0.3923                 0.1782
 IR Inten    --      1.2261                 3.8806                50.0062

                     13                     14                     15
                      A                      A                      A
 Frequencies --    509.9793               536.1990               591.5545
 Red. masses --      3.0589                 2.3797                 3.9917
 Frc consts  --      0.4687                 0.4031                 0.8230
 IR Inten    --      4.1756                 5.7936                 1.6859

                     16                     17                     18
                      A                      A                      A
 Frequencies --    638.6073               653.4613               685.7079
 Red. masses --      3.7491                 2.9512                 3.4724
 Frc consts  --      0.9008                 0.7425                 0.9620
 IR Inten    --     14.3844                 8.0523                 6.8105

                     19                     20                     21
                      A                      A                      A
 Frequencies --    773.3075               814.5461               898.8071
 Red. masses --      3.6767                 1.2521                 1.3978
 Frc consts  --      1.2954                 0.4895                 0.6653
 IR Inten    --      1.8496                21.0046                63.9233

                     22                     23                     24
                      A                      A                      A
 Frequencies --    963.5172              1009.1139              1016.1770
 Red. masses --      2.4108                 1.4659                 1.4025
 Frc consts  --      1.3187                 0.8795                 0.8533
 IR Inten    --     16.3309                 2.5855                 2.4895

                     25                     26                     27
                      A                      A                      A
 Frequencies --   1039.6863              1072.3311              1075.3056
 Red. masses --      5.0128                 1.4572                 1.4446
 Frc consts  --      3.1926                 0.9873                 0.9842
 IR Inten    --      1.0139                 1.8690                 3.0569

                     28                     29                     30
                      A                      A                      A
 Frequencies --   1076.8918              1085.9102              1186.9375
 Red. masses --      1.6522                 1.4621                 1.6847
 Frc consts  --      1.1289                 1.0158                 1.3983
 IR Inten    --     14.3720                 1.8148                17.0720

                     31                     32                     33
                      A                      A                      A
 Frequencies --   1198.0473              1256.6306              1336.2691
 Red. masses --      2.1180                 1.7512                 3.7454
 Frc consts  --      1.7911                 1.6293                 3.9404
 IR Inten    --      6.4094                20.7751                67.1259

                     34                     35                     36
                      A                      A                      A
 Frequencies --   1376.3911              1423.7484              1442.4264
 Red. masses --      1.7449                 1.4515                 1.4058
 Frc consts  --      1.9477                 1.7336                 1.7232
 IR Inten    --     77.8994                20.7563                21.9985

                     37                     38                     39
                      A                      A                      A
 Frequencies --   1444.1168              1459.1165              1489.6381
 Red. masses --      1.2929                 2.4404                 3.0280
 Frc consts  --      1.5887                 3.0612                 3.9589
 IR Inten    --     12.8408                 9.9420                19.7994

                     40                     41                     42
                      A                      A                      A
 Frequencies --   1511.3010              1511.8702              1518.3697
 Red. masses --      1.0427                 1.1392                 1.0459
 Frc consts  --      1.4032                 1.5342                 1.4207
 IR Inten    --      5.9571                34.0123                10.2244

                     43                     44                     45
                      A                      A                      A
 Frequencies --   1520.9082              1530.0482              1538.3887
 Red. masses --      1.0436                 1.2561                 1.3705
 Frc consts  --      1.4223                 1.7325                 1.9110
 IR Inten    --      5.0120                 2.4240                15.8162

                     46                     47                     48
                      A                      A                      A
 Frequencies --   1544.6539              1638.6568              1686.5561
 Red. masses --      2.9037                 4.4070                 7.5822
 Frc consts  --      4.0820                 6.9722                12.7072
 IR Inten    --    108.9597                10.3344               122.3110

                     49                     50                     51
                      A                      A                      A
 Frequencies --   3031.6741              3033.5695              3036.4246
 Red. masses --      1.0388                 1.0401                 1.0406
 Frc consts  --      5.6256                 5.6396                 5.6527
 IR Inten    --     34.3163                38.9431                21.9251

                     52                     53                     54
                      A                      A                      A
 Frequencies --   3078.3970              3079.5358              3088.0646
 Red. masses --      1.1015                 1.1013                 1.1006
 Frc consts  --      6.1499                 6.1534                 6.1839
 IR Inten    --     20.4837                22.1072                23.4580

                     55                     56                     57
                      A                      A                      A
 Frequencies --   3117.2784              3139.5927              3169.1799
 Red. masses --      1.0984                 1.0969                 1.0973
 Frc consts  --      6.2890                 6.3705                 6.4936
 IR Inten    --     23.1389                10.9876                 7.0887

                     58                     59                     60
                      A                      A                      A
 Frequencies --   3246.9162              3478.5894              3666.0112
 Red. masses --      1.0958                 1.0727                 1.0794
 Frc consts  --      6.8068                 7.6474                 8.5475
 IR Inten    --      8.1212                 4.6339                46.6110

 - Thermochemistry -
 -------------------
 Temperature   298.150 Kelvin.  Pressure   1.00000 Atm.
 Atom     1 has atomic number  6 and mass  12.00000

 Molecular mass:   136.10005 amu.
 Principal axes and moments of inertia in atomic units:
                           1         2         3
     Eigenvalues --   895.792641696.007622557.92406
           X            0.99991   0.01348   0.00000
           Y           -0.01348   0.99991  -0.00000
           Z           -0.00000   0.00000   1.00000
 This molecule is an asymmetric top.
 Rotational symmetry number  1.
 Warning -- assumption of classical behavior for rotation
           may cause significant error
 Rotational temperatures (Kelvin)      0.09669     0.05107     0.03386
 Rotational constants (GHZ):           2.01469     1.06411     0.70555
 Zero-point vibrational energy     497069.8 (Joules/Mol)
                                  118.80254 (Kcal/Mol)
 Warning -- explicit consideration of  15 degrees of freedom as
           vibrations may cause significant error
 Vibrational temperatures:     39.07   120.96   198.75   267.18   290.27
          (Kelvin)            300.72   317.89   382.30   452.96   500.80
                              592.74   684.60   733.75   771.47   851.11
                              918.81   940.19   986.58  1112.62  1171.95
                             1293.18  1386.29  1451.89  1462.05  1495.88
                             1542.85  1547.12  1549.41  1562.38  1707.74
                             1723.72  1808.01  1922.59  1980.32  2048.46
                             2075.33  2077.76  2099.34  2143.26  2174.43
                             2175.24  2184.60  2188.25  2201.40  2213.40
                             2222.41  2357.66  2426.58  4361.90  4364.63
                             4368.74  4429.13  4430.77  4443.04  4485.07
                             4517.17  4559.74  4671.59  5004.91  5274.57

 Zero-point correction=                           0.189324 (Hartree/Particle)
 Thermal correction to Energy=                    0.200029
 Thermal correction to Enthalpy=                  0.200973
 Thermal correction to Gibbs Free Energy=         0.152761
 Sum of electronic and zero-point Energies=           -421.421541
 Sum of electronic and thermal Energies=              -421.410836
 Sum of electronic and thermal Enthalpies=            -421.409892
 Sum of electronic and thermal Free Energies=         -421.458104

                     E (Thermal)             CV                S
                      KCal/Mol        Cal/Mol-Kelvin    Cal/Mol-Kelvin
 Total                  125.520             39.391            101.471
 Electronic               0.000              0.000              0.000
 Translational            0.889              2.981             40.637
 Rotational               0.889              2.981             29.742
 Vibrational            123.743             33.429             31.092
 Vibration     1          0.593              1.984              6.027
 Vibration     2          0.601              1.960              3.793
 Vibration     3          0.614              1.915              2.830
 Vibration     4          0.632              1.859              2.270
 Vibration     5          0.639              1.837              2.117
 Vibration     6          0.642              1.827              2.052
 Vibration     7          0.648              1.809              1.951
 Vibration     8          0.672              1.736              1.624
 Vibration     9          0.702              1.645              1.337
 Vibration    10          0.726              1.579              1.175
 Vibration    11          0.776              1.444              0.920
 Vibration    12          0.832              1.304              0.721
 Vibration    13          0.865              1.228              0.634
 Vibration    14          0.891              1.170              0.574
 Vibration    15          0.949              1.050              0.464

 Optimization completed.
    -- Stationary point found.

 1\1\GINC-NODE202\Freq\RB3LYP\6-31G(d)\C8H12N2\VSC10255\08-Dec-2020\0\\
 #N Geom=AllCheck Guess=TCheck SCRF=Check GenChk RB3LYP/6-31G(d) Freq\\
 CID_136934794_JID_207_neutraal\\0,1\C,2.5643933261,0.5041505894,-0.131
 0520515\C,1.1070017349,0.1798476046,-0.0967980225\C,-0.0079826479,1.00
 01853181,-0.1521727226\C,-1.171163134,0.1918235056,-0.0825617329\C,-0.
 7434649795,-1.1366485277,0.0162881424\N,0.6468402118,-1.1036897338,0.0
 044711859\C,-1.4686494697,-2.4003679304,0.1175817507\N,-2.7476804522,-
 2.5440944382,0.1369782254\C,-0.6378329121,-3.6652562134,0.2089231584\C

 Normal termination of Gaussian 16 at Tue Dec  8 10:26:20 2020.

 ----------------------------------------------------------------------
 # B3LYP/6-311++G(d,p) empiricaldispersion=gd3bj scf=xqc pop=npa geom=c
 heck
 ----------------------------------------------------------------------

 --------------------------------------
 CID_136934794_JID_207_Energie_neutraal
 --------------------------------------
 Structure from the checkpoint file:  "JID_207.chk"
 Charge =  0 Multiplicity = 1

 SCF Done:  E(RB3LYP) =  -421.730397242     A.U. after   14 cycles
 Normal termination of Gaussian 16 at Tue Dec  8 10:27:47 2020.

 ----------------------------------------------------------------------
 # B3LYP/6-311++G(d,p) empiricaldispersion=gd3bj scf=xqc pop=npa geom=c
 heck
 ----------------------------------------------------------------------

 ------------------------------------
 CID_136934794_JID_207_Energie_kation
 ------------------------------------
 Structure from the checkpoint file:  "JID_207.chk"
 Charge =  1 Multiplicity = 2

 SCF Done:  E(UB3LYP) =  -421.450250207     A.U. after   21 cycles
 Normal termination of Gaussian 16 at Tue Dec  8 10:30:51 2020.
 Gaussian 16:  ES64L-G16RevA.03 25-Dec-2016

 -----------------------------------
 CID_136934794_JID_207_Energie_anion
 -----------------------------------
 Structure from the checkpoint file:  "JID_207.chk"
 Charge = -1 Multiplicity = 2

                         Standard orientation:
 ---------------------------------------------------------------------
 Center     Atomic      Atomic             Coordinates (Angstroms)
 Number     Number       Type             X           Y           Z
 ---------------------------------------------------------------------
      1          6           0       -3.191073   -0.961454   -0.000068
      2          6           0       -1.873744   -0.257905    0.000107
      3          6           0       -1.564858    1.092576    0.000123
      4          6           0       -0.153965    1.236332    0.000012
      5          6           0        0.390752   -0.052395   -0.000082
      6          7           0       -0.685129   -0.933675    0.000026
      7          6           0        1.767367   -0.540320    0.000049
      8          7           0        2.831318    0.184223    0.000095
      9          6           0        1.964794   -2.043505   -0.000062
     10          6           0        0.581336    2.544120   -0.000111
     11          1           0       -4.003342   -0.229945   -0.000106
     12          1           0       -3.317632   -1.598712   -0.885314
     13          1           0       -3.317873   -1.598862    0.885039
     14          1           0       -2.285292    1.900424    0.000177
     15          1           0       -0.596744   -1.937985    0.000159
     16          1           0        2.595123    1.178944    0.000122
     17          1           0        1.513975   -2.507440    0.887220
     18          1           0        1.514210   -2.507229   -0.887580
     19          1           0        3.034753   -2.255542    0.000058
     20          1           0        1.221641    2.659445   -0.884381
     21          1           0       -0.127058    3.378512   -0.000447
     22          1           0        1.221251    2.659862    0.884398
 ---------------------------------------------------------------------

 SCF Done:  E(UB3LYP) =  -421.719190233     A.U. after   33 cycles
 SCF Done:  E(UB3LYP) =  -421.719190233     a.u. after    1 cycles

 The electronic state is 2-A.
 Alpha  occ. eigenvalues --  -14.24979 -14.18100 -10.12056 -10.10233 -10.09282
 Alpha  occ. eigenvalues --  -10.07833 -10.07298 -10.06340 -10.06279 -10.05210
 Alpha  occ. eigenvalues --   -0.87831  -0.79669  -0.69582  -0.66823  -0.62588
 Alpha  occ. eigenvalues --   -0.61137  -0.57459  -0.48369  -0.47564  -0.44081
 Alpha  occ. eigenvalues --   -0.41957  -0.35731  -0.34509  -0.32320  -0.32090
 Alpha  occ. eigenvalues --   -0.31999  -0.31826  -0.30833  -0.29498  -0.28349
 Alpha  occ. eigenvalues --   -0.27451  -0.26887  -0.25168  -0.21026  -0.16181
 Alpha  occ. eigenvalues --   -0.14389  -0.10396   0.04520
 Alpha virt. eigenvalues --    0.06962   0.06971   0.07599   0.09327   0.09705
 Alpha virt. eigenvalues --    0.10030   0.11296   0.11469   0.11984   0.12455
 Alpha virt. eigenvalues --    0.13011   0.14656   0.14831   0.15025   0.15253

  Beta  occ. eigenvalues --  -14.24937 -14.18095 -10.12054 -10.10235 -10.09279
  Beta  occ. eigenvalues --  -10.07821 -10.07298 -10.06271 -10.06237 -10.05191
  Beta  occ. eigenvalues --   -0.87794  -0.79661  -0.69550  -0.66785  -0.62528
  Beta  occ. eigenvalues --   -0.61091  -0.57389  -0.48309  -0.47509  -0.44042
  Beta  occ. eigenvalues --   -0.41910  -0.35698  -0.34477  -0.32270  -0.32062
  Beta  occ. eigenvalues --   -0.31957  -0.31779  -0.30802  -0.29447  -0.28302
  Beta  occ. eigenvalues --   -0.27405  -0.26845  -0.25137  -0.21009  -0.16162
  Beta  occ. eigenvalues --   -0.14365  -0.10383
  Beta virt. eigenvalues --    0.06861   0.07033   0.07925   0.08415   0.09814
  Beta virt. eigenvalues --    0.10328   0.10820   0.11686   0.11693   0.12490
  Beta virt. eigenvalues --    0.13037   0.13357   0.14797   0.15037   0.15291

 Mulliken charges and spin densities:
               1          2
     1  C    3.813606  -4.493927
     2  C   -2.598285   2.250254
     3  C    0.842578  -0.309145
     4  C    0.299214   0.184670
     5  C   -0.204754   0.174832
     6  N   -0.297302   0.365087
     7  C   -1.141722   0.639028
     8  N   -0.325086   0.048780
     9  C    2.034177  -2.691212
    10  C   -0.410244  -0.313066
    11  H   -0.536915   0.702782
    12  H   -0.583381   0.748219
    13  H   -0.583298   0.748114
    14  H   -0.549634   0.695958
    15  H   -0.544324   0.867280
    16  H    0.156342   0.053155
    17  H   -0.342924   0.508783
    18  H   -0.343070   0.508970
    19  H    0.180457  -0.016366
    20  H    0.063688   0.089511
    21  H    0.007152   0.148780
    22  H    0.063726   0.089515
 Sum of Mulliken charges =  -1.00000   1.00000

 Dipole moment (field-independent basis, Debye):
    X=              4.5813    Y=              5.7645    Z=              0.0008  Tot=              7.3633
 Quadrupole moment (field-independent basis, Debye-Ang):
   XX=           -127.2380   YY=           -107.2934   ZZ=            -88.3232
   XY=             -6.4185   XZ=             -0.0010   YZ=             -0.0031

 Summary of Natural Population Analysis:

                                       Natural Population
                Natural  -----------------------------------------------
    Atom  No    Charge         Core      Valence    Rydberg      Total
 -----------------------------------------------------------------------
      C    1   -0.30254      0.99964     2.29675    0.00615     3.30254
      C    2    0.09537      0.99955     1.89252    0.01256     2.90463
      C    3   -0.14371      0.99946     2.13412    0.01013     3.14371
      C    4   -0.02940      0.99950     2.02114    0.00877     3.02940
      C    5    0.02132      0.99944     1.96632    0.01292     2.97868
      N    6   -0.25901      0.99963     2.74958    0.00980     3.75901
      C    7    0.13150      0.99961     1.85360    0.01529     2.86850
      N    8   -0.33820      0.99973     2.83049    0.00798     3.83820
      C    9   -0.31143      0.99963     2.30521    0.00659     3.31143
      C   10   -0.29756      0.99963     2.29279    0.00514     3.29756
      H   11    0.10894      0.00000     0.38908    0.00198     0.39106
      H   12    0.11017      0.00000     0.38691    0.00292     0.38983
      H   13    0.11017      0.00000     0.38691    0.00292     0.38983
      H   14    0.10388      0.00000     0.39518    0.00095     0.39612
      H   15    0.21034      0.00000     0.27913    0.01053     0.28966
      H   16    0.15941      0.00000     0.33811    0.00248     0.34059
      H   17    0.10649      0.00000     0.39196    0.00155     0.39351
      H   18    0.10650      0.00000     0.39196    0.00155     0.39350
      H   19    0.11053      0.00000     0.38827    0.00121     0.38947
      H   20    0.10167      0.00000     0.39681    0.00153     0.39833
      H   21    0.10391      0.00000     0.39521    0.00087     0.39609
      H   22    0.10167      0.00000     0.39681    0.00153     0.39833
 =======================================================================
   * Total *    0.00000      9.99582    26.87885    0.12533    37.00000

 Normal termination of Gaussian 16 at Tue Dec  8 10:37:57 2020.
