 Gaussian 16, Revision A.03,

 -----------------------------------------------------------
 # opt freq B3LYP/6-31G(d) empiricaldispersion=gd3bj scf=xqc
 -----------------------------------------------------------

 -----------------------------
 CID_22571239_JID_890_neutraal
 -----------------------------
 Symbolic Z-matrix:
 Charge =  0 Multiplicity = 1

 SCF Done:  E(RB3LYP) =  -515.562378147     A.U. after   15 cycles
 SCF Done:  E(RB3LYP) =  -515.569318867     A.U. after   12 cycles
 SCF Done:  E(RB3LYP) =  -515.570288022     A.U. after   12 cycles
 SCF Done:  E(RB3LYP) =  -515.570835450     A.U. after   13 cycles
 SCF Done:  E(RB3LYP) =  -515.571609905     A.U. after   12 cycles
 SCF Done:  E(RB3LYP) =  -515.572034714     A.U. after   13 cycles
 SCF Done:  E(RB3LYP) =  -515.572189768     A.U. after   11 cycles
 SCF Done:  E(RB3LYP) =  -515.572274986     A.U. after   12 cycles
 SCF Done:  E(RB3LYP) =  -515.572313200     A.U. after   11 cycles
 SCF Done:  E(RB3LYP) =  -515.572365524     A.U. after   11 cycles
 SCF Done:  E(RB3LYP) =  -515.572375353     A.U. after   11 cycles
 SCF Done:  E(RB3LYP) =  -515.572377803     A.U. after    9 cycles
 SCF Done:  E(RB3LYP) =  -515.572378821     A.U. after    8 cycles
 SCF Done:  E(RB3LYP) =  -515.572379141     A.U. after    7 cycles
 SCF Done:  E(RB3LYP) =  -515.572379280     A.U. after    7 cycles
 Optimization completed.
    -- Stationary point found.
 Normal termination of Gaussian 16 at Tue Dec  8 13:13:02 2020.

 --------------------------------------------------------------------
 #N Geom=AllCheck Guess=TCheck SCRF=Check GenChk RB3LYP/6-31G(d) Freq
 --------------------------------------------------------------------

 Structure from the checkpoint file:  "JID_890.chk"
 -----------------------------
 CID_22571239_JID_890_neutraal
 -----------------------------
 Charge =  0 Multiplicity = 1

 SCF Done:  E(RB3LYP) =  -515.572379280     A.U. after    1 cycles

  Exact polarizability:  94.361  -2.522  93.978   0.775   8.437  57.158
 Approx polarizability: 113.286  -2.931 151.620   0.450  20.578  87.765

                      1                      2                      3
                      A                      A                      A
 Frequencies --     32.3262                68.1253                97.9545
 Red. masses --      2.9611                 4.6055                 2.6197
 Frc consts  --      0.0018                 0.0126                 0.0148
 IR Inten    --      0.1109                 3.3939                 2.7150

                      4                      5                      6
                      A                      A                      A
 Frequencies --    111.0448               163.1203               167.9586
 Red. masses --      2.7955                 1.2265                 1.1510
 Frc consts  --      0.0203                 0.0192                 0.0191
 IR Inten    --      3.1569                 0.4588                 0.8153

                      7                      8                      9
                      A                      A                      A
 Frequencies --    180.3260               186.9673               241.0317
 Red. masses --      2.6476                 1.1281                 3.3658
 Frc consts  --      0.0507                 0.0232                 0.1152
 IR Inten    --      0.9262                 0.6438                 1.1862

                     10                     11                     12
                      A                      A                      A
 Frequencies --    303.2268               342.4355               364.3801
 Red. masses --      3.3612                 4.7573                 3.9754
 Frc consts  --      0.1821                 0.3287                 0.3110
 IR Inten    --      6.0919                 5.6531                 9.0249

                     13                     14                     15
                      A                      A                      A
 Frequencies --    392.2270               430.5845               522.3683
 Red. masses --      3.2884                 4.7573                 5.4299
 Frc consts  --      0.2981                 0.5197                 0.8730
 IR Inten    --      7.8384                 1.1371                30.4332

                     16                     17                     18
                      A                      A                      A
 Frequencies --    537.2427               605.1856               640.6823
 Red. masses --      3.7785                 4.1130                 1.4301
 Frc consts  --      0.6426                 0.8875                 0.3459
 IR Inten    --      6.7256                 3.3949                 8.7572

                     19                     20                     21
                      A                      A                      A
 Frequencies --    744.6607               828.7311               899.0527
 Red. masses --      3.5855                 3.5598                 4.8097
 Frc consts  --      1.1714                 1.4405                 2.2905
 IR Inten    --     23.3009                25.2943                48.4122

                     22                     23                     24
                      A                      A                      A
 Frequencies --    948.7187               970.4890              1019.8349
 Red. masses --      1.3598                 2.2596                 4.8746
 Frc consts  --      0.7211                 1.2539                 2.9871
 IR Inten    --     28.5911                29.2147                 8.0051

                     25                     26                     27
                      A                      A                      A
 Frequencies --   1038.9929              1058.0361              1088.1887
 Red. masses --      1.5197                 6.2418                 1.4767
 Frc consts  --      0.9665                 4.1168                 1.0302
 IR Inten    --     22.5734                94.5536                 2.7053

                     28                     29                     30
                      A                      A                      A
 Frequencies --   1093.0561              1176.6215              1186.9944
 Red. masses --      6.1941                 1.8708                 1.3014
 Frc consts  --      4.3602                 1.5260                 1.0803
 IR Inten    --    127.7885                37.2293                 5.0435

                     31                     32                     33
                      A                      A                      A
 Frequencies --   1191.2486              1227.7949              1237.3534
 Red. masses --      1.6689                 1.5163                 1.8563
 Frc consts  --      1.3953                 1.3468                 1.6745
 IR Inten    --     10.9019                 4.9739                 3.3814

                     34                     35                     36
                      A                      A                      A
 Frequencies --   1344.0988              1438.0529              1468.5397
 Red. masses --      4.2637                 1.2373                 1.2252
 Frc consts  --      4.5383                 1.5076                 1.5568
 IR Inten    --     55.9348                 2.6979                 4.6786

                     37                     38                     39
                      A                      A                      A
 Frequencies --   1476.1578              1477.8227              1501.0683
 Red. masses --      1.1437                 1.1448                 1.0564
 Frc consts  --      1.4683                 1.4731                 1.4024
 IR Inten    --      1.4516                 1.1030                 5.1006

                     40                     41                     42
                      A                      A                      A
 Frequencies --   1502.3001              1502.5564              1523.1031
 Red. masses --      1.0561                 1.0517                 1.0545
 Frc consts  --      1.4044                 1.3990                 1.4413
 IR Inten    --      8.6072                 6.2399                14.3906

                     43                     44                     45
                      A                      A                      A
 Frequencies --   1538.4465              1543.4232              1719.9895
 Red. masses --      1.0503                 1.0481                 4.9554
 Frc consts  --      1.4647                 1.4710                 8.6373
 IR Inten    --      6.2059                 6.8878                13.7150

                     46                     47                     48
                      A                      A                      A
 Frequencies --   1785.9628              3043.4536              3047.7041
 Red. masses --     12.1672                 1.0324                 1.0316
 Frc consts  --     22.8657                 5.6340                 5.6453
 IR Inten    --    181.7621                25.7351                59.2149

                     49                     50                     51
                      A                      A                      A
 Frequencies --   3058.0692              3116.2620              3117.6437
 Red. masses --      1.0371                 1.1051                 1.0983
 Frc consts  --      5.7141                 6.3229                 6.2894
 IR Inten    --     15.7320                33.7327                12.7144

                     52                     53                     54
                      A                      A                      A
 Frequencies --   3122.4978              3145.0497              3154.4907
 Red. masses --      1.1053                 1.1041                 1.1050
 Frc consts  --      6.3493                 6.4342                 6.4784
 IR Inten    --     28.4325                13.5309                20.6644

                     55                     56                     57
                      A                      A                      A
 Frequencies --   3161.4970              3177.8564              3268.4105
 Red. masses --      1.1037                 1.0626                 1.1134
 Frc consts  --      6.4994                 6.3226                 7.0075
 IR Inten    --     16.9297                 9.2656                 9.7020

 - Thermochemistry -
 -------------------
 Temperature   298.150 Kelvin.  Pressure   1.00000 Atm.
 Atom     1 has atomic number  6 and mass  12.00000

 Molecular mass:   145.07389 amu.
 Principal axes and moments of inertia in atomic units:
                           1         2         3
     Eigenvalues --   957.457131701.648532402.96201
           X            0.99989  -0.00054   0.01502
           Y            0.00049   0.99999   0.00381
           Z           -0.01502  -0.00380   0.99988
 This molecule is an asymmetric top.
 Rotational symmetry number  1.
 Warning -- assumption of classical behavior for rotation
           may cause significant error
 Rotational temperatures (Kelvin)      0.09046     0.05090     0.03604
 Rotational constants (GHZ):           1.88493     1.06058     0.75105
 Zero-point vibrational energy     450581.9 (Joules/Mol)
                                  107.69167 (Kcal/Mol)
 Warning -- explicit consideration of  17 degrees of freedom as
           vibrations may cause significant error
 Vibrational temperatures:     46.51    98.02   140.93   159.77   234.69
          (Kelvin)            241.65   259.45   269.00   346.79   436.28
                              492.69   524.26   564.33   619.52   751.57
                              772.97   870.73   921.80  1071.40  1192.36
                             1293.54  1364.99  1396.32  1467.31  1494.88
                             1522.28  1565.66  1572.66  1692.90  1707.82
                             1713.94  1766.52  1780.28  1933.86  2069.04
                             2112.90  2123.86  2126.26  2159.70  2161.47
                             2161.84  2191.41  2213.48  2220.64  2474.68
                             2569.60  4378.85  4384.97  4399.88  4483.61
                             4485.59  4492.58  4525.03  4538.61  4548.69
                             4572.23  4702.51

 Zero-point correction=                           0.171618 (Hartree/Particle)
 Thermal correction to Energy=                    0.183510
 Thermal correction to Enthalpy=                  0.184454
 Thermal correction to Gibbs Free Energy=         0.133310
 Sum of electronic and zero-point Energies=           -515.400762
 Sum of electronic and thermal Energies=              -515.388870
 Sum of electronic and thermal Enthalpies=            -515.387926
 Sum of electronic and thermal Free Energies=         -515.439069

                     E (Thermal)             CV                S
                      KCal/Mol        Cal/Mol-Kelvin    Cal/Mol-Kelvin
 Total                  115.154             41.357            107.640
 Electronic               0.000              0.000              0.000
 Translational            0.889              2.981             40.827
 Rotational               0.889              2.981             29.750
 Vibrational            113.377             35.396             37.064
 Vibration     1          0.594              1.983              5.681
 Vibration     2          0.598              1.969              4.207
 Vibration     3          0.603              1.951              3.495
 Vibration     4          0.607              1.940              3.251
 Vibration     5          0.623              1.888              2.513
 Vibration     6          0.625              1.882              2.458
 Vibration     7          0.629              1.866              2.325
 Vibration     8          0.632              1.858              2.258
 Vibration     9          0.658              1.778              1.795
 Vibration    10          0.695              1.668              1.399
 Vibration    11          0.722              1.591              1.201
 Vibration    12          0.738              1.546              1.103
 Vibration    13          0.760              1.487              0.992
 Vibration    14          0.792              1.404              0.857
 Vibration    15          0.877              1.200              0.604
 Vibration    16          0.892              1.168              0.571
 Vibration    17          0.964              1.021              0.441

 Optimization completed.
    -- Stationary point found.
 Normal termination of Gaussian 16 at Tue Dec  8 13:26:42 2020.

 ----------------------------------------------------------------------
 # B3LYP/6-311++G(d,p) empiricaldispersion=gd3bj scf=xqc pop=npa geom=c
 heck
 ----------------------------------------------------------------------

 -------------------------------------
 CID_22571239_JID_890_Energie_neutraal
 -------------------------------------
 Structure from the checkpoint file:  "JID_890.chk"
 Charge =  0 Multiplicity = 1

 SCF Done:  E(RB3LYP) =  -515.727403015     A.U. after   15 cycles
 Normal termination of Gaussian 16 at Tue Dec  8 13:28:54 2020.

 ----------------------------------------------------------------------
 # B3LYP/6-311++G(d,p) empiricaldispersion=gd3bj scf=xqc pop=npa geom=c
 heck
 ----------------------------------------------------------------------

 -----------------------------------
 CID_22571239_JID_890_Energie_kation
 -----------------------------------
 Structure from the checkpoint file:  "JID_890.chk"
 Charge =  1 Multiplicity = 2

 SCF Done:  E(UB3LYP) =  -515.401256283     A.U. after   21 cycles
 Normal termination of Gaussian 16 at Tue Dec  8 13:34:16 2020.
 Gaussian 16:  ES64L-G16RevA.03 25-Dec-2016

 ----------------------------------------------------------------------
 # B3LYP/6-311++G(d,p) empiricaldispersion=gd3bj scf=xqc pop=npa geom=c
 heck
 ----------------------------------------------------------------------

 ----------------------------------
 CID_22571239_JID_890_Energie_anion
 ----------------------------------
 Structure from the checkpoint file:  "JID_890.chk"
 Charge = -1 Multiplicity = 2

                         Standard orientation:
 ---------------------------------------------------------------------
 Center     Atomic      Atomic             Coordinates (Angstroms)
 Number     Number       Type             X           Y           Z
 ---------------------------------------------------------------------
      1          6           0       -3.063415   -0.461181   -0.337219
      2          6           0       -1.803982    0.193051    0.166337
      3          6           0       -1.797054    1.345974    0.845103
      4          6           0       -0.571169   -0.623423   -0.048905
      5          8           0       -0.610756   -1.833172   -0.167401
      6          7           0        0.692394    0.040483    0.047366
      7          8           0        0.707594    1.231754   -0.694424
      8          6           0        1.672544    2.120688   -0.135621
      9          8           0        1.739888   -0.767813   -0.453129
     10          6           0        2.371296   -1.451187    0.629478
     11          1           0       -3.938990    0.151136   -0.105327
     12          1           0       -3.186511   -1.451687    0.111741
     13          1           0       -3.018606   -0.612178   -1.422239
     14          1           0       -0.886603    1.788162    1.231349
     15          1           0       -2.723650    1.875591    1.049459
     16          1           0        1.607102    3.028527   -0.739145
     17          1           0        1.441248    2.344870    0.912753
     18          1           0        2.678991    1.696439   -0.212698
     19          1           0        2.689366   -0.748535    1.408534
     20          1           0        1.705076   -2.208176    1.054825
     21          1           0        3.242695   -1.937215    0.183777
 ---------------------------------------------------------------------

 SCF Done:  E(UB3LYP) =  -515.723932012     A.U. after   32 cycles

 The electronic state is 2-A.
 Alpha  occ. eigenvalues --  -19.03440 -19.02572 -18.92879 -14.27308 -10.09559
 Alpha  occ. eigenvalues --  -10.09277 -10.08602 -10.02792 -10.02350 -10.00253
 Alpha  occ. eigenvalues --   -0.99834  -0.90114  -0.87246  -0.69203  -0.64648
 Alpha  occ. eigenvalues --   -0.56489  -0.55320  -0.53296  -0.46138  -0.41756
 Alpha  occ. eigenvalues --   -0.39475  -0.36308  -0.33418  -0.32579  -0.31436
 Alpha  occ. eigenvalues --   -0.30744  -0.29517  -0.28319  -0.27644  -0.26164
 Alpha  occ. eigenvalues --   -0.24145  -0.23049  -0.22819  -0.21485  -0.17743
 Alpha  occ. eigenvalues --   -0.16036  -0.12416  -0.10844  -0.09569   0.05663
 Alpha virt. eigenvalues --    0.07913   0.09273   0.09699   0.10775   0.11596
 Alpha virt. eigenvalues --    0.12088   0.12966   0.13362   0.14065   0.15014
 Alpha virt. eigenvalues --    0.15626   0.16345   0.17404   0.18247   0.18489

  Beta  occ. eigenvalues --  -19.03394 -19.02557 -18.92459 -14.27317 -10.09537
  Beta  occ. eigenvalues --  -10.08941 -10.08571 -10.02787 -10.02292  -9.99930
  Beta  occ. eigenvalues --   -0.99748  -0.90017  -0.86537  -0.69004  -0.64332
  Beta  occ. eigenvalues --   -0.56413  -0.55085  -0.52957  -0.45479  -0.41527
  Beta  occ. eigenvalues --   -0.39341  -0.36164  -0.33138  -0.32481  -0.31379
  Beta  occ. eigenvalues --   -0.30669  -0.29137  -0.28060  -0.27468  -0.25937
  Beta  occ. eigenvalues --   -0.23970  -0.22928  -0.21591  -0.20925  -0.17610
  Beta  occ. eigenvalues --   -0.15834  -0.11602  -0.09575  -0.09178
  Beta virt. eigenvalues --    0.08182   0.09379   0.09564   0.11041   0.11520
  Beta virt. eigenvalues --    0.11876   0.12176   0.13109   0.13512   0.14158
  Beta virt. eigenvalues --    0.15174   0.15710   0.16600   0.17499   0.18232

 Mulliken charges and spin densities:
               1          2
     1  C   -0.616706  -0.086119
     2  C    0.623641   0.225549
     3  C   -0.898725   0.475750
     4  C    0.144632  -0.186136
     5  O   -0.376537   0.158298
     6  N   -0.674996   0.245131
     7  O    0.074121  -0.012549
     8  C    0.212779  -0.483888
     9  O    0.138699  -0.045943
    10  C    0.490446  -0.747046
    11  H    0.087487   0.020499
    12  H    0.098126   0.059503
    13  H    0.117273   0.011740
    14  H    0.008674   0.053413
    15  H    0.074506  -0.005089
    16  H    0.078210   0.046074
    17  H   -0.105646   0.232204
    18  H   -0.102322   0.249505
    19  H   -0.332856   0.457620
    20  H    0.035454   0.131795
    21  H   -0.076257   0.199690
 Sum of Mulliken charges =  -1.00000   1.00000

 Dipole moment (field-independent basis, Debye):
    X=              0.3215    Y=              2.0394    Z=             -1.3060  Tot=              2.4430
 Quadrupole moment (field-independent basis, Debye-Ang):
   XX=            -88.8232   YY=            -81.3089   ZZ=            -79.5346
   XY=             -0.0505   XZ=              0.2096   YZ=             -2.7059

 Summary of Natural Population Analysis:

                                       Natural Population
                Natural  -----------------------------------------------
    Atom  No    Charge         Core      Valence    Rydberg      Total
 -----------------------------------------------------------------------
      C    1   -0.29004      0.99964     2.28527    0.00513     3.29004
      C    2   -0.05376      0.99950     2.04327    0.01099     3.05376
      C    3   -0.11364      0.99952     2.10625    0.00786     3.11364
      C    4    0.36493      0.99959     1.61063    0.02485     2.63507
      O    5   -0.26572      0.99987     3.26049    0.00535     4.26572
      N    6    0.01581      0.99967     2.46684    0.01769     3.48419
      O    7   -0.20617      0.99989     3.19611    0.01017     4.20617
      C    8   -0.10070      0.99962     2.09084    0.01024     3.10070
      O    9   -0.21914      0.99990     3.20817    0.01107     4.21914
      C   10   -0.09988      0.99962     2.08995    0.01032     3.09988
      H   11    0.09060      0.00000     0.40840    0.00100     0.40940
      H   12    0.10629      0.00000     0.39223    0.00147     0.39371
      H   13    0.09744      0.00000     0.40143    0.00112     0.40256
      H   14    0.08888      0.00000     0.40964    0.00148     0.41112
      H   15    0.07812      0.00000     0.42089    0.00098     0.42188
      H   16    0.08452      0.00000     0.41455    0.00093     0.41548
      H   17    0.08350      0.00000     0.41441    0.00209     0.41650
      H   18    0.08347      0.00000     0.41431    0.00222     0.41653
      H   19    0.08137      0.00000     0.41559    0.00305     0.41863
      H   20    0.09096      0.00000     0.40772    0.00132     0.40904
      H   21    0.08314      0.00000     0.41573    0.00112     0.41686
 =======================================================================
   * Total *    0.00000      9.99681    28.87273    0.13046    39.00000

 Normal termination of Gaussian 16 at Tue Dec  8 13:41:48 2020.
