 Gaussian 16, Revision A.03,

 -----------------------------------------------------------
 # opt freq B3LYP/6-31G(d) empiricaldispersion=gd3bj scf=xqc
 -----------------------------------------------------------

 -------------------------------
 CID_117215941_JID_3131_neutraal
 -------------------------------
 Symbolic Z-matrix:
 Charge =  0 Multiplicity = 1

 SCF Done:  E(RB3LYP) =  -627.400075070     A.U. after   15 cycles
 SCF Done:  E(RB3LYP) =  -627.404658955     A.U. after   12 cycles
 SCF Done:  E(RB3LYP) =  -627.405219440     A.U. after   11 cycles
 SCF Done:  E(RB3LYP) =  -627.405299066     A.U. after   11 cycles
 SCF Done:  E(RB3LYP) =  -627.405339815     A.U. after   11 cycles
 SCF Done:  E(RB3LYP) =  -627.405359331     A.U. after   11 cycles
 SCF Done:  E(RB3LYP) =  -627.405377045     A.U. after   10 cycles
 SCF Done:  E(RB3LYP) =  -627.405405358     A.U. after   11 cycles
 SCF Done:  E(RB3LYP) =  -627.405411553     A.U. after   10 cycles
 SCF Done:  E(RB3LYP) =  -627.405414149     A.U. after    8 cycles
 SCF Done:  E(RB3LYP) =  -627.405414487     A.U. after    8 cycles
 Optimization completed.
    -- Stationary point found.
 Normal termination of Gaussian 16 at Wed Dec  9 22:24:24 2020.

 --------------------------------------------------------------------
 #N Geom=AllCheck Guess=TCheck SCRF=Check GenChk RB3LYP/6-31G(d) Freq
 --------------------------------------------------------------------

 Structure from the checkpoint file:  "JID_3131.chk"
 -------------------------------
 CID_117215941_JID_3131_neutraal
 -------------------------------
 Charge =  0 Multiplicity = 1

 SCF Done:  E(RB3LYP) =  -627.405414487     A.U. after    1 cycles

  Exact polarizability: 150.908  -2.126 109.525   8.015   3.917  73.025
 Approx polarizability: 194.768 -10.516 185.774  14.425  12.099 108.812

                      1                      2                      3
                      A                      A                      A
 Frequencies --     26.9339                56.3154                63.8576
 Red. masses --      3.2489                 6.1112                 3.1563
 Frc consts  --      0.0014                 0.0114                 0.0076
 IR Inten    --      0.5041                 1.2718                 1.1573

                      4                      5                      6
                      A                      A                      A
 Frequencies --     79.3922               129.1621               179.5420
 Red. masses --      4.3782                 1.1438                 5.4214
 Frc consts  --      0.0163                 0.0112                 0.1030
 IR Inten    --      0.3308                 0.1645                 0.7643

                      7                      8                      9
                      A                      A                      A
 Frequencies --    182.4581               211.2549               255.8173
 Red. masses --      4.4608                 2.8607                 1.3751
 Frc consts  --      0.0875                 0.0752                 0.0530
 IR Inten    --      0.6407                 5.3190                 0.7099

                     10                     11                     12
                      A                      A                      A
 Frequencies --    264.6406               289.9412               319.7995
 Red. masses --      1.1211                 2.2697                 2.6338
 Frc consts  --      0.0463                 0.1124                 0.1587
 IR Inten    --      0.6887                 0.8383                 0.6176

                     13                     14                     15
                      A                      A                      A
 Frequencies --    350.8638               362.4781               381.2626
 Red. masses --      4.0527                 2.8547                 2.5149
 Frc consts  --      0.2939                 0.2210                 0.2154
 IR Inten    --      1.8306                 6.2327                 3.7062

                     16                     17                     18
                      A                      A                      A
 Frequencies --    436.1426               482.6858               562.3360
 Red. masses --      3.5014                 3.1550                 4.0920
 Frc consts  --      0.3924                 0.4331                 0.7624
 IR Inten    --      9.9204                 7.3761                 4.9692

                     19                     20                     21
                      A                      A                      A
 Frequencies --    574.7320               655.6989               670.0792
 Red. masses --      1.6980                 2.3780                 5.0943
 Frc consts  --      0.3305                 0.6024                 1.3477
 IR Inten    --     51.1807                41.6555                 0.6551

                     22                     23                     24
                      A                      A                      A
 Frequencies --    682.7738               744.3111               763.0645
 Red. masses --      4.0412                 4.9830                 5.2312
 Frc consts  --      1.1100                 1.6265                 1.7946
 IR Inten    --     50.6456                 5.8711                47.2717

                     25                     26                     27
                      A                      A                      A
 Frequencies --    824.7789               852.8326               874.5829
 Red. masses --      3.2631                 2.0333                 2.7073
 Frc consts  --      1.3078                 0.8713                 1.2201
 IR Inten    --     14.4550                18.3847                16.8449

                     28                     29                     30
                      A                      A                      A
 Frequencies --    989.1582              1035.3488              1056.8651
 Red. masses --      1.6778                 3.9018                 2.2409
 Frc consts  --      0.9672                 2.4643                 1.4747
 IR Inten    --      6.3809                50.4980                30.3073

                     31                     32                     33
                      A                      A                      A
 Frequencies --   1077.2998              1089.2888              1107.4675
 Red. masses --      1.5942                 2.6492                 2.4408
 Frc consts  --      1.0901                 1.8520                 1.7638
 IR Inten    --     21.6956                36.3572                73.9294

                     34                     35                     36
                      A                      A                      A
 Frequencies --   1135.6386              1159.9304              1173.9361
 Red. masses --      1.2582                 1.2974                 1.5708
 Frc consts  --      0.9561                 1.0284                 1.2754
 IR Inten    --     11.5124                 0.0407                39.2289

                     37                     38                     39
                      A                      A                      A
 Frequencies --   1195.4156              1206.2171              1224.3763
 Red. masses --      1.6051                 2.3147                 1.9839
 Frc consts  --      1.3514                 1.9842                 1.7522
 IR Inten    --     68.1179               191.9906                36.0442

                     40                     41                     42
                      A                      A                      A
 Frequencies --   1307.5669              1318.3420              1344.3930
 Red. masses --      2.2895                 1.7787                 4.0680
 Frc consts  --      2.3063                 1.8214                 4.3320
 IR Inten    --     25.6779                 7.4022                33.7316

                     43                     44                     45
                      A                      A                      A
 Frequencies --   1358.9501              1411.6496              1416.1370
 Red. masses --      2.6929                 2.3579                 1.8838
 Frc consts  --      2.9301                 2.7684                 2.2259
 IR Inten    --      4.6045                35.5796                61.3861

                     46                     47                     48
                      A                      A                      A
 Frequencies --   1466.7832              1469.3525              1492.8142
 Red. masses --      1.1641                 1.8741                 1.8496
 Frc consts  --      1.4756                 2.3840                 2.4285
 IR Inten    --      6.3731                35.9944                42.6599

                     49                     50                     51
                      A                      A                      A
 Frequencies --   1495.5392              1511.0944              1511.2409
 Red. masses --      1.4922                 1.2024                 1.0503
 Frc consts  --      1.9664                 1.6176                 1.4133
 IR Inten    --      3.4558                 3.0833                 8.2200

                     52                     53                     54
                      A                      A                      A
 Frequencies --   1512.7747              1521.9290              1528.6291
 Red. masses --      1.1143                 2.4257                 1.0802
 Frc consts  --      1.5024                 3.3103                 1.4872
 IR Inten    --     14.8642                47.0792                 9.2683

                     55                     56                     57
                      A                      A                      A
 Frequencies --   1529.4233              1530.3272              1541.6869
 Red. masses --      1.1278                 1.0760                 1.0538
 Frc consts  --      1.5543                 1.4847                 1.4757
 IR Inten    --      6.3447                15.4796                 7.6478

                     58                     59                     60
                      A                      A                      A
 Frequencies --   1596.3337              1822.5382              2917.6734
 Red. masses --      6.6259                 9.6900                 1.0712
 Frc consts  --      9.9481                18.9639                 5.3725
 IR Inten    --     35.5663               346.5486                30.5447

                     61                     62                     63
                      A                      A                      A
 Frequencies --   2920.1075              2934.6602              3077.6938
 Red. masses --      1.0628                 1.0649                 1.0691
 Frc consts  --      5.3395                 5.4034                 5.9667
 IR Inten    --     39.1274               192.9883                34.7269

                     64                     65                     66
                      A                      A                      A
 Frequencies --   3089.1689              3089.5437              3091.9742
 Red. masses --      1.0738                 1.0331                 1.0818
 Frc consts  --      6.0374                 5.8102                 6.0936
 IR Inten    --     38.2624                28.4752                16.7582

                     67                     68                     69
                      A                      A                      A
 Frequencies --   3123.1175              3138.5419              3159.3026
 Red. masses --      1.1040                 1.1023                 1.1060
 Frc consts  --      6.3447                 6.3973                 6.5042
 IR Inten    --     32.6761                31.9142                11.2862

                     70                     71                     72
                      A                      A                      A
 Frequencies --   3198.6166              3289.0174              3692.4071
 Red. masses --      1.1052                 1.0977                 1.0641
 Frc consts  --      6.6621                 6.9961                 8.5474
 IR Inten    --      2.6959                 0.3304                83.4209

 - Thermochemistry -
 -------------------
 Temperature   298.150 Kelvin.  Pressure   1.00000 Atm.
 Atom     1 has atomic number  6 and mass  12.00000

 Molecular mass:   183.10078 amu.
 Principal axes and moments of inertia in atomic units:
                           1         2         3
     Eigenvalues --  1042.389724483.407205147.78322
           X            0.99976   0.02187   0.00185
           Y           -0.02187   0.99975  -0.00424
           Z           -0.00194   0.00420   0.99999
 This molecule is an asymmetric top.
 Rotational symmetry number  1.
 Warning -- assumption of classical behavior for rotation
           may cause significant error
 Rotational temperatures (Kelvin)      0.08309     0.01932     0.01683
 Rotational constants (GHZ):           1.73135     0.40254     0.35059
 Zero-point vibrational energy     569051.7 (Joules/Mol)
                                  136.00661 (Kcal/Mol)
 Warning -- explicit consideration of  19 degrees of freedom as
           vibrations may cause significant error
 Vibrational temperatures:     38.75    81.03    91.88   114.23   185.84
          (Kelvin)            258.32   262.52   303.95   368.06   380.76
                              417.16   460.12   504.81   521.53   548.55
                              627.51   694.48   809.08   826.91   943.40
                              964.09   982.36  1070.90  1097.88  1186.67
                             1227.04  1258.33  1423.18  1489.64  1520.59
                             1549.99  1567.24  1593.40  1633.93  1668.88
                             1689.03  1719.94  1735.48  1761.60  1881.30
                             1896.80  1934.28  1955.23  2031.05  2037.51
                             2110.37  2114.07  2147.83  2151.75  2174.13
                             2174.34  2176.55  2189.72  2199.36  2200.50
                             2201.80  2218.14  2296.77  2622.23  4197.88
                             4201.38  4222.32  4428.11  4444.63  4445.16
                             4448.66  4493.47  4515.66  4545.53  4602.10
                             4732.16  5312.55

 Zero-point correction=                           0.216740 (Hartree/Particle)
 Thermal correction to Energy=                    0.230104
 Thermal correction to Enthalpy=                  0.231048
 Thermal correction to Gibbs Free Energy=         0.175660
 Sum of electronic and zero-point Energies=           -627.188674
 Sum of electronic and thermal Energies=              -627.175311
 Sum of electronic and thermal Enthalpies=            -627.174367
 Sum of electronic and thermal Free Energies=         -627.229754

                     E (Thermal)             CV                S
                      KCal/Mol        Cal/Mol-Kelvin    Cal/Mol-Kelvin
 Total                  144.392             48.407            116.573
 Electronic               0.000              0.000              0.000
 Translational            0.889              2.981             41.521
 Rotational               0.889              2.981             31.554
 Vibrational            142.615             42.446             43.499
 Vibration     1          0.593              1.984              6.043
 Vibration     2          0.596              1.975              4.582
 Vibration     3          0.597              1.972              4.334
 Vibration     4          0.600              1.963              3.906
 Vibration     5          0.612              1.924              2.958
 Vibration     6          0.629              1.867              2.333
 Vibration     7          0.630              1.864              2.303
 Vibration     8          0.643              1.824              2.033
 Vibration     9          0.666              1.753              1.690
 Vibration    10          0.671              1.738              1.631
 Vibration    11          0.686              1.692              1.474
 Vibration    12          0.706              1.636              1.311
 Vibration    13          0.728              1.573              1.162
 Vibration    14          0.736              1.550              1.111
 Vibration    15          0.751              1.510              1.034
 Vibration    16          0.797              1.391              0.839
 Vibration    17          0.839              1.288              0.703
 Vibration    18          0.918              1.113              0.519
 Vibration    19          0.931              1.086              0.495

                           ! Non-Optimized Parameters !
 Normal termination of Gaussian 16 at Wed Dec  9 22:30:19 2020.

 ----------------------------------------------------------------------
 # B3LYP/6-311++G(d,p) empiricaldispersion=gd3bj scf=xqc pop=npa geom=c
 heck
 ----------------------------------------------------------------------

 ---------------------------------------
 CID_117215941_JID_3131_Energie_neutraal
 ---------------------------------------
 Structure from the checkpoint file:  "JID_3131.chk"
 Charge =  0 Multiplicity = 1

 SCF Done:  E(RB3LYP) =  -627.589605584     A.U. after   16 cycles
 Normal termination of Gaussian 16 at Wed Dec  9 22:33:05 2020.

 ----------------------------------------------------------------------
 # B3LYP/6-311++G(d,p) empiricaldispersion=gd3bj scf=xqc pop=npa geom=c
 heck
 ----------------------------------------------------------------------

 -------------------------------------
 CID_117215941_JID_3131_Energie_kation
 -------------------------------------
 Structure from the checkpoint file:  "JID_3131.chk"
 Charge =  1 Multiplicity = 2

 SCF Done:  E(UB3LYP) =  -627.290996221     A.U. after   27 cycles
 Normal termination of Gaussian 16 at Wed Dec  9 22:39:56 2020.
 Gaussian 16:  ES64L-G16RevA.03 25-Dec-2016

 ----------------------------------------------------------------------
 # B3LYP/6-311++G(d,p) empiricaldispersion=gd3bj scf=xqc pop=npa geom=c
 heck
 ----------------------------------------------------------------------

 ------------------------------------
 CID_117215941_JID_3131_Energie_anion
 ------------------------------------
 Structure from the checkpoint file:  "JID_3131.chk"
 Charge = -1 Multiplicity = 2

                         Standard orientation:
 ---------------------------------------------------------------------
 Center     Atomic      Atomic             Coordinates (Angstroms)
 Number     Number       Type             X           Y           Z
 ---------------------------------------------------------------------
      1          6           0        2.003884    2.209030    0.402856
      2          7           0        1.134124    1.106754    0.018205
      3          6           0        1.427626   -0.221362   -0.170492
      4          6           0        0.236696   -0.833054   -0.543818
      5          6           0       -0.722067    0.193039   -0.552475
      6          7           0       -0.161435    1.365747   -0.211889
      7          6           0       -2.187303    0.114213   -0.865110
      8          7           0       -3.028211    0.046776    0.332164
      9          6           0       -4.431753    0.192859   -0.019878
     10          6           0       -2.803058   -1.172391    1.093429
     11          6           0        2.726247   -0.876727   -0.015907
     12          8           0        2.913604   -2.062154   -0.200142
     13          8           0        3.726677   -0.032554    0.359139
     14          1           0        1.373729    3.096709    0.436085
     15          1           0        2.448044    2.022387    1.382694
     16          1           0        2.805427    2.338736   -0.327336
     17          1           0        0.108739   -1.880513   -0.772340
     18          1           0       -2.473544    1.014729   -1.418130
     19          1           0       -2.362140   -0.752061   -1.534947
     20          1           0       -4.805388   -0.619698   -0.675537
     21          1           0       -5.038920    0.196486    0.891432
     22          1           0       -4.586187    1.145546   -0.537691
     23          1           0       -3.046236   -2.090920    0.520882
     24          1           0       -1.756280   -1.232421    1.403077
     25          1           0       -3.426081   -1.158707    1.993567
     26          1           0        4.523611   -0.591184    0.425274
 ---------------------------------------------------------------------

 SCF Done:  E(UB3LYP) =  -627.586278815     A.U. after   31 cycles

 The electronic state is 2-A.
 Alpha  occ. eigenvalues --  -19.02864 -18.94882 -14.24100 -14.19239 -14.17968
 Alpha  occ. eigenvalues --  -10.13551 -10.08541 -10.07713 -10.07694 -10.07014
 Alpha  occ. eigenvalues --  -10.05867 -10.05325 -10.01971  -0.96373  -0.90896
 Alpha  occ. eigenvalues --   -0.86705  -0.81093  -0.70739  -0.65331  -0.61291
 Alpha  occ. eigenvalues --   -0.59408  -0.55554  -0.52249  -0.48599  -0.44752
 Alpha  occ. eigenvalues --   -0.42455  -0.39086  -0.36301  -0.35792  -0.34865
 Alpha  occ. eigenvalues --   -0.34763  -0.33728  -0.31195  -0.30527  -0.30257
 Alpha  occ. eigenvalues --   -0.28620  -0.27782  -0.27501  -0.26501  -0.25671
 Alpha  occ. eigenvalues --   -0.25307  -0.24544  -0.23332  -0.18901  -0.16161
 Alpha  occ. eigenvalues --   -0.13223  -0.11878  -0.11593  -0.10496   0.05331
 Alpha virt. eigenvalues --    0.06966   0.08255   0.09225   0.09819   0.09943
 Alpha virt. eigenvalues --    0.10786   0.11895   0.12507   0.12623   0.13095
 Alpha virt. eigenvalues --    0.13773   0.14679   0.15097   0.15827   0.16766

  Beta  occ. eigenvalues --  -19.02765 -18.94553 -14.23749 -14.19247 -14.17681
  Beta  occ. eigenvalues --  -10.13198 -10.08559 -10.07686 -10.07685 -10.06993
  Beta  occ. eigenvalues --  -10.05809 -10.05416 -10.01830  -0.96001  -0.90401
  Beta  occ. eigenvalues --   -0.86189  -0.81096  -0.70430  -0.64908  -0.61259
  Beta  occ. eigenvalues --   -0.59369  -0.55385  -0.51607  -0.48505  -0.44548
  Beta  occ. eigenvalues --   -0.42211  -0.38921  -0.36176  -0.35729  -0.34563
  Beta  occ. eigenvalues --   -0.34143  -0.33581  -0.31042  -0.30111  -0.29198
  Beta  occ. eigenvalues --   -0.28544  -0.27691  -0.27404  -0.26090  -0.25615
  Beta  occ. eigenvalues --   -0.24989  -0.24383  -0.23237  -0.17484  -0.15809
  Beta  occ. eigenvalues --   -0.12894  -0.10946  -0.10632  -0.09850
  Beta virt. eigenvalues --    0.07506   0.08213   0.09471   0.09833   0.10134
  Beta virt. eigenvalues --    0.10959   0.11105   0.12024   0.12579   0.12789
  Beta virt. eigenvalues --    0.13012   0.13762   0.14719   0.15066   0.15929

 Mulliken charges and spin densities:
               1          2
     1  C   -0.297772  -0.030531
     2  N    0.010797   0.080106
     3  C    0.070877  -0.011201
     4  C   -0.259283   0.245708
     5  C   -0.190206  -0.079947
     6  N   -0.029520   0.176237
     7  C   -0.427963  -0.105251
     8  N    0.001876   0.144792
     9  C    0.514221  -0.813999
    10  C   -0.155606  -0.261415
    11  C   -0.074708   0.182863
    12  O   -0.430816   0.114074
    13  O   -0.277022   0.013896
    14  H    0.139490   0.003395
    15  H    0.156446   0.007312
    16  H    0.125863   0.037995
    17  H    0.163166   0.010588
    18  H    0.076516   0.068847
    19  H    0.098652  -0.012148
    20  H   -0.207221   0.299958
    21  H   -0.242239   0.366017
    22  H   -0.099302   0.234967
    23  H    0.014063   0.080429
    24  H    0.103092   0.077724
    25  H   -0.055205   0.167479
    26  H    0.271804   0.002103
 Sum of Mulliken charges =  -1.00000   1.00000

 Dipole moment (field-independent basis, Debye):
    X=              3.1376    Y=              2.1442    Z=              0.3809  Tot=              3.8193
 Quadrupole moment (field-independent basis, Debye-Ang):
   XX=           -135.5746   YY=           -103.5996   ZZ=            -91.4673
   XY=              9.9766   XZ=              5.3255   YZ=             -0.2224

 Summary of Natural Population Analysis:

                                       Natural Population
                Natural  -----------------------------------------------
    Atom  No    Charge         Core      Valence    Rydberg      Total
 -----------------------------------------------------------------------
      C    1   -0.17401      0.99965     2.16768    0.00668     3.17401
      N    2   -0.05240      0.99964     2.54130    0.01147     3.55240
      C    3    0.02642      0.99947     1.96264    0.01147     2.97358
      C    4   -0.11046      0.99947     2.10259    0.00841     3.11046
      C    5    0.02936      0.99958     1.95680    0.01426     2.97064
      N    6   -0.11498      0.99970     2.60266    0.01262     3.61498
      C    7   -0.09580      0.99957     2.08361    0.01261     3.09580
      N    8   -0.27307      0.99973     2.76109    0.01226     3.77307
      C    9   -0.17686      0.99965     2.16802    0.00920     3.17686
      C   10   -0.18114      0.99965     2.17251    0.00898     3.18114
      C   11    0.42414      0.99966     1.55266    0.02355     2.57586
      O   12   -0.29706      0.99987     3.29108    0.00610     4.29706
      O   13   -0.35508      0.99988     3.34948    0.00571     4.35508
      H   14    0.10216      0.00000     0.39679    0.00105     0.39784
      H   15    0.09736      0.00000     0.40154    0.00110     0.40264
      H   16    0.09691      0.00000     0.40147    0.00161     0.40309
      H   17    0.10782      0.00000     0.39120    0.00097     0.39218
      H   18    0.10062      0.00000     0.39785    0.00154     0.39938
      H   19    0.08059      0.00000     0.41794    0.00147     0.41941
      H   20    0.07667      0.00000     0.42123    0.00210     0.42333
      H   21    0.09355      0.00000     0.40523    0.00123     0.40645
      H   22    0.09347      0.00000     0.40523    0.00130     0.40653
      H   23    0.07573      0.00000     0.42262    0.00165     0.42427
      H   24    0.10527      0.00000     0.39356    0.00117     0.39473
      H   25    0.09149      0.00000     0.40754    0.00097     0.40851
      H   26    0.22931      0.00000     0.26580    0.00489     0.27069
 =======================================================================
   * Total *   -0.00000     12.99551    35.84012    0.16437    49.00000

 Normal termination of Gaussian 16 at Wed Dec  9 22:48:10 2020.
