 Gaussian 16, Revision A.03,

 -----------------------------------------------------------
 # opt freq B3LYP/6-31G(d) empiricaldispersion=gd3bj scf=xqc
 -----------------------------------------------------------

 -------------------------------
 CID_135264081_JID_4218_neutraal
 -------------------------------
 Symbolic Z-matrix:
 Charge =  0 Multiplicity = 1

 SCF Done:  E(RB3LYP) =  -1124.63935606     A.U. after   14 cycles
 SCF Done:  E(RB3LYP) =  -1124.64746286     A.U. after   13 cycles
 SCF Done:  E(RB3LYP) =  -1124.64595714     A.U. after   15 cycles
 SCF Done:  E(RB3LYP) =  -1124.64906264     A.U. after   13 cycles
 SCF Done:  E(RB3LYP) =  -1124.64720369     A.U. after   15 cycles
 SCF Done:  E(RB3LYP) =  -1124.64890093     A.U. after   14 cycles
 SCF Done:  E(RB3LYP) =  -1124.64969687     A.U. after   11 cycles
 SCF Done:  E(RB3LYP) =  -1124.65073159     A.U. after   12 cycles
 SCF Done:  E(RB3LYP) =  -1124.65094981     A.U. after   12 cycles
 SCF Done:  E(RB3LYP) =  -1124.65170553     A.U. after   14 cycles
 SCF Done:  E(RB3LYP) =  -1124.67315756     A.U. after    8 cycles
 SCF Done:  E(RB3LYP) =  -1124.67315766     A.U. after    8 cycles
 SCF Done:  E(RB3LYP) =  -1124.67315772     A.U. after    7 cycles
 SCF Done:  E(RB3LYP) =  -1124.67315774     A.U. after    6 cycles
 Optimization completed.
    -- Stationary point found.
 Normal termination of Gaussian 16 at Thu Dec 17 20:41:27 2020.

 --------------------------------------------------------------------
 #N Geom=AllCheck Guess=TCheck SCRF=Check GenChk RB3LYP/6-31G(d) Freq
 --------------------------------------------------------------------

 Structure from the checkpoint file:  "JID_4218.chk"
 -------------------------------
 CID_135264081_JID_4218_neutraal
 -------------------------------
 Charge =  0 Multiplicity = 1

 SCF Done:  E(RB3LYP) =  -1124.67315774     A.U. after    1 cycles

  Exact polarizability: 142.255   8.943  95.754  -4.939  -4.883  96.163
 Approx polarizability: 193.958  17.956 139.178 -14.923 -18.092 151.331

                      1                      2                      3
                      A                      A                      A
 Frequencies --     15.4237                43.1138                45.2728
 Red. masses --      5.2013                 4.7976                 5.0198
 Frc consts  --      0.0007                 0.0053                 0.0061
 IR Inten    --      2.0813                 0.4899                 1.3407

                      4                      5                      6
                      A                      A                      A
 Frequencies --     67.3931                81.6072                87.9126
 Red. masses --      6.0410                 6.0800                 6.5630
 Frc consts  --      0.0162                 0.0239                 0.0299
 IR Inten    --      0.7320                 2.3557                 1.3021

                      7                      8                      9
                      A                      A                      A
 Frequencies --    100.0416               131.5492               138.4250
 Red. masses --      3.9791                 5.0046                 3.5010
 Frc consts  --      0.0235                 0.0510                 0.0395
 IR Inten    --      2.7914                 0.6064                 1.9119

                     10                     11                     12
                      A                      A                      A
 Frequencies --    160.4357               190.5788               206.1106
 Red. masses --      4.1805                 5.8599                 3.1224
 Frc consts  --      0.0634                 0.1254                 0.0782
 IR Inten    --      7.1346                18.5181                 2.4912

                     13                     14                     15
                      A                      A                      A
 Frequencies --    219.9892               250.7835               278.1316
 Red. masses --      2.8275                 3.5594                 1.2816
 Frc consts  --      0.0806                 0.1319                 0.0584
 IR Inten    --     19.7711                 2.2731                98.9761

                     16                     17                     18
                      A                      A                      A
 Frequencies --    303.4188               311.9429               362.7721
 Red. masses --      3.2025                 3.8455                 3.1444
 Frc consts  --      0.1737                 0.2205                 0.2438
 IR Inten    --      2.4853                 9.7690                 7.4395

                     19                     20                     21
                      A                      A                      A
 Frequencies --    422.1079               438.6118               477.9601
 Red. masses --      3.2522                 2.8140                 1.3785
 Frc consts  --      0.3414                 0.3190                 0.1855
 IR Inten    --     27.9437                36.0970               159.2214

                     22                     23                     24
                      A                      A                      A
 Frequencies --    501.5624               508.9941               527.0121
 Red. masses --      1.5817                 2.8264                 3.0340
 Frc consts  --      0.2344                 0.4314                 0.4965
 IR Inten    --      7.0422                 8.8682                35.1939

                     25                     26                     27
                      A                      A                      A
 Frequencies --    540.8138               616.2849               620.5008
 Red. masses --      5.2947                 3.6498                 4.0772
 Frc consts  --      0.9124                 0.8167                 0.9249
 IR Inten    --     34.5717                17.7381                 3.9060

                     28                     29                     30
                      A                      A                      A
 Frequencies --    728.4838               814.2922               864.6694
 Red. masses --      3.2818                 2.3201                 1.6062
 Frc consts  --      1.0261                 0.9064                 0.7076
 IR Inten    --     40.5155                 5.7523               125.4492

                     31                     32                     33
                      A                      A                      A
 Frequencies --    866.0092               870.0965               882.1897
 Red. masses --      2.9312                 1.8621                 2.2945
 Frc consts  --      1.2952                 0.8306                 1.0521
 IR Inten    --     23.8554                20.9359                 8.6993

                     34                     35                     36
                      A                      A                      A
 Frequencies --    940.2648               971.0560               997.0784
 Red. masses --      1.7541                 1.9260                 1.3733
 Frc consts  --      0.9137                 1.0700                 0.8044
 IR Inten    --     10.7295                 3.2962                26.1722

                     37                     38                     39
                      A                      A                      A
 Frequencies --   1034.3743              1047.9896              1050.3303
 Red. masses --      1.0754                 3.4327                 1.8019
 Frc consts  --      0.6779                 2.2213                 1.1712
 IR Inten    --     18.5062                49.5823                16.2973

                     40                     41                     42
                      A                      A                      A
 Frequencies --   1062.2017              1081.2582              1098.9207
 Red. masses --      1.6218                 2.5932                 3.5531
 Frc consts  --      1.0781                 1.7863                 2.5281
 IR Inten    --     38.5957                12.3330                75.3366

                     43                     44                     45
                      A                      A                      A
 Frequencies --   1111.6633              1192.2855              1209.8761
 Red. masses --      3.9822                 1.1436                 1.3621
 Frc consts  --      2.8995                 0.9578                 1.1747
 IR Inten    --    200.6351                17.2843                56.4841

                     46                     47                     48
                      A                      A                      A
 Frequencies --   1236.8118              1262.8048              1279.8574
 Red. masses --      1.3211                 1.3584                 1.9294
 Frc consts  --      1.1907                 1.2763                 1.8621
 IR Inten    --     31.6023                71.3830               200.1233

                     49                     50                     51
                      A                      A                      A
 Frequencies --   1285.4083              1313.1250              1322.2098
 Red. masses --      1.9665                 1.2385                 1.3475
 Frc consts  --      1.9144                 1.2582                 1.3880
 IR Inten    --    127.6162                46.1874                 3.7928

                     52                     53                     54
                      A                      A                      A
 Frequencies --   1342.8591              1364.8732              1419.3112
 Red. masses --      1.4236                 1.3298                 1.3626
 Frc consts  --      1.5125                 1.4595                 1.6172
 IR Inten    --     24.9785                26.3453                15.0151

                     55                     56                     57
                      A                      A                      A
 Frequencies --   1427.6312              1452.5398              1463.6476
 Red. masses --      1.3534                 1.1659                 1.2374
 Frc consts  --      1.6251                 1.4494                 1.5618
 IR Inten    --      2.5413                38.0022                38.9760

                     58                     59                     60
                      A                      A                      A
 Frequencies --   1474.6715              1478.7100              1483.4849
 Red. masses --      1.2050                 1.5618                 1.2145
 Frc consts  --      1.5439                 2.0121                 1.5748
 IR Inten    --      3.6324                70.6280                17.1855

                     61                     62                     63
                      A                      A                      A
 Frequencies --   1539.0223              1544.8395              1703.0120
 Red. masses --      1.0820                 1.0814                 4.6580
 Frc consts  --      1.5100                 1.5206                 7.9595
 IR Inten    --      4.6533                 6.3043                25.7282

                     64                     65                     66
                      A                      A                      A
 Frequencies --   1788.0738              3017.8683              3058.3412
 Red. masses --      7.8916                 1.0627                 1.0614
 Frc consts  --     14.8657                 5.7022                 5.8495
 IR Inten    --    344.7332                53.5428                21.0565

                     67                     68                     69
                      A                      A                      A
 Frequencies --   3069.5450              3092.2738              3095.7713
 Red. masses --      1.1013                 1.0642                 1.0622
 Frc consts  --      6.1137                 5.9957                 5.9979
 IR Inten    --     24.5690                 5.4453                 6.4128

                     70                     71                     72
                      A                      A                      A
 Frequencies --   3107.8651              3160.3804              3165.4703
 Red. masses --      1.0987                 1.1046                 1.1068
 Frc consts  --      6.2526                 6.5006                 6.5344
 IR Inten    --     19.8081                25.1661                 2.3769

                     73                     74                     75
                      A                      A                      A
 Frequencies --   3179.6824              3216.7805              3269.5970
 Red. masses --      1.0590                 1.0943                 1.1162
 Frc consts  --      6.3085                 6.6715                 7.0306
 IR Inten    --      6.1123                 4.3954                 6.9013

                     76                     77                     78
                      A                      A                      A
 Frequencies --   3418.4850              3713.3210              3765.5407
 Red. masses --      1.0667                 1.0652                 1.0665
 Frc consts  --      7.3445                 8.6536                 8.9099
 IR Inten    --    983.3498                58.0297                33.0846

 - Thermochemistry -
 -------------------
 Temperature   298.150 Kelvin.  Pressure   1.00000 Atm.
 Atom     1 has atomic number  6 and mass  12.00000

 Molecular mass:   226.05111 amu.
 Principal axes and moments of inertia in atomic units:
                           1         2         3
     Eigenvalues --  1963.510425417.120325817.16513
           X            0.99991   0.01113  -0.00753
           Y           -0.01073   0.99861   0.05156
           Z            0.00809  -0.05147   0.99864
 This molecule is an asymmetric top.
 Rotational symmetry number  1.
 Warning -- assumption of classical behavior for rotation
           may cause significant error
 Rotational temperatures (Kelvin)      0.04411     0.01599     0.01489
 Rotational constants (GHZ):           0.91914     0.33316     0.31024
 Zero-point vibrational energy     586084.1 (Joules/Mol)
                                  140.07746 (Kcal/Mol)
 Warning -- explicit consideration of  27 degrees of freedom as
           vibrations may cause significant error
 Vibrational temperatures:     22.19    62.03    65.14    96.96   117.41
          (Kelvin)            126.49   143.94   189.27   199.16   230.83
                              274.20   296.55   316.52   360.82   400.17
                              436.55   448.82   521.95   607.32   631.06
                              687.68   721.64   732.33   758.25   778.11
                              886.70   892.76  1048.13  1171.58  1244.07
                             1245.99  1251.87  1269.27  1352.83  1397.13
                             1434.57  1488.23  1507.82  1511.19  1528.27
                             1555.69  1581.10  1599.44  1715.43  1740.74
                             1779.50  1816.89  1841.43  1849.42  1889.29
                             1902.37  1932.07  1963.75  2042.07  2054.04
                             2089.88  2105.86  2121.72  2127.53  2134.40
                             2214.31  2222.68  2450.25  2572.64  4342.04
                             4400.27  4416.39  4449.09  4454.12  4471.52
                             4547.08  4554.41  4574.85  4628.23  4704.22
                             4918.44  5342.64  5417.77

 Zero-point correction=                           0.223228 (Hartree/Particle)
 Thermal correction to Energy=                    0.240311
 Thermal correction to Enthalpy=                  0.241255
 Thermal correction to Gibbs Free Energy=         0.176210
 Sum of electronic and zero-point Energies=          -1124.449930
 Sum of electronic and thermal Energies=             -1124.432847
 Sum of electronic and thermal Enthalpies=           -1124.431903
 Sum of electronic and thermal Free Energies=        -1124.496948

                     E (Thermal)             CV                S
                      KCal/Mol        Cal/Mol-Kelvin    Cal/Mol-Kelvin
 Total                  150.797             59.593            136.899
 Electronic               0.000              0.000              0.000
 Translational            0.889              2.981             42.149
 Rotational               0.889              2.981             32.492
 Vibrational            149.020             53.632             62.258
 Vibration     1          0.593              1.986              7.150
 Vibration     2          0.595              1.980              5.111
 Vibration     3          0.595              1.979              5.014
 Vibration     4          0.598              1.970              4.228
 Vibration     5          0.600              1.962              3.852
 Vibration     6          0.601              1.958              3.706
 Vibration     7          0.604              1.949              3.454
 Vibration     8          0.612              1.922              2.923
 Vibration     9          0.614              1.915              2.826
 Vibration    10          0.622              1.891              2.545
 Vibration    11          0.634              1.853              2.222
 Vibration    12          0.641              1.831              2.078
 Vibration    13          0.647              1.811              1.959
 Vibration    14          0.663              1.761              1.725
 Vibration    15          0.679              1.714              1.545
 Vibration    16          0.695              1.667              1.398
 Vibration    17          0.700              1.651              1.352
 Vibration    18          0.737              1.549              1.110
 Vibration    19          0.784              1.422              0.885
 Vibration    20          0.799              1.386              0.831
 Vibration    21          0.834              1.299              0.716
 Vibration    22          0.857              1.247              0.654
 Vibration    23          0.864              1.230              0.636
 Vibration    24          0.882              1.190              0.594
 Vibration    25          0.896              1.160              0.564
 Vibration    26          0.976              0.997              0.422
 Vibration    27          0.981              0.989              0.416

 Optimization completed.
    -- Stationary point found.
 Normal termination of Gaussian 16 at Thu Dec 17 20:48:30 2020.

 ----------------------------------------------------------------------
 # B3LYP/6-311++G(d,p) empiricaldispersion=gd3bj scf=xqc pop=npa geom=c
 heck
 ----------------------------------------------------------------------

 ---------------------------------------
 CID_135264081_JID_4218_Energie_neutraal
 ---------------------------------------
 Structure from the checkpoint file:  "JID_4218.chk"
 Charge =  0 Multiplicity = 1

 SCF Done:  E(RB3LYP) =  -1124.95046843     A.U. after   14 cycles
 Normal termination of Gaussian 16 at Thu Dec 17 20:51:10 2020.

 ----------------------------------------------------------------------
 # B3LYP/6-311++G(d,p) empiricaldispersion=gd3bj scf=xqc pop=npa geom=c
 heck
 ----------------------------------------------------------------------

 -------------------------------------
 CID_135264081_JID_4218_Energie_kation
 -------------------------------------
 Structure from the checkpoint file:  "JID_4218.chk"
 Charge =  1 Multiplicity = 2

 SCF Done:  E(UB3LYP) =  -1124.60048713     A.U. after   33 cycles
 SCF Done:  E(UB3LYP) =  -1124.60048713     a.u. after    1 cycles
 Normal termination of Gaussian 16 at Thu Dec 17 20:59:25 2020.
 Gaussian 16:  ES64L-G16RevA.03 25-Dec-2016

 ----------------------------------------------------------------------
 # B3LYP/6-311++G(d,p) empiricaldispersion=gd3bj scf=xqc pop=npa geom=c
 heck
 ----------------------------------------------------------------------

 ------------------------------------
 CID_135264081_JID_4218_Energie_anion
 ------------------------------------
 Structure from the checkpoint file:  "JID_4218.chk"
 Charge = -1 Multiplicity = 2

                         Standard orientation:
 ---------------------------------------------------------------------
 Center     Atomic      Atomic             Coordinates (Angstroms)
 Number     Number       Type             X           Y           Z
 ---------------------------------------------------------------------
      1          6           0       -4.981782    0.319751    0.237870
      2          6           0       -3.948392    0.881009   -0.394140
      3          6           0       -2.535283    0.681177   -0.002156
      4          8           0       -1.608972    1.195744   -0.615927
      5          8           0       -2.372236   -0.097680    1.074257
      6          6           0        0.243491   -1.337491   -1.634959
      7          6           0        1.594780   -1.274282   -0.915168
      8         16           0        1.507314   -0.502598    0.723899
      9          8           0        0.209498   -0.916743    1.343440
     10          8           0        2.753164   -0.786942    1.451757
     11          6           0        1.385323    1.292456    0.471584
     12          6           0        2.684932    1.926121    0.014303
     13          8           0        2.939639    1.511772   -1.324704
     14          8           0       -0.643184   -2.273356   -1.058346
     15          1           0       -4.832083   -0.328063    1.095463
     16          1           0       -6.003497    0.491663   -0.088037
     17          1           0       -4.079844    1.527765   -1.256001
     18          1           0       -1.404260   -0.222778    1.236484
     19          1           0        0.436901   -1.680616   -2.656459
     20          1           0       -0.202155   -0.336722   -1.700036
     21          1           0        1.974053   -2.280024   -0.709070
     22          1           0        2.340301   -0.692340   -1.462192
     23          1           0        0.545403    1.471580   -0.204403
     24          1           0        1.107569    1.658926    1.465322
     25          1           0        2.568124    3.018471    0.075199
     26          1           0        3.495463    1.625611    0.690877
     27          1           0        3.835009    1.794881   -1.562563
     28          1           0       -0.779712   -2.001589   -0.134774
 ---------------------------------------------------------------------

 SCF Done:  E(UB3LYP) =  -1124.95647832     A.U. after   33 cycles
 SCF Done:  E(UB3LYP) =  -1124.95647832     a.u. after    1 cycles

 The electronic state is 2-A.
 Alpha  occ. eigenvalues --  -88.95821 -19.03694 -19.03278 -19.02822 -19.02705
 Alpha  occ. eigenvalues --  -19.02370 -18.96930 -10.15643 -10.13896 -10.13276
 Alpha  occ. eigenvalues --  -10.11887 -10.11554 -10.04345 -10.03991  -8.02374
 Alpha  occ. eigenvalues --   -5.98657  -5.98517  -5.98436  -1.01915  -0.96981
 Alpha  occ. eigenvalues --   -0.93912  -0.93102  -0.91523  -0.87853  -0.72034
 Alpha  occ. eigenvalues --   -0.68807  -0.65595  -0.59161  -0.55778  -0.52563
 Alpha  occ. eigenvalues --   -0.49370  -0.45688  -0.44571  -0.42748  -0.42395
 Alpha  occ. eigenvalues --   -0.39831  -0.38215  -0.37027  -0.36192  -0.35850
 Alpha  occ. eigenvalues --   -0.35119  -0.33573  -0.33294  -0.32051  -0.31684
 Alpha  occ. eigenvalues --   -0.31452  -0.30610  -0.27302  -0.26240  -0.25610
 Alpha  occ. eigenvalues --   -0.24728  -0.24103  -0.23777  -0.22120  -0.20422
 Alpha  occ. eigenvalues --   -0.19820  -0.19174  -0.18274  -0.15947  -0.14925
 Alpha  occ. eigenvalues --    0.03722
 Alpha virt. eigenvalues --    0.05004   0.07866   0.08415   0.08874   0.09807
 Alpha virt. eigenvalues --    0.10897   0.11079   0.11276   0.11471   0.12738
 Alpha virt. eigenvalues --    0.12941   0.13736   0.14412   0.14835   0.15193

  Beta  occ. eigenvalues --  -88.95820 -19.03629 -19.03275 -19.02818 -19.02671
  Beta  occ. eigenvalues --  -19.02370 -18.96727 -10.15442 -10.13863 -10.13274
  Beta  occ. eigenvalues --  -10.11880 -10.11551 -10.04276 -10.03672  -8.02374
  Beta  occ. eigenvalues --   -5.98657  -5.98516  -5.98436  -1.01909  -0.96771
  Beta  occ. eigenvalues --   -0.93773  -0.93100  -0.91514  -0.87564  -0.72008
  Beta  occ. eigenvalues --   -0.68772  -0.65083  -0.59119  -0.55733  -0.52008
  Beta  occ. eigenvalues --   -0.49264  -0.45385  -0.44435  -0.42714  -0.42358
  Beta  occ. eigenvalues --   -0.39806  -0.38201  -0.36980  -0.36029  -0.35714
  Beta  occ. eigenvalues --   -0.34962  -0.33542  -0.33226  -0.31737  -0.31360
  Beta  occ. eigenvalues --   -0.31275  -0.30320  -0.27191  -0.26199  -0.25513
  Beta  occ. eigenvalues --   -0.24570  -0.24053  -0.23768  -0.22088  -0.20387
  Beta  occ. eigenvalues --   -0.19484  -0.18900  -0.18104  -0.14725  -0.14377
  Beta virt. eigenvalues --    0.06775   0.08028   0.08499   0.08622   0.09062
  Beta virt. eigenvalues --    0.09873   0.10963   0.11178   0.11337   0.11479
  Beta virt. eigenvalues --    0.12915   0.13003   0.13756   0.14444   0.14879

 Mulliken charges and spin densities:
               1          2
     1  C   -0.707271   0.335180
     2  C    0.201220   0.015292
     3  C   -0.156058   0.116608
     4  O   -0.319832   0.061477
     5  O   -0.282830   0.007314
     6  C   -0.660545   0.020529
     7  C   -0.384494  -0.009523
     8  S    0.529859  -0.225499
     9  O   -0.301967   0.006259
    10  O   -0.148050   0.000688
    11  C   -1.206884   0.751338
    12  C    1.124462  -1.567097
    13  O   -0.276698   0.032903
    14  O   -0.158558   0.000193
    15  H    0.116328  -0.016162
    16  H    0.101906  -0.015205
    17  H    0.141624  -0.001350
    18  H    0.405477   0.008179
    19  H    0.129684   0.017448
    20  H    0.268197  -0.018696
    21  H    0.248854   0.006515
    22  H    0.261430   0.017182
    23  H    0.408717  -0.006426
    24  H    0.156962   0.068660
    25  H   -0.296796   0.471230
    26  H   -0.090685   0.285759
    27  H   -0.348251   0.637509
    28  H    0.244197  -0.000303
 Sum of Mulliken charges =  -1.00000   1.00000

 Dipole moment (field-independent basis, Debye):
    X=             -0.1088    Y=             -2.5509    Z=              0.6407  Tot=              2.6324
 Quadrupole moment (field-independent basis, Debye-Ang):
   XX=           -167.9208   YY=           -121.5673   ZZ=           -113.9097
   XY=            -12.5589   XZ=              5.2311   YZ=              9.1310

 Summary of Natural Population Analysis:

                                       Natural Population
                Natural  -----------------------------------------------
    Atom  No    Charge         Core      Valence    Rydberg      Total
 -----------------------------------------------------------------------
      C    1   -0.09800      0.99960     2.09085    0.00755     3.09800
      C    2   -0.14882      0.99953     2.13924    0.01004     3.14882
      C    3    0.41164      0.99969     1.56446    0.02421     2.58836
      O    4   -0.32651      0.99986     3.32075    0.00590     4.32651
      O    5   -0.36000      0.99987     3.35223    0.00791     4.36000
      C    6   -0.02823      0.99959     2.01540    0.01323     3.02823
      C    7   -0.30651      0.99958     2.29369    0.01324     3.30651
      S    8    1.01744      4.99927     1.89320    0.09009     6.98256
      O    9   -0.49984      0.99989     3.49313    0.00682     4.49984
      O   10   -0.46528      0.99991     3.45953    0.00585     4.46528
      C   11   -0.30604      0.99956     2.29254    0.01394     3.30604
      C   12   -0.01964      0.99959     2.00654    0.01351     3.01964
      O   13   -0.37682      0.99989     3.36889    0.00803     4.37682
      O   14   -0.37239      0.99990     3.36602    0.00647     4.37239
      H   15    0.09199      0.00000     0.40690    0.00110     0.40801
      H   16    0.08043      0.00000     0.41846    0.00111     0.41957
      H   17    0.09401      0.00000     0.40502    0.00097     0.40599
      H   18    0.25024      0.00000     0.24604    0.00372     0.24976
      H   19    0.08842      0.00000     0.41023    0.00135     0.41158
      H   20    0.10299      0.00000     0.39544    0.00157     0.39701
      H   21    0.11588      0.00000     0.38278    0.00134     0.38412
      H   22    0.13325      0.00000     0.36531    0.00144     0.36675
      H   23    0.14216      0.00000     0.35610    0.00174     0.35784
      H   24    0.11965      0.00000     0.37924    0.00110     0.38035
      H   25    0.08685      0.00000     0.41147    0.00168     0.41315
      H   26    0.09004      0.00000     0.40813    0.00183     0.40996
      H   27    0.24188      0.00000     0.23604    0.02208     0.25812
      H   28    0.24118      0.00000     0.25632    0.00249     0.25882
 =======================================================================
   * Total *   -0.00000     17.99574    41.73395    0.27031    60.00000

 Normal termination of Gaussian 16 at Thu Dec 17 21:07:46 2020.
