 Gaussian 16, Revision A.03,

 -----------------------------------------------------------
 # opt freq B3LYP/6-31G(d) empiricaldispersion=gd3bj scf=xqc
 -----------------------------------------------------------

 -------------------------------
 CID_137013102_JID_6862_neutraal
 -------------------------------
 Symbolic Z-matrix:
 Charge =  0 Multiplicity = 1

 SCF Done:  E(RB3LYP) =  -705.828328589     A.U. after   14 cycles
 SCF Done:  E(RB3LYP) =  -705.834222324     A.U. after   12 cycles
 SCF Done:  E(RB3LYP) =  -705.835721297     A.U. after   12 cycles
 SCF Done:  E(RB3LYP) =  -705.836529721     A.U. after   12 cycles
 SCF Done:  E(RB3LYP) =  -705.836892180     A.U. after   12 cycles
 SCF Done:  E(RB3LYP) =  -705.837058633     A.U. after   12 cycles
 SCF Done:  E(RB3LYP) =  -705.837202603     A.U. after   11 cycles
 SCF Done:  E(RB3LYP) =  -705.837284020     A.U. after   12 cycles
 SCF Done:  E(RB3LYP) =  -705.837349519     A.U. after   11 cycles
 SCF Done:  E(RB3LYP) =  -705.837482405     A.U. after   12 cycles
 SCF Done:  E(RB3LYP) =  -705.837550077     A.U. after   10 cycles
 SCF Done:  E(RB3LYP) =  -705.837554343     A.U. after   10 cycles
 SCF Done:  E(RB3LYP) =  -705.837554691     A.U. after    9 cycles
 SCF Done:  E(RB3LYP) =  -705.837555073     A.U. after    8 cycles
 SCF Done:  E(RB3LYP) =  -705.837555114     A.U. after    7 cycles
 Optimization completed.
    -- Stationary point found.
 Normal termination of Gaussian 16 at Fri Dec 11 00:59:13 2020.

 --------------------------------------------------------------------
 #N Geom=AllCheck Guess=TCheck SCRF=Check GenChk RB3LYP/6-31G(d) Freq
 --------------------------------------------------------------------

 Structure from the checkpoint file:  "JID_6862.chk"
 -------------------------------
 CID_137013102_JID_6862_neutraal
 -------------------------------
 Charge =  0 Multiplicity = 1

 SCF Done:  E(RB3LYP) =  -705.837555114     A.U. after    1 cycles

  Exact polarizability: 216.778  -6.489 149.170   6.564   6.781  85.716
 Approx polarizability: 303.437 -10.080 254.721  10.435  18.844 130.323

                      1                      2                      3
                      A                      A                      A
 Frequencies --     31.1527                54.7523                75.7104
 Red. masses --      2.8249                 4.3279                 4.8644
 Frc consts  --      0.0016                 0.0076                 0.0164
 IR Inten    --      0.0885                 0.7825                 0.6881

                      4                      5                      6
                      A                      A                      A
 Frequencies --     89.1615               105.7995               174.5881
 Red. masses --      4.1207                 4.1279                 3.6850
 Frc consts  --      0.0193                 0.0272                 0.0662
 IR Inten    --      0.3869                 0.1607                 0.6032

                      7                      8                      9
                      A                      A                      A
 Frequencies --    201.9712               238.3768               254.6310
 Red. masses --      3.6372                 1.0814                 1.5850
 Frc consts  --      0.0874                 0.0362                 0.0605
 IR Inten    --      0.3069                 0.9547                19.0804

                     10                     11                     12
                      A                      A                      A
 Frequencies --    259.6988               276.9231               289.4202
 Red. masses --      1.1443                 2.0318                 3.0286
 Frc consts  --      0.0455                 0.0918                 0.1495
 IR Inten    --      0.3804                33.6174                 0.1940

                     13                     14                     15
                      A                      A                      A
 Frequencies --    315.5513               318.8292               353.7216
 Red. masses --      4.3054                 3.9865                 4.7559
 Frc consts  --      0.2526                 0.2388                 0.3506
 IR Inten    --      2.6485                 0.7921                 3.8271

                     16                     17                     18
                      A                      A                      A
 Frequencies --    424.5253               430.9376               446.6289
 Red. masses --      4.3505                 2.8229                 3.0674
 Frc consts  --      0.4619                 0.3089                 0.3605
 IR Inten    --      1.1081                 5.5929                 0.8268

                     19                     20                     21
                      A                      A                      A
 Frequencies --    455.2555               494.3971               519.5933
 Red. masses --      2.1543                 2.5462                 2.7298
 Frc consts  --      0.2631                 0.3667                 0.4342
 IR Inten    --     48.5923                22.5186                11.0910

                     22                     23                     24
                      A                      A                      A
 Frequencies --    546.3390               560.9137               629.8489
 Red. masses --      1.2814                 2.4898                 3.4677
 Frc consts  --      0.2254                 0.4615                 0.8105
 IR Inten    --     77.0542                42.1225                 2.9703

                     25                     26                     27
                      A                      A                      A
 Frequencies --    671.6924               676.8408               699.3776
 Red. masses --      3.3292                 4.2949                 3.7546
 Frc consts  --      0.8850                 1.1592                 1.0820
 IR Inten    --     91.7411                10.9286                47.5399

                     28                     29                     30
                      A                      A                      A
 Frequencies --    717.4639               745.1198               768.0679
 Red. masses --      5.0703                 4.0629                 1.6243
 Frc consts  --      1.5377                 1.3290                 0.5646
 IR Inten    --     19.0967                 1.4434                39.1954

                     31                     32                     33
                      A                      A                      A
 Frequencies --    780.0547               797.3511               847.1154
 Red. masses --      2.6572                 1.7671                 1.4704
 Frc consts  --      0.9526                 0.6619                 0.6217
 IR Inten    --     25.8096               160.9810                20.7257

                     34                     35                     36
                      A                      A                      A
 Frequencies --    871.2915               911.0290               916.5850
 Red. masses --      4.5707                 1.5729                 2.3814
 Frc consts  --      2.0444                 0.7692                 1.1788
 IR Inten    --      3.8186                 5.4139                 3.8545

                     37                     38                     39
                      A                      A                      A
 Frequencies --    941.8465               955.0426               973.5178
 Red. masses --      1.1792                 1.2973                 1.4975
 Frc consts  --      0.6163                 0.6971                 0.8362
 IR Inten    --      0.6382                 0.1665                 0.0844

                     40                     41                     42
                      A                      A                      A
 Frequencies --   1001.7681              1018.4022              1091.2694
 Red. masses --      4.0398                 3.5730                 2.0267
 Frc consts  --      2.3886                 2.1834                 1.4220
 IR Inten    --     20.1466                 9.3427                13.8307

                     43                     44                     45
                      A                      A                      A
 Frequencies --   1101.7626              1115.8015              1136.6712
 Red. masses --      1.5364                 1.9044                 2.2857
 Frc consts  --      1.0988                 1.3970                 1.7399
 IR Inten    --      8.0336                23.3553                 1.0194

                     46                     47                     48
                      A                      A                      A
 Frequencies --   1150.5716              1183.7660              1204.8075
 Red. masses --      1.6130                 1.7315                 3.0360
 Frc consts  --      1.2581                 1.4296                 2.5965
 IR Inten    --      2.0435                 2.7543                 4.2368

                     49                     50                     51
                      A                      A                      A
 Frequencies --   1217.5472              1238.2990              1270.9533
 Red. masses --      1.7622                 1.6825                 1.7174
 Frc consts  --      1.5391                 1.5201                 1.6345
 IR Inten    --     23.0015                67.5786                43.7452

                     52                     53                     54
                      A                      A                      A
 Frequencies --   1296.9445              1310.9684              1350.3114
 Red. masses --      2.0970                 2.7315                 3.4180
 Frc consts  --      2.0782                 2.7659                 3.6719
 IR Inten    --     23.5420                65.8495                34.7451

                     55                     56                     57
                      A                      A                      A
 Frequencies --   1362.5293              1384.4520              1396.2692
 Red. masses --      1.3283                 1.9542                 1.7507
 Frc consts  --      1.4529                 2.2069                 2.0110
 IR Inten    --      2.9079                13.4206                33.2060

                     58                     59                     60
                      A                      A                      A
 Frequencies --   1426.5905              1436.1523              1447.1629
 Red. masses --      1.2306                 2.6535                 1.2352
 Frc consts  --      1.4756                 3.2245                 1.5242
 IR Inten    --      2.8328                 8.7705                 3.2268

                     61                     62                     63
                      A                      A                      A
 Frequencies --   1486.3021              1507.8269              1517.1776
 Red. masses --      2.8104                 4.0728                 1.0447
 Frc consts  --      3.6579                 5.4556                 1.4168
 IR Inten    --      2.9749                48.4772                 0.0619

                     64                     65                     66
                      A                      A                      A
 Frequencies --   1521.5178              1533.0625              1536.7533
 Red. masses --      1.0485                 1.0561                 1.1580
 Frc consts  --      1.4301                 1.4624                 1.6113
 IR Inten    --      1.9305                12.8878                 8.1121

                     67                     68                     69
                      A                      A                      A
 Frequencies --   1549.4645              1563.2205              1619.0321
 Red. masses --      2.8901                 4.1433                 3.9892
 Frc consts  --      4.0881                 5.9654                 6.1609
 IR Inten    --     31.6872               188.9722                91.9698

                     70                     71                     72
                      A                      A                      A
 Frequencies --   1644.1716              1681.8859              1684.6173
 Red. masses --      5.4115                 2.8894                 1.6279
 Frc consts  --      8.6191                 4.8156                 2.7219
 IR Inten    --     18.8036                13.2176               132.1067

                     73                     74                     75
                      A                      A                      A
 Frequencies --   3033.6720              3043.1602              3047.5593
 Red. masses --      1.0841                 1.0349                 1.0356
 Frc consts  --      5.8783                 5.6465                 5.6670
 IR Inten    --     17.0210                24.9824                29.1871

                     76                     77                     78
                      A                      A                      A
 Frequencies --   3106.3885              3113.2946              3121.1107
 Red. masses --      1.1024                 1.1015                 1.1028
 Frc consts  --      6.2676                 6.2905                 6.3294
 IR Inten    --      1.4613                92.9739                25.8091

                     79                     80                     81
                      A                      A                      A
 Frequencies --   3123.1037              3181.7783              3182.6336
 Red. masses --      1.1024                 1.0890                 1.0888
 Frc consts  --      6.3351                 6.4957                 6.4977
 IR Inten    --     32.5399                10.4082                14.7542

                     82                     83                     84
                      A                      A                      A
 Frequencies --   3217.4955              3264.8474              3533.4109
 Red. masses --      1.0930                 1.0964                 1.0481
 Frc consts  --      6.6668                 6.8858                 7.7095
 IR Inten    --      9.8292                 0.1404                11.6891

                     85                     86                     87
                      A                      A                      A
 Frequencies --   3631.6548              3639.5235              3669.8635
 Red. masses --      1.0968                 1.0653                 1.0809
 Frc consts  --      8.5226                 8.3143                 8.5772
 IR Inten    --     11.2284               146.8273                57.5852

 - Thermochemistry -
 -------------------
 Temperature   298.150 Kelvin.  Pressure   1.00000 Atm.
 Atom     1 has atomic number  6 and mass  12.00000

 Molecular mass:   217.12151 amu.
 Principal axes and moments of inertia in atomic units:
                           1         2         3
     Eigenvalues --  1917.867766079.366997410.17935
           X            0.99979   0.02013   0.00337
           Y           -0.02013   0.99980  -0.00039
           Z           -0.00338   0.00032   0.99999
 This molecule is an asymmetric top.
 Rotational symmetry number  1.
 Warning -- assumption of classical behavior for rotation
           may cause significant error
 Rotational temperatures (Kelvin)      0.04516     0.01425     0.01169
 Rotational constants (GHZ):           0.94101     0.29686     0.24355
 Zero-point vibrational energy     680188.6 (Joules/Mol)
                                  162.56897 (Kcal/Mol)
 Warning -- explicit consideration of  23 degrees of freedom as
           vibrations may cause significant error
 Vibrational temperatures:     44.82    78.78   108.93   128.28   152.22
          (Kelvin)            251.19   290.59   342.97   366.36   373.65
                              398.43   416.41   454.01   458.72   508.93
                              610.80   620.02   642.60   655.01   711.33
                              747.58   786.06   807.03   906.21   966.42
                              973.82  1006.25  1032.27  1072.06  1105.08
                             1122.32  1147.21  1218.81  1253.59  1310.77
                             1318.76  1355.11  1374.09  1400.67  1441.32
                             1465.25  1570.09  1585.19  1605.39  1635.42
                             1655.42  1703.18  1733.45  1751.78  1781.64
                             1828.62  1866.01  1886.19  1942.80  1960.38
                             1991.92  2008.92  2052.55  2066.30  2082.14
                             2138.46  2169.43  2182.88  2189.12  2205.74
                             2211.05  2229.33  2249.13  2329.43  2365.60
                             2419.86  2423.79  4364.78  4378.43  4384.76
                             4469.40  4479.34  4490.58  4493.45  4577.87
                             4579.10  4629.26  4697.39  5083.79  5225.14
                             5236.46  5280.11

 Zero-point correction=                           0.259070 (Hartree/Particle)
 Thermal correction to Energy=                    0.274124
 Thermal correction to Enthalpy=                  0.275068
 Thermal correction to Gibbs Free Energy=         0.216665
 Sum of electronic and zero-point Energies=           -705.578485
 Sum of electronic and thermal Energies=              -705.563431
 Sum of electronic and thermal Enthalpies=            -705.562487
 Sum of electronic and thermal Free Energies=         -705.620890

                     E (Thermal)             CV                S
                      KCal/Mol        Cal/Mol-Kelvin    Cal/Mol-Kelvin
 Total                  172.016             58.582            122.920
 Electronic               0.000              0.000              0.000
 Translational            0.889              2.981             42.029
 Rotational               0.889              2.981             32.824
 Vibrational            170.238             52.620             48.067
 Vibration     1          0.594              1.983              5.755
 Vibration     2          0.596              1.976              4.638
 Vibration     3          0.599              1.965              3.999
 Vibration     4          0.602              1.957              3.678
 Vibration     5          0.605              1.945              3.345
 Vibration     6          0.627              1.874              2.386
 Vibration     7          0.639              1.837              2.115
 Vibration     8          0.656              1.782              1.815
 Vibration     9          0.665              1.755              1.698
 Vibration    10          0.668              1.746              1.664
 Vibration    11          0.678              1.716              1.553
 Vibration    12          0.686              1.693              1.477
 Vibration    13          0.703              1.644              1.333
 Vibration    14          0.705              1.638              1.316
 Vibration    15          0.730              1.568              1.150
 Vibration    16          0.787              1.417              0.877
 Vibration    17          0.792              1.403              0.856
 Vibration    18          0.806              1.368              0.806
 Vibration    19          0.814              1.349              0.780
 Vibration    20          0.850              1.262              0.672
 Vibration    21          0.875              1.207              0.611
 Vibration    22          0.902              1.148              0.552
 Vibration    23          0.917              1.116              0.522

                           ! Non-Optimized Parameters !
 Normal termination of Gaussian 16 at Fri Dec 11 01:08:53 2020.

 ----------------------------------------------------------------------
 # B3LYP/6-311++G(d,p) empiricaldispersion=gd3bj scf=xqc pop=npa geom=c
 heck
 ----------------------------------------------------------------------

 ---------------------------------------
 CID_137013102_JID_6862_Energie_neutraal
 ---------------------------------------
 Structure from the checkpoint file:  "JID_6862.chk"
 Charge =  0 Multiplicity = 1

 SCF Done:  E(RB3LYP) =  -706.042328846     A.U. after   16 cycles
 Normal termination of Gaussian 16 at Fri Dec 11 01:13:05 2020.

 ----------------------------------------------------------------------
 # B3LYP/6-311++G(d,p) empiricaldispersion=gd3bj scf=xqc pop=npa geom=c
 heck
 ----------------------------------------------------------------------

 -------------------------------------
 CID_137013102_JID_6862_Energie_kation
 -------------------------------------
 Structure from the checkpoint file:  "JID_6862.chk"
 Charge =  1 Multiplicity = 2

 SCF Done:  E(UB3LYP) =  -705.763642964     A.U. after   25 cycles
 Normal termination of Gaussian 16 at Fri Dec 11 01:22:15 2020.
 Gaussian 16:  ES64L-G16RevA.03 25-Dec-2016

 ----------------------------------------------------------------------
 # B3LYP/6-311++G(d,p) empiricaldispersion=gd3bj scf=xqc pop=npa geom=c
 heck
 ----------------------------------------------------------------------

 ------------------------------------
 CID_137013102_JID_6862_Energie_anion
 ------------------------------------
 Structure from the checkpoint file:  "JID_6862.chk"
 Charge = -1 Multiplicity = 2

                         Standard orientation:
 ---------------------------------------------------------------------
 Center     Atomic      Atomic             Coordinates (Angstroms)
 Number     Number       Type             X           Y           Z
 ---------------------------------------------------------------------
      1          6           0       -3.614987   -1.701566   -1.065834
      2          6           0       -3.542031   -0.720723    0.116246
      3          6           0       -3.594626   -1.470420    1.458148
      4          6           0       -2.321746    0.179756    0.025998
      5          6           0       -1.028871   -0.347410    0.039781
      6          6           0        0.110115    0.467215   -0.028857
      7          6           0       -0.057242    1.865456   -0.123772
      8          6           0       -1.343273    2.406659   -0.132227
      9          6           0       -2.453994    1.571497   -0.055811
     10          8           0        0.995267    2.724582   -0.220361
     11          6           0        1.454097   -0.113144   -0.035312
     12          6           0        2.649537    0.293622    0.555268
     13          6           0        3.604509   -0.683126    0.160847
     14          7           0        3.062902   -1.618347   -0.618789
     15          7           0        1.754592   -1.250508   -0.716470
     16          7           0        4.966328   -0.699683    0.457878
     17          1           0       -2.764215   -2.393446   -1.056769
     18          1           0       -3.602534   -1.168383   -2.022301
     19          1           0       -4.530750   -2.302034   -1.017337
     20          1           0       -4.426438   -0.071764    0.063494
     21          1           0       -2.737913   -2.146330    1.564788
     22          1           0       -3.574087   -0.771262    2.300617
     23          1           0       -4.507060   -2.073639    1.531794
     24          1           0       -0.885134   -1.420592    0.137274
     25          1           0       -1.451208    3.483546   -0.209916
     26          1           0       -3.448469    2.011086   -0.061561
     27          1           0        1.808454    2.202267   -0.352394
     28          1           0        2.786870    1.109951    1.250374
     29          1           0        1.156525   -1.737764   -1.365665
     30          1           0        5.383300   -1.599549    0.244105
     31          1           0        5.174832   -0.425884    1.411207
 ---------------------------------------------------------------------

 SCF Done:  E(UB3LYP) =  -706.032453593     A.U. after   33 cycles
 SCF Done:  E(UB3LYP) =  -706.032453593     a.u. after    1 cycles

 The electronic state is 2-A.
 Alpha  occ. eigenvalues --  -19.04871 -14.26982 -14.21488 -14.21333 -10.12931
 Alpha  occ. eigenvalues --  -10.12279 -10.11138 -10.08142 -10.07610 -10.06843
 Alpha  occ. eigenvalues --  -10.06435 -10.06380 -10.06221 -10.06216 -10.06086
 Alpha  occ. eigenvalues --  -10.05925  -0.96129  -0.93715  -0.81257  -0.75714
 Alpha  occ. eigenvalues --   -0.71417  -0.69490  -0.67597  -0.63751  -0.62327
 Alpha  occ. eigenvalues --   -0.58873  -0.53531  -0.52101  -0.50534  -0.48814
 Alpha  occ. eigenvalues --   -0.46516  -0.44406  -0.43047  -0.39895  -0.37856
 Alpha  occ. eigenvalues --   -0.36306  -0.35371  -0.34645  -0.33748  -0.33157
 Alpha  occ. eigenvalues --   -0.32793  -0.31935  -0.31465  -0.30898  -0.29872
 Alpha  occ. eigenvalues --   -0.29115  -0.28219  -0.25298  -0.24724  -0.23478
 Alpha  occ. eigenvalues --   -0.23029  -0.22749  -0.22419  -0.19487  -0.17348
 Alpha  occ. eigenvalues --   -0.13782  -0.12041  -0.10845   0.04377
 Alpha virt. eigenvalues --    0.05746   0.06221   0.07611   0.08065   0.08526
 Alpha virt. eigenvalues --    0.08983   0.09757   0.09829   0.10208   0.10725
 Alpha virt. eigenvalues --    0.11612   0.11865   0.12275   0.12756   0.13303

  Beta  occ. eigenvalues --  -19.04869 -14.26886 -14.21449 -14.21256 -10.12933
  Beta  occ. eigenvalues --  -10.12296 -10.11102 -10.08134 -10.07509 -10.06889
  Beta  occ. eigenvalues --  -10.06367 -10.06315 -10.06193 -10.06087 -10.06024
  Beta  occ. eigenvalues --  -10.05874  -0.96117  -0.93579  -0.81194  -0.75557
  Beta  occ. eigenvalues --   -0.71291  -0.69401  -0.67458  -0.63526  -0.62210
  Beta  occ. eigenvalues --   -0.58830  -0.53276  -0.52038  -0.50433  -0.48737
  Beta  occ. eigenvalues --   -0.46429  -0.44313  -0.42972  -0.39827  -0.37752
  Beta  occ. eigenvalues --   -0.36233  -0.35326  -0.34512  -0.33634  -0.32973
  Beta  occ. eigenvalues --   -0.32705  -0.31848  -0.31401  -0.30802  -0.29775
  Beta  occ. eigenvalues --   -0.29081  -0.28156  -0.25238  -0.24663  -0.23382
  Beta  occ. eigenvalues --   -0.22923  -0.22691  -0.22134  -0.19346  -0.16756
  Beta  occ. eigenvalues --   -0.13249  -0.11780  -0.10479
  Beta virt. eigenvalues --    0.06442   0.06913   0.07680   0.07900   0.08259
  Beta virt. eigenvalues --    0.08715   0.09361   0.09881   0.10081   0.10419
  Beta virt. eigenvalues --    0.10808   0.11842   0.11957   0.12398   0.12926

 Mulliken charges and spin densities:
               1          2
     1  C    0.339274  -0.997003
     2  C   -1.212574   1.436468
     3  C    0.067211  -0.734652
     4  C    0.242890   0.112997
     5  C   -0.124900  -0.352945
     6  C    2.787988  -0.844102
     7  C   -0.828495  -0.221022
     8  C   -0.490393  -0.039687
     9  C   -0.505917   0.304930
    10  O   -0.265018   0.009907
    11  C    0.353802  -0.796576
    12  C   -0.777873   0.576798
    13  C    0.072226  -0.264702
    14  N   -0.127343  -0.003855
    15  N   -0.074405   0.019310
    16  N   -0.360684   0.018028
    17  H   -0.187383   0.329339
    18  H    0.064190   0.063728
    19  H   -0.319895   0.459564
    20  H   -0.081982   0.254365
    21  H    0.001055   0.144061
    22  H    0.027588   0.103866
    23  H   -0.173952   0.311553
    24  H    0.325417  -0.187887
    25  H    0.115116   0.032906
    26  H    0.055710   0.062222
    27  H    0.248728   0.050273
    28  H   -0.049658   0.243291
    29  H    0.174415   0.119219
    30  H   -0.060880   0.314138
    31  H   -0.234261   0.475467
 Sum of Mulliken charges =  -1.00000   1.00000

 Dipole moment (field-independent basis, Debye):
    X=             -1.9628    Y=              2.3090    Z=             -0.5103  Tot=              3.0731
 Quadrupole moment (field-independent basis, Debye-Ang):
   XX=           -193.5776   YY=           -133.0270   ZZ=           -119.2735
   XY=             -4.9379   XZ=             -3.1435   YZ=             -1.1580

 Summary of Natural Population Analysis:

                                       Natural Population
                Natural  -----------------------------------------------
    Atom  No    Charge         Core      Valence    Rydberg      Total
 -----------------------------------------------------------------------
      C    1   -0.28035      0.99965     2.27496    0.00574     3.28035
      C    2   -0.11698      0.99958     2.10687    0.01053     3.11698
      C    3   -0.28083      0.99965     2.27517    0.00600     3.28083
      C    4   -0.03382      0.99949     2.02377    0.01055     3.03382
      C    5   -0.06600      0.99949     2.05922    0.00729     3.06600
      C    6   -0.06055      0.99946     2.05270    0.00839     3.06055
      C    7    0.16931      0.99936     1.81942    0.01191     2.83069
      C    8   -0.11984      0.99953     2.11117    0.00914     3.11984
      C    9   -0.06850      0.99952     2.06061    0.00836     3.06850
      O   10   -0.34822      0.99987     3.34181    0.00653     4.34822
      C   11    0.08682      0.99954     1.90161    0.01203     2.91318
      C   12   -0.19300      0.99947     2.18423    0.00929     3.19300
      C   13    0.16289      0.99958     1.82150    0.01603     2.83711
      N   14   -0.17896      0.99970     2.66666    0.01261     3.67896
      N   15   -0.16140      0.99965     2.64984    0.01191     3.66140
      N   16   -0.40550      0.99972     2.89495    0.01083     3.90550
      H   17    0.09650      0.00000     0.40242    0.00108     0.40350
      H   18    0.09990      0.00000     0.39927    0.00084     0.40010
      H   19    0.09749      0.00000     0.40130    0.00121     0.40251
      H   20    0.09371      0.00000     0.40426    0.00203     0.40629
      H   21    0.09645      0.00000     0.40263    0.00092     0.40355
      H   22    0.10072      0.00000     0.39852    0.00077     0.39928
      H   23    0.09659      0.00000     0.40252    0.00088     0.40341
      H   24    0.09665      0.00000     0.40154    0.00181     0.40335
      H   25    0.10006      0.00000     0.39859    0.00135     0.39994
      H   26    0.09452      0.00000     0.40446    0.00103     0.40548
      H   27    0.24224      0.00000     0.25457    0.00318     0.25776
      H   28    0.11038      0.00000     0.38870    0.00093     0.38962
      H   29    0.19729      0.00000     0.30035    0.00236     0.30271
      H   30    0.18717      0.00000     0.31000    0.00283     0.31283
      H   31    0.18527      0.00000     0.31162    0.00310     0.31473
 =======================================================================
   * Total *   -0.00000     15.99328    41.82523    0.18149    58.00000

 Normal termination of Gaussian 16 at Fri Dec 11 01:34:15 2020.
