 Gaussian 16, Revision A.03,

 -----------------------------------------------------------
 # opt freq B3LYP/6-31G(d) empiricaldispersion=gd3bj scf=xqc
 -----------------------------------------------------------

 ------------------------------
 CID_15105526_JID_1726_neutraal
 ------------------------------
 Symbolic Z-matrix:
 Charge =  0 Multiplicity = 1

 SCF Done:  E(RB3LYP) =  -888.995658673     A.U. after   14 cycles
 SCF Done:  E(RB3LYP) =  -889.004477171     A.U. after   13 cycles
 SCF Done:  E(RB3LYP) =  -889.006319808     A.U. after   13 cycles
 SCF Done:  E(RB3LYP) =  -889.007026769     A.U. after   12 cycles
 SCF Done:  E(RB3LYP) =  -889.007090474     A.U. after   12 cycles
 SCF Done:  E(RB3LYP) =  -889.007212710     A.U. after   11 cycles
 SCF Done:  E(RB3LYP) =  -889.007234447     A.U. after   10 cycles
 SCF Done:  E(RB3LYP) =  -889.007249701     A.U. after    9 cycles
 SCF Done:  E(RB3LYP) =  -889.007262639     A.U. after   10 cycles
 SCF Done:  E(RB3LYP) =  -889.007286881     A.U. after   10 cycles
 SCF Done:  E(RB3LYP) =  -889.007785392     A.U. after    9 cycles
 SCF Done:  E(RB3LYP) =  -889.007785813     A.U. after    8 cycles
 SCF Done:  E(RB3LYP) =  -889.007786197     A.U. after    8 cycles
 SCF Done:  E(RB3LYP) =  -889.007786453     A.U. after    8 cycles
 SCF Done:  E(RB3LYP) =  -889.007786604     A.U. after    8 cycles
 Optimization completed.
    -- Stationary point found.
 Normal termination of Gaussian 16 at Tue Dec  8 21:01:08 2020.

 --------------------------------------------------------------------
 #N Geom=AllCheck Guess=TCheck SCRF=Check GenChk RB3LYP/6-31G(d) Freq
 --------------------------------------------------------------------

 Structure from the checkpoint file:  "JID_1726.chk"
 ------------------------------
 CID_15105526_JID_1726_neutraal
 ------------------------------
 Charge =  0 Multiplicity = 1

 SCF Done:  E(RB3LYP) =  -889.007786604     A.U. after    1 cycles

  Exact polarizability: 129.912 -10.234 100.792  10.637   0.202  62.897
 Approx polarizability: 168.100 -16.846 163.092  19.515  -0.827  97.750

                      1                      2                      3
                      A                      A                      A
 Frequencies --     35.9643                52.6780                64.8665
 Red. masses --      8.2678                 4.9708                 6.6160
 Frc consts  --      0.0063                 0.0081                 0.0164
 IR Inten    --      1.9834                 2.2555                 0.6785

                      4                      5                      6
                      A                      A                      A
 Frequencies --    100.7036               123.1249               258.7600
 Red. masses --      6.8339                 2.4431                 4.5939
 Frc consts  --      0.0408                 0.0218                 0.1812
 IR Inten    --      1.7106                 1.5129                14.5049

                      7                      8                      9
                      A                      A                      A
 Frequencies --    298.3283               307.0202               373.3747
 Red. masses --      2.6428                 3.9835                 1.3730
 Frc consts  --      0.1386                 0.2212                 0.1128
 IR Inten    --     40.0150                28.3726               138.7035

                     10                     11                     12
                      A                      A                      A
 Frequencies --    429.1565               462.7567               489.1038
 Red. masses --      2.9407                 4.2091                 1.3560
 Frc consts  --      0.3191                 0.5311                 0.1911
 IR Inten    --     26.2982                10.7362               127.8413

                     13                     14                     15
                      A                      A                      A
 Frequencies --    544.2773               551.5124               578.5969
 Red. masses --      2.9406                 2.6624                 2.1466
 Frc consts  --      0.5132                 0.4771                 0.4234
 IR Inten    --      2.4962                39.7501                74.2027

                     16                     17                     18
                      A                      A                      A
 Frequencies --    595.6558               614.7650               652.5221
 Red. masses --      1.3404                 2.0718                 2.7883
 Frc consts  --      0.2802                 0.4613                 0.6995
 IR Inten    --      0.0968                37.0739                16.4388

                     19                     20                     21
                      A                      A                      A
 Frequencies --    669.3512               753.7641               785.0886
 Red. masses --      3.0142                 2.2720                 2.2906
 Frc consts  --      0.7957                 0.7605                 0.8318
 IR Inten    --     13.0410                40.8330                47.6948

                     22                     23                     24
                      A                      A                      A
 Frequencies --    824.2740               865.0469               918.4063
 Red. masses --      2.8043                 3.6918                 2.3105
 Frc consts  --      1.1226                 1.6277                 1.1482
 IR Inten    --     16.9934                50.4556                 6.9697

                     25                     26                     27
                      A                      A                      A
 Frequencies --    941.8112               982.0292              1007.5769
 Red. masses --      2.5586                 1.9337                 1.9523
 Frc consts  --      1.3371                 1.0987                 1.1677
 IR Inten    --     31.5586                 6.2648                21.8827

                     28                     29                     30
                      A                      A                      A
 Frequencies --   1047.2610              1089.3900              1106.1035
 Red. masses --      2.5039                 2.0747                 1.9863
 Frc consts  --      1.6180                 1.4507                 1.4318
 IR Inten    --     47.4818                24.7927                27.9687

                     31                     32                     33
                      A                      A                      A
 Frequencies --   1163.1057              1212.0307              1238.8935
 Red. masses --      2.5217                 1.5336                 1.5829
 Frc consts  --      2.0100                 1.3273                 1.4314
 IR Inten    --     18.9760                 8.8968               108.4151

                     34                     35                     36
                      A                      A                      A
 Frequencies --   1253.1088              1307.5536              1316.3363
 Red. masses --      2.3866                 1.7175                 1.5036
 Frc consts  --      2.2080                 1.7301                 1.5350
 IR Inten    --    130.7616                81.3920                76.4458

                     37                     38                     39
                      A                      A                      A
 Frequencies --   1324.6863              1365.9285              1390.1353
 Red. masses --      1.6332                 1.3916                 1.5016
 Frc consts  --      1.6886                 1.5297                 1.7097
 IR Inten    --     27.5782                34.7929                49.5983

                     40                     41                     42
                      A                      A                      A
 Frequencies --   1448.6513              1457.3485              1496.8958
 Red. masses --      2.2071                 1.7853                 1.3743
 Frc consts  --      2.7289                 2.2340                 1.8143
 IR Inten    --      9.6746                70.4466                79.8103

                     43                     44                     45
                      A                      A                      A
 Frequencies --   1503.0801              1526.8342              1564.9163
 Red. masses --      1.0948                 1.1015                 1.5369
 Frc consts  --      1.4573                 1.5129                 2.2176
 IR Inten    --     13.8635                16.3458               171.2497

                     46                     47                     48
                      A                      A                      A
 Frequencies --   1632.7506              1850.0861              3070.3292
 Red. masses --      1.4450                10.6312                 1.0701
 Frc consts  --      2.2697                21.4397                 5.9436
 IR Inten    --    234.3745               446.7849                10.3846

                     49                     50                     51
                      A                      A                      A
 Frequencies --   3091.6308              3110.7147              3135.0536
 Red. masses --      1.0630                 1.0863                 1.1019
 Frc consts  --      5.9863                 6.1935                 6.3807
 IR Inten    --     11.9454                20.5784                 7.2356

                     52                     53                     54
                      A                      A                      A
 Frequencies --   3146.5088              3482.3528              3539.0570
 Red. masses --      1.0994                 1.0752                 1.0766
 Frc consts  --      6.4132                 7.6820                 7.9448
 IR Inten    --     14.7416                 1.7777                25.9348

                     55                     56                     57
                      A                      A                      A
 Frequencies --   3567.5741              3626.1534              3720.0138
 Red. masses --      1.0476                 1.0782                 1.1017
 Frc consts  --      7.8561                 8.3528                 8.9827
 IR Inten    --     40.4714                28.8183                77.4776

 - Thermochemistry -
 -------------------
 Temperature   298.150 Kelvin.  Pressure   1.00000 Atm.
 Atom     1 has atomic number  6 and mass  12.00000

 Molecular mass:   174.05753 amu.
 Principal axes and moments of inertia in atomic units:
                           1         2         3
     Eigenvalues --   840.842554022.117194634.20108
           X            0.99998  -0.00542   0.00159
           Y            0.00541   0.99997   0.00589
           Z           -0.00163  -0.00588   0.99998
 This molecule is an asymmetric top.
 Rotational symmetry number  1.
 Warning -- assumption of classical behavior for rotation
           may cause significant error
 Rotational temperatures (Kelvin)      0.10301     0.02153     0.01869
 Rotational constants (GHZ):           2.14635     0.44870     0.38944
 Zero-point vibrational energy     448988.4 (Joules/Mol)
                                  107.31080 (Kcal/Mol)
 Warning -- explicit consideration of  17 degrees of freedom as
           vibrations may cause significant error
 Vibrational temperatures:     51.74    75.79    93.33   144.89   177.15
          (Kelvin)            372.30   429.23   441.73   537.20   617.46
                              665.80   703.71   783.09   793.50   832.47
                              857.02   884.51   938.83   963.05  1084.50
                             1129.57  1185.95  1244.61  1321.38  1355.06
                             1412.92  1449.68  1506.77  1567.39  1591.44
                             1673.45  1743.84  1782.49  1802.94  1881.28
                             1893.91  1905.93  1965.27  2000.09  2084.29
                             2096.80  2153.70  2162.60  2196.77  2251.57
                             2349.16  2661.86  4417.52  4448.17  4475.62
                             4510.64  4527.12  5010.33  5091.91  5132.94
                             5217.23  5352.27

 Zero-point correction=                           0.171011 (Hartree/Particle)
 Thermal correction to Energy=                    0.182011
 Thermal correction to Enthalpy=                  0.182956
 Thermal correction to Gibbs Free Energy=         0.132442
 Sum of electronic and zero-point Energies=           -888.836776
 Sum of electronic and thermal Energies=              -888.825775
 Sum of electronic and thermal Enthalpies=            -888.824831
 Sum of electronic and thermal Free Energies=         -888.875345

                     E (Thermal)             CV                S
                      KCal/Mol        Cal/Mol-Kelvin    Cal/Mol-Kelvin
 Total                  114.214             40.713            106.315
 Electronic               0.000              0.000              0.000
 Translational            0.889              2.981             41.370
 Rotational               0.889              2.981             31.128
 Vibrational            112.436             34.752             33.817
 Vibration     1          0.594              1.982              5.470
 Vibration     2          0.596              1.977              4.714
 Vibration     3          0.597              1.971              4.303
 Vibration     4          0.604              1.949              3.441
 Vibration     5          0.610              1.930              3.051
 Vibration     6          0.668              1.748              1.670
 Vibration     7          0.691              1.677              1.426
 Vibration     8          0.697              1.660              1.378
 Vibration     9          0.745              1.527              1.066
 Vibration    10          0.791              1.407              0.861
 Vibration    11          0.820              1.333              0.758
 Vibration    12          0.845              1.274              0.686
 Vibration    13          0.899              1.152              0.556
 Vibration    14          0.907              1.136              0.541
 Vibration    15          0.935              1.078              0.488
 Vibration    16          0.953              1.041              0.457
 Vibration    17          0.974              1.001              0.425

                           ! Non-Optimized Parameters !
 Normal termination of Gaussian 16 at Tue Dec  8 21:05:55 2020.

 ----------------------------------------------------------------------
 # B3LYP/6-311++G(d,p) empiricaldispersion=gd3bj scf=xqc pop=npa geom=c
 heck
 ----------------------------------------------------------------------

 --------------------------------------
 CID_15105526_JID_1726_Energie_neutraal
 --------------------------------------
 Structure from the checkpoint file:  "JID_1726.chk"
 Charge =  0 Multiplicity = 1

 SCF Done:  E(RB3LYP) =  -889.191969711     A.U. after   14 cycles
 Normal termination of Gaussian 16 at Tue Dec  8 21:08:04 2020.

 ----------------------------------------------------------------------
 # B3LYP/6-311++G(d,p) empiricaldispersion=gd3bj scf=xqc pop=npa geom=c
 heck
 ----------------------------------------------------------------------

 ------------------------------------
 CID_15105526_JID_1726_Energie_kation
 ------------------------------------
 Structure from the checkpoint file:  "JID_1726.chk"
 Charge =  1 Multiplicity = 2

 SCF Done:  E(UB3LYP) =  -888.888182286     A.U. after   33 cycles
 SCF Done:  E(UB3LYP) =  -888.888182286     a.u. after    2 cycles
 Normal termination of Gaussian 16 at Tue Dec  8 21:17:54 2020.
 Gaussian 16:  ES64L-G16RevA.03 25-Dec-2016

 ----------------------------------------------------------------------
 # B3LYP/6-311++G(d,p) empiricaldispersion=gd3bj scf=xqc pop=npa geom=c
 heck
 ----------------------------------------------------------------------

 -----------------------------------
 CID_15105526_JID_1726_Energie_anion
 -----------------------------------
 Structure from the checkpoint file:  "JID_1726.chk"
 Charge = -1 Multiplicity = 2

                         Standard orientation:
 ---------------------------------------------------------------------
 Center     Atomic      Atomic             Coordinates (Angstroms)
 Number     Number       Type             X           Y           Z
 ---------------------------------------------------------------------
      1          6           0       -2.060588    1.512752    0.358041
      2          6           0       -3.135302    0.636884   -0.308024
      3          6           0       -2.723654   -0.798624    0.035150
      4          8           0       -3.395351   -1.805879   -0.056138
      5          7           0       -1.415592   -0.735793    0.467560
      6          6           0       -0.826299    0.591372    0.484041
      7          7           0        0.112180    0.857994   -0.620457
      8          7           0        1.142142   -0.093150   -0.702706
      9          6           0        2.358489    0.161437   -0.118823
     10         16           0        3.468574   -1.072588    0.118470
     11          7           0        2.560807    1.448903    0.234241
     12          1           0       -1.814569    2.420608   -0.198604
     13          1           0       -2.382995    1.812616    1.358950
     14          1           0       -3.152028    0.743296   -1.399542
     15          1           0       -4.148993    0.828307    0.049659
     16          1           0       -0.952192   -1.562203    0.821042
     17          1           0       -0.261258    0.746584    1.406636
     18          1           0       -0.378669    0.864354   -1.513867
     19          1           0        0.898923   -1.077118   -0.772341
     20          1           0        1.892670    2.148508   -0.064496
     21          1           0        3.492103    1.714873    0.513369
 ---------------------------------------------------------------------

 SCF Done:  E(UB3LYP) =  -889.189354030     A.U. after   29 cycles

 The electronic state is 2-A.
 Alpha  occ. eigenvalues --  -88.69172 -19.00054 -14.27492 -14.25689 -14.24714
 Alpha  occ. eigenvalues --  -14.24378 -10.19271 -10.18176 -10.15527 -10.08596
 Alpha  occ. eigenvalues --  -10.08500  -7.77955  -5.74386  -5.73750  -5.73501
 Alpha  occ. eigenvalues --   -0.95201  -0.93449  -0.86101  -0.82885  -0.73962
 Alpha  occ. eigenvalues --   -0.69063  -0.63271  -0.59731  -0.52599  -0.52295
 Alpha  occ. eigenvalues --   -0.50136  -0.45546  -0.45273  -0.43719  -0.40064
 Alpha  occ. eigenvalues --   -0.39291  -0.35951  -0.35117  -0.32688  -0.31398
 Alpha  occ. eigenvalues --   -0.30574  -0.29823  -0.28144  -0.26840  -0.25284
 Alpha  occ. eigenvalues --   -0.20208  -0.18963  -0.16847  -0.16506  -0.12553
 Alpha  occ. eigenvalues --   -0.12016   0.03858
 Alpha virt. eigenvalues --    0.06933   0.07051   0.07900   0.08478   0.09402
 Alpha virt. eigenvalues --    0.10220   0.10916   0.11115   0.11755   0.12464
 Alpha virt. eigenvalues --    0.12829   0.13304   0.14577   0.15334   0.16089

  Beta  occ. eigenvalues --  -88.69170 -19.00039 -14.27478 -14.25634 -14.24698
  Beta  occ. eigenvalues --  -14.24321 -10.19269 -10.18165 -10.15510 -10.08548
  Beta  occ. eigenvalues --  -10.08460  -7.77953  -5.74385  -5.73749  -5.73499
  Beta  occ. eigenvalues --   -0.95170  -0.93406  -0.86058  -0.82824  -0.73885
  Beta  occ. eigenvalues --   -0.68993  -0.63228  -0.59659  -0.52538  -0.52190
  Beta  occ. eigenvalues --   -0.50067  -0.45484  -0.45200  -0.43662  -0.39997
  Beta  occ. eigenvalues --   -0.39224  -0.35887  -0.35059  -0.32637  -0.31333
  Beta  occ. eigenvalues --   -0.30529  -0.29750  -0.28107  -0.26795  -0.25215
  Beta  occ. eigenvalues --   -0.20154  -0.18920  -0.16798  -0.16475  -0.12541
  Beta  occ. eigenvalues --   -0.12000
  Beta virt. eigenvalues --    0.06646   0.07761   0.08054   0.08378   0.08941
  Beta virt. eigenvalues --    0.09852   0.10936   0.11449   0.11564   0.12204
  Beta virt. eigenvalues --    0.12587   0.13199   0.13400   0.14861   0.15317

 Mulliken charges and spin densities:
               1          2
     1  C    1.126731  -1.514999
     2  C    0.045618  -0.364708
     3  C    0.409320  -0.251211
     4  O   -0.393176   0.024655
     5  N   -0.261520   0.107133
     6  C   -0.177253  -0.237906
     7  N    0.440084  -0.487621
     8  N   -0.264471   0.237133
     9  C    0.126364  -0.081510
    10  S   -0.364499  -0.267890
    11  N   -0.234205  -0.060136
    12  H   -0.448857   0.654100
    13  H   -0.309459   0.488977
    14  H   -0.351378   0.541236
    15  H   -0.053318   0.235847
    16  H    0.108040   0.206126
    17  H   -0.208066   0.437015
    18  H   -0.160051   0.464407
    19  H    0.130402   0.109761
    20  H   -0.131770   0.437729
    21  H   -0.028535   0.321858
 Sum of Mulliken charges =  -1.00000   1.00000

 Dipole moment (field-independent basis, Debye):
    X=              0.6781    Y=             -1.7012    Z=              1.0613  Tot=              2.1167
 Quadrupole moment (field-independent basis, Debye-Ang):
   XX=           -142.7138   YY=           -116.6414   ZZ=           -101.2504
   XY=              1.4873   XZ=             -2.7271   YZ=              1.2150

 Summary of Natural Population Analysis:

                                       Natural Population
                Natural  -----------------------------------------------
    Atom  No    Charge         Core      Valence    Rydberg      Total
 -----------------------------------------------------------------------
      C    1   -0.19704      0.99962     2.18810    0.00931     3.19704
      C    2   -0.23657      0.99960     2.22825    0.00872     3.23657
      C    3    0.35176      0.99968     1.62570    0.02285     2.64824
      O    4   -0.31431      0.99987     3.30824    0.00620     4.31431
      N    5   -0.33648      0.99967     2.82801    0.00880     3.83648
      C    6    0.07981      0.99961     1.90537    0.01521     2.92019
      N    7   -0.24914      0.99972     2.73395    0.01547     3.74914
      N    8   -0.23280      0.99963     2.71799    0.01518     3.73280
      C    9    0.14384      0.99968     1.83184    0.02465     2.85616
      S   10   -0.15543      4.99958     3.14276    0.01309     8.15543
      N   11   -0.38890      0.99967     2.87865    0.01057     3.88890
      H   12    0.11432      0.00000     0.38087    0.00481     0.38568
      H   13    0.10766      0.00000     0.39033    0.00201     0.39234
      H   14    0.11501      0.00000     0.38284    0.00215     0.38499
      H   15    0.11297      0.00000     0.38603    0.00100     0.38703
      H   16    0.20005      0.00000     0.29758    0.00237     0.29995
      H   17    0.09938      0.00000     0.39874    0.00188     0.40062
      H   18    0.18549      0.00000     0.30824    0.00628     0.31451
      H   19    0.19036      0.00000     0.30666    0.00298     0.30964
      H   20    0.20871      0.00000     0.28662    0.00467     0.29129
      H   21    0.20131      0.00000     0.29674    0.00196     0.29869
 =======================================================================
   * Total *    0.00000     14.99633    30.82351    0.18015    46.00000

 Normal termination of Gaussian 16 at Tue Dec  8 21:23:15 2020.
