 Gaussian 16, Revision A.03,

 -----------------------------------------------------------
 # opt freq B3LYP/6-31G(d) empiricaldispersion=gd3bj scf=xqc
 -----------------------------------------------------------

 -------------------------------
 CID_87399363_JID_10489_neutraal
 -------------------------------
 Symbolic Z-matrix:
 Charge =  0 Multiplicity = 1

 SCF Done:  E(RB3LYP) =  -913.636672188     A.U. after   17 cycles
 SCF Done:  E(RB3LYP) =  -913.648951354     A.U. after   13 cycles
 SCF Done:  E(RB3LYP) =  -913.650370170     A.U. after   13 cycles
 SCF Done:  E(RB3LYP) =  -913.651133723     A.U. after   12 cycles
 SCF Done:  E(RB3LYP) =  -913.652074631     A.U. after   12 cycles
 SCF Done:  E(RB3LYP) =  -913.653009897     A.U. after   13 cycles
 SCF Done:  E(RB3LYP) =  -913.653196788     A.U. after   13 cycles
 SCF Done:  E(RB3LYP) =  -913.653367242     A.U. after   12 cycles
 SCF Done:  E(RB3LYP) =  -913.653391713     A.U. after   12 cycles
 SCF Done:  E(RB3LYP) =  -913.653436530     A.U. after   10 cycles
 SCF Done:  E(RB3LYP) =  -913.656553519     A.U. after    9 cycles
 SCF Done:  E(RB3LYP) =  -913.656553862     A.U. after    8 cycles
 SCF Done:  E(RB3LYP) =  -913.656553947     A.U. after    8 cycles
 SCF Done:  E(RB3LYP) =  -913.656554040     A.U. after    8 cycles
 SCF Done:  E(RB3LYP) =  -913.656554088     A.U. after    8 cycles
 Optimization completed.
    -- Stationary point found.
 Normal termination of Gaussian 16 at Sun Dec 13 17:25:52 2020.

 --------------------------------------------------------------------
 #N Geom=AllCheck Guess=TCheck SCRF=Check GenChk RB3LYP/6-31G(d) Freq
 --------------------------------------------------------------------

 Structure from the checkpoint file:  "JID_10489.chk"
 -------------------------------
 CID_87399363_JID_10489_neutraal
 -------------------------------
 Charge =  0 Multiplicity = 1

 SCF Done:  E(RB3LYP) =  -913.656554088     A.U. after    1 cycles

  Exact polarizability: 263.438  -0.003 214.546  15.031   0.001 118.195
 Approx polarizability: 405.299  -0.011 382.825  46.339   0.007 191.889

                      1                      2                      3
                      A                      A                      A
 Frequencies --     29.5450                48.3840                66.2416
 Red. masses --      3.9031                 3.2365                 3.9203
 Frc consts  --      0.0020                 0.0045                 0.0101
 IR Inten    --      0.0864                 0.3874                 2.4377

                      4                      5                      6
                      A                      A                      A
 Frequencies --     70.9549                94.1242                98.0724
 Red. masses --      4.8954                 4.6667                 5.7767
 Frc consts  --      0.0145                 0.0244                 0.0327
 IR Inten    --      2.6580                 4.0357                23.1043

                      7                      8                      9
                      A                      A                      A
 Frequencies --    135.3102               140.4551               163.1037
 Red. masses --      1.0537                 1.1508                 3.7251
 Frc consts  --      0.0114                 0.0134                 0.0584
 IR Inten    --      0.3101                 1.1407                 0.0197

                     10                     11                     12
                      A                      A                      A
 Frequencies --    194.5029               195.8762               224.7967
 Red. masses --      3.7325                 4.0818                 4.1386
 Frc consts  --      0.0832                 0.0923                 0.1232
 IR Inten    --      0.0893                32.1074                 0.0619

                     13                     14                     15
                      A                      A                      A
 Frequencies --    231.6411               274.3991               274.9328
 Red. masses --      2.4197                 3.8831                 2.2501
 Frc consts  --      0.0765                 0.1723                 0.1002
 IR Inten    --      6.6804                 5.5847                41.6096

                     16                     17                     18
                      A                      A                      A
 Frequencies --    292.9098               306.6058               314.5931
 Red. masses --      2.7339                 1.6576                 1.6021
 Frc consts  --      0.1382                 0.0918                 0.0934
 IR Inten    --      9.3717                 1.8164                 5.1498

                     19                     20                     21
                      A                      A                      A
 Frequencies --    328.8047               331.5258               348.9013
 Red. masses --      3.0993                 2.4428                 3.4481
 Frc consts  --      0.1974                 0.1582                 0.2473
 IR Inten    --      0.0852                 4.2762                 0.6997

                     22                     23                     24
                      A                      A                      A
 Frequencies --    364.8119               395.1469               396.6876
 Red. masses --      3.7369                 4.4583                 4.7877
 Frc consts  --      0.2930                 0.4101                 0.4439
 IR Inten    --      0.0081                 5.9898                 1.2823

                     25                     26                     27
                      A                      A                      A
 Frequencies --    417.2255               445.1954               465.8523
 Red. masses --      1.1761                 3.0401                 1.2591
 Frc consts  --      0.1206                 0.3550                 0.1610
 IR Inten    --    150.2530                48.2782               170.5189

                     28                     29                     30
                      A                      A                      A
 Frequencies --    475.1070               498.3561               506.1673
 Red. masses --      4.2791                 3.7994                 3.9004
 Frc consts  --      0.5691                 0.5560                 0.5888
 IR Inten    --      8.7277                 2.9099                24.8829

                     31                     32                     33
                      A                      A                      A
 Frequencies --    537.8559               558.6289               587.3885
 Red. masses --      5.9101                 4.4362                 5.9761
 Frc consts  --      1.0073                 0.8157                 1.2148
 IR Inten    --     39.8578                11.1973                 5.7670

                     34                     35                     36
                      A                      A                      A
 Frequencies --    601.6453               603.1181               674.7255
 Red. masses --      4.1057                 4.5082                 5.5342
 Frc consts  --      0.8756                 0.9662                 1.4844
 IR Inten    --      4.3921                 1.1189                14.3685

                     37                     38                     39
                      A                      A                      A
 Frequencies --    709.2822               731.9674               747.5007
 Red. masses --      7.0657                 4.2301                 5.0547
 Frc consts  --      2.0943                 1.3353                 1.6641
 IR Inten    --     38.2437                 9.4680                38.2558

                     40                     41                     42
                      A                      A                      A
 Frequencies --    774.1156               796.9118               816.7978
 Red. masses --      6.5508                 4.2843                 1.6699
 Frc consts  --      2.3129                 1.6031                 0.6564
 IR Inten    --      0.0001                40.6824                 0.4280

                     43                     44                     45
                      A                      A                      A
 Frequencies --    818.1415               848.9587               952.1938
 Red. masses --      1.6079                 2.9719                 4.7036
 Frc consts  --      0.6341                 1.2620                 2.5127
 IR Inten    --     84.1282                 0.0972                10.0297

                     46                     47                     48
                      A                      A                      A
 Frequencies --    964.5709               964.7594               976.7518
 Red. masses --      1.2542                 1.2529                 4.1675
 Frc consts  --      0.6875                 0.6871                 2.3426
 IR Inten    --      0.0644                 0.8286                42.1429

                     49                     50                     51
                      A                      A                      A
 Frequencies --   1035.3956              1042.8273              1048.2522
 Red. masses --      1.9223                 3.2959                 3.6531
 Frc consts  --      1.2142                 2.1118                 2.3651
 IR Inten    --     68.2177                 0.4180                 8.0799

                     52                     53                     54
                      A                      A                      A
 Frequencies --   1064.7415              1066.3642              1109.1119
 Red. masses --      1.4598                 1.5725                 1.5953
 Frc consts  --      0.9751                 1.0535                 1.1562
 IR Inten    --      2.8966                 2.9503                 6.5106

                     55                     56                     57
                      A                      A                      A
 Frequencies --   1110.3414              1115.9065              1136.1118
 Red. masses --      1.4593                 1.5647                 3.3833
 Frc consts  --      1.0600                 1.1480                 2.5729
 IR Inten    --      4.9447                 0.5453                 0.0328

                     58                     59                     60
                      A                      A                      A
 Frequencies --   1137.0737              1149.4007              1171.0317
 Red. masses --      1.8890                 2.4621                 1.6375
 Frc consts  --      1.4390                 1.9165                 1.3230
 IR Inten    --      9.7304                19.4796                25.9245

                     61                     62                     63
                      A                      A                      A
 Frequencies --   1171.8259              1190.9733              1196.1014
 Red. masses --      2.0658                 1.7444                 1.8865
 Frc consts  --      1.6713                 1.4578                 1.5902
 IR Inten    --      4.1609                 2.1099                11.2408

                     64                     65                     66
                      A                      A                      A
 Frequencies --   1240.9004              1294.2698              1303.2351
 Red. masses --      4.1761                 2.4090                 2.4992
 Frc consts  --      3.7887                 2.3776                 2.5009
 IR Inten    --      0.0324                22.6213                20.9264

                     67                     68                     69
                      A                      A                      A
 Frequencies --   1366.1856              1385.9789              1418.0715
 Red. masses --      3.0562                 2.7371                 1.5606
 Frc consts  --      3.3609                 3.0978                 1.8490
 IR Inten    --     71.7428                54.2544                45.6813

                     70                     71                     72
                      A                      A                      A
 Frequencies --   1427.5086              1441.0889              1441.8396
 Red. masses --      1.5429                 1.2463                 1.2572
 Frc consts  --      1.8524                 1.5249                 1.5398
 IR Inten    --     88.9831                31.9337                13.4820

                     73                     74                     75
                      A                      A                      A
 Frequencies --   1461.5397              1461.6674              1490.3869
 Red. masses --      1.1894                 1.2013                 1.8083
 Frc consts  --      1.4970                 1.5122                 2.3666
 IR Inten    --     61.4892                43.3376                29.8165

                     76                     77                     78
                      A                      A                      A
 Frequencies --   1492.1423              1498.9374              1502.7100
 Red. masses --      1.5790                 1.1785                 1.1138
 Frc consts  --      2.0713                 1.5600                 1.4818
 IR Inten    --     92.1978                45.2938                 3.1011

                     79                     80                     81
                      A                      A                      A
 Frequencies --   1512.9772              1516.4832              1533.3650
 Red. masses --      1.0572                 1.0611                 1.0752
 Frc consts  --      1.4259                 1.4377                 1.4894
 IR Inten    --      5.1287                 0.1805                 0.3751

                     82                     83                     84
                      A                      A                      A
 Frequencies --   1533.8512              1551.8617              1553.0912
 Red. masses --      1.0601                 1.0582                 1.0603
 Frc consts  --      1.4694                 1.5015                 1.5069
 IR Inten    --     17.6426                31.5552                 4.4601

                     85                     86                     87
                      A                      A                      A
 Frequencies --   1626.4744              1640.3872              1673.6853
 Red. masses --      7.4346                 7.3725                 8.2718
 Frc consts  --     11.5878                11.6885                13.6521
 IR Inten    --      0.9252                 1.4412                88.2769

                     88                     89                     90
                      A                      A                      A
 Frequencies --   1674.3519              1709.9109              1711.4907
 Red. masses --      8.3830                 6.7003                 6.8992
 Frc consts  --     13.8466                11.5422                11.9069
 IR Inten    --     92.1312               112.3482               206.2526

                     91                     92                     93
                      A                      A                      A
 Frequencies --   3012.6176              3012.8747              3062.7079
 Red. masses --      1.0388                 1.0389                 1.0560
 Frc consts  --      5.5546                 5.5564                 5.8360
 IR Inten    --     36.2934               105.7888                22.2716

                     94                     95                     96
                      A                      A                      A
 Frequencies --   3063.2045              3073.1014              3073.6746
 Red. masses --      1.0577                 1.0827                 1.0799
 Frc consts  --      5.8474                 6.0243                 6.0109
 IR Inten    --      5.2710                16.7566                72.2757

                     97                     98                     99
                      A                      A                      A
 Frequencies --   3092.5581              3092.7982              3128.8732
 Red. masses --      1.0994                 1.0992                 1.0942
 Frc consts  --      6.1951                 6.1947                 6.3111
 IR Inten    --     98.8944                 3.7624                29.2973

                    100                    101                    102
                      A                      A                      A
 Frequencies --   3129.8760              3157.4872              3157.9837
 Red. masses --      1.0945                 1.1022                 1.1023
 Frc consts  --      6.3169                 6.4744                 6.4767
 IR Inten    --      3.4313                12.1124                 0.6938

                    103                    104                    105
                      A                      A                      A
 Frequencies --   3233.1740              3233.1910              3251.2649
 Red. masses --      1.0875                 1.0875                 1.0986
 Frc consts  --      6.6979                 6.6980                 6.8422
 IR Inten    --      0.1095                 0.0606                 5.1312

                    106                    107                    108
                      A                      A                      A
 Frequencies --   3251.3150              3651.6145              3654.0296
 Red. masses --      1.0986                 1.0676                 1.0673
 Frc consts  --      6.8422                 8.3878                 8.3961
 IR Inten    --      5.2142               195.1774                 9.5988

 - Thermochemistry -
 -------------------
 Temperature   298.150 Kelvin.  Pressure   1.00000 Atm.
 Atom     1 has atomic number  6 and mass  12.00000

 Molecular mass:   274.14298 amu.
 Principal axes and moments of inertia in atomic units:
                           1         2         3
     Eigenvalues --  3309.935707138.145348915.88230
           X            0.99997   0.00000   0.00778
           Y           -0.00000   1.00000  -0.00000
           Z           -0.00778   0.00000   0.99997
 This molecule is an asymmetric top.
 Rotational symmetry number  1.
 Warning -- assumption of classical behavior for rotation
           may cause significant error
 Rotational temperatures (Kelvin)      0.02617     0.01213     0.00971
 Rotational constants (GHZ):           0.54525     0.25283     0.20242
 Zero-point vibrational energy     815480.8 (Joules/Mol)
                                  194.90459 (Kcal/Mol)
 Warning -- explicit consideration of  35 degrees of freedom as
           vibrations may cause significant error
 Vibrational temperatures:     42.51    69.61    95.31   102.09   135.42
          (Kelvin)            141.10   194.68   202.08   234.67   279.85
                              281.82   323.43   333.28   394.80   395.57
                              421.43   441.14   452.63   473.08   476.99
                              501.99   524.88   568.53   570.74   600.29
                              640.54   670.26   683.57   717.02   728.26
                              773.85   803.74   845.12   865.63   867.75
                              970.78  1020.50  1053.14  1075.49  1113.78
                             1146.58  1175.19  1177.12  1221.46  1369.99
                             1387.80  1388.07  1405.33  1489.70  1500.40
                             1508.20  1531.93  1534.26  1595.76  1597.53
                             1605.54  1634.61  1636.00  1653.73  1684.85
                             1686.00  1713.54  1720.92  1785.38  1862.17
                             1875.06  1965.64  1994.11  2040.29  2053.87
                             2073.41  2074.49  2102.83  2103.01  2144.33
                             2146.86  2156.64  2162.06  2176.84  2181.88
                             2206.17  2206.87  2232.78  2234.55  2340.13
                             2360.15  2408.06  2409.02  2460.18  2462.45
                             4334.48  4334.85  4406.55  4407.27  4421.51
                             4422.33  4449.50  4449.85  4501.75  4503.19
                             4542.92  4543.63  4651.82  4651.84  4677.85
                             4677.92  5253.86  5257.33

 Zero-point correction=                           0.310600 (Hartree/Particle)
 Thermal correction to Energy=                    0.330449
 Thermal correction to Enthalpy=                  0.331393
 Thermal correction to Gibbs Free Energy=         0.263069
 Sum of electronic and zero-point Energies=           -913.345954
 Sum of electronic and thermal Energies=              -913.326105
 Sum of electronic and thermal Enthalpies=            -913.325161
 Sum of electronic and thermal Free Energies=         -913.393486

                     E (Thermal)             CV                S
                      KCal/Mol        Cal/Mol-Kelvin    Cal/Mol-Kelvin
 Total                  207.360             76.129            143.802
 Electronic               0.000              0.000              0.000
 Translational            0.889              2.981             42.724
 Rotational               0.889              2.981             33.710
 Vibrational            205.583             70.167             67.368
 Vibration     1          0.593              1.984              5.860
 Vibration     2          0.595              1.978              4.882
 Vibration     3          0.598              1.970              4.262
 Vibration     4          0.598              1.968              4.127
 Vibration     5          0.603              1.953              3.572
 Vibration     6          0.604              1.951              3.492
 Vibration     7          0.613              1.918              2.869
 Vibration     8          0.615              1.913              2.798
 Vibration     9          0.623              1.888              2.513
 Vibration    10          0.635              1.848              2.184
 Vibration    11          0.636              1.846              2.171
 Vibration    12          0.649              1.803              1.920
 Vibration    13          0.653              1.793              1.866
 Vibration    14          0.677              1.721              1.568
 Vibration    15          0.677              1.720              1.565
 Vibration    16          0.688              1.687              1.457
 Vibration    17          0.697              1.661              1.381
 Vibration    18          0.702              1.646              1.338
 Vibration    19          0.712              1.618              1.266
 Vibration    20          0.714              1.613              1.253
 Vibration    21          0.726              1.577              1.171
 Vibration    22          0.738              1.545              1.102
 Vibration    23          0.762              1.481              0.981
 Vibration    24          0.763              1.477              0.975
 Vibration    25          0.780              1.433              0.901
 Vibration    26          0.805              1.371              0.810
 Vibration    27          0.823              1.326              0.749
 Vibration    28          0.832              1.305              0.723
 Vibration    29          0.854              1.254              0.662
 Vibration    30          0.861              1.236              0.643
 Vibration    31          0.893              1.166              0.570
 Vibration    32          0.914              1.121              0.527
 Vibration    33          0.945              1.059              0.472
 Vibration    34          0.960              1.028              0.447
 Vibration    35          0.962              1.025              0.444

 Optimization completed.
    -- Stationary point found.
 Normal termination of Gaussian 16 at Sun Dec 13 17:46:10 2020.

 ----------------------------------------------------------------------
 # B3LYP/6-311++G(d,p) empiricaldispersion=gd3bj scf=xqc pop=npa geom=c
 heck
 ----------------------------------------------------------------------

 ---------------------------------------
 CID_87399363_JID_10489_Energie_neutraal
 ---------------------------------------
 Structure from the checkpoint file:  "JID_10489.chk"
 Charge =  0 Multiplicity = 1

 SCF Done:  E(RB3LYP) =  -913.916959241     A.U. after   18 cycles
 Normal termination of Gaussian 16 at Sun Dec 13 17:55:11 2020.

 ----------------------------------------------------------------------
 # B3LYP/6-311++G(d,p) empiricaldispersion=gd3bj scf=xqc pop=npa geom=c
 heck
 ----------------------------------------------------------------------

 -------------------------------------
 CID_87399363_JID_10489_Energie_kation
 -------------------------------------
 Structure from the checkpoint file:  "JID_10489.chk"
 Charge =  1 Multiplicity = 2

 SCF Done:  E(UB3LYP) =  -913.647762406     A.U. after   33 cycles
 SCF Done:  E(UB3LYP) =  -913.647762406     a.u. after    1 cycles
 Normal termination of Gaussian 16 at Sun Dec 13 18:18:02 2020.
 Gaussian 16:  ES64L-G16RevA.03 25-Dec-2016

 ----------------------------------------------------------------------
 # B3LYP/6-311++G(d,p) empiricaldispersion=gd3bj scf=xqc pop=npa geom=c
 heck
 ----------------------------------------------------------------------

 ------------------------------------
 CID_87399363_JID_10489_Energie_anion
 ------------------------------------
 Structure from the checkpoint file:  "JID_10489.chk"
 Charge = -1 Multiplicity = 2

                         Standard orientation:
 ---------------------------------------------------------------------
 Center     Atomic      Atomic             Coordinates (Angstroms)
 Number     Number       Type             X           Y           Z
 ---------------------------------------------------------------------
      1          6           0       -1.104530   -1.631262   -1.223507
      2          6           0       -1.604949   -0.525929   -0.325547
      3          6           0       -0.731219    0.422780    0.118593
      4          7           0       -1.172494    1.632818    0.686654
      5          6           0       -2.523713    1.823229    0.935434
      6          6           0       -3.432713    0.915686    0.541819
      7          6           0       -3.059110   -0.382837   -0.022933
      8          7           0       -4.033899   -1.214640   -0.179923
      9          6           0       -3.887174   -2.597993   -0.581232
     10          8           0       -0.358161    2.153100    1.737393
     11          6           0        0.731238    0.422809   -0.118469
     12          6           0        1.604988   -0.525942    0.325539
     13          6           0        3.059124   -0.382816    0.022856
     14          7           0        4.033955   -1.214592    0.179754
     15          6           0        3.887258   -2.597857    0.581463
     16          6           0        3.432669    0.915681   -0.542007
     17          6           0        2.523658    1.823276   -0.935446
     18          7           0        1.172446    1.632912   -0.686485
     19          8           0        0.358073    2.153060   -1.737289
     20          6           0        1.104566   -1.631438    1.223299
     21          1           0       -0.138165   -1.368655   -1.657825
     22          1           0       -1.809282   -1.804758   -2.040135
     23          1           0       -0.981616   -2.580979   -0.692018
     24          1           0       -2.756277    2.755026    1.435875
     25          1           0       -4.491124    1.097070    0.685349
     26          1           0       -3.904862   -2.705578   -1.675506
     27          1           0       -2.985322   -3.098494   -0.206878
     28          1           0       -4.753335   -3.150634   -0.200282
     29          1           0        0.383783    2.562462    1.252875
     30          1           0        3.904280   -2.705104    1.675773
     31          1           0        2.985699   -3.098584    0.206692
     32          1           0        4.753728   -3.150472    0.201196
     33          1           0        4.491069    1.097027   -0.685670
     34          1           0        2.756198    2.755101   -1.435847
     35          1           0       -0.383844    2.562514   -1.252815
     36          1           0        1.809091   -1.804783    2.040157
     37          1           0        0.138000   -1.369090    1.657319
     38          1           0        0.982083   -2.581165    0.691740
 ---------------------------------------------------------------------

 SCF Done:  E(UB3LYP) =  -913.937640506     A.U. after   25 cycles

 The electronic state is 2-A.
 Alpha  occ. eigenvalues --  -19.05507 -19.05505 -14.27481 -14.27479 -14.14534
 Alpha  occ. eigenvalues --  -14.14533 -10.09520 -10.09517 -10.07979 -10.07977
 Alpha  occ. eigenvalues --  -10.07870 -10.07839 -10.06675 -10.06674 -10.05101
 Alpha  occ. eigenvalues --  -10.05100 -10.04766 -10.04766 -10.04420 -10.04420
 Alpha  occ. eigenvalues --   -0.98484  -0.97268  -0.80320  -0.79594  -0.77041
 Alpha  occ. eigenvalues --   -0.76847  -0.69339  -0.65239  -0.65225  -0.64168
 Alpha  occ. eigenvalues --   -0.60072  -0.58565  -0.56171  -0.54853  -0.50885
 Alpha  occ. eigenvalues --   -0.48393  -0.48234  -0.45215  -0.44810  -0.41916
 Alpha  occ. eigenvalues --   -0.39530  -0.38336  -0.38186  -0.36274  -0.35817
 Alpha  occ. eigenvalues --   -0.34386  -0.32483  -0.32052  -0.31829  -0.31523
 Alpha  occ. eigenvalues --   -0.31389  -0.30117  -0.29696  -0.29127  -0.28805
 Alpha  occ. eigenvalues --   -0.28792  -0.28408  -0.26653  -0.25678  -0.25632
 Alpha  occ. eigenvalues --   -0.24581  -0.23613  -0.23258  -0.21855  -0.21576
 Alpha  occ. eigenvalues --   -0.18451  -0.18353  -0.15810  -0.13308  -0.10818
 Alpha  occ. eigenvalues --   -0.10509  -0.08436  -0.08122   0.03112
 Alpha virt. eigenvalues --    0.07325   0.08233   0.08385   0.08673   0.09017
 Alpha virt. eigenvalues --    0.09974   0.10094   0.10467   0.11090   0.11268
 Alpha virt. eigenvalues --    0.11711   0.12145   0.12692   0.12695   0.13365

  Beta  occ. eigenvalues --  -19.05446 -19.05444 -14.27368 -14.27366 -14.14274
  Beta  occ. eigenvalues --  -14.14272 -10.09508 -10.09506 -10.07930 -10.07928
  Beta  occ. eigenvalues --  -10.07670 -10.07639 -10.06688 -10.06686 -10.05112
  Beta  occ. eigenvalues --  -10.05111 -10.04568 -10.04567 -10.04430 -10.04429
  Beta  occ. eigenvalues --   -0.98282  -0.97081  -0.80041  -0.79369  -0.76655
  Beta  occ. eigenvalues --   -0.76494  -0.68987  -0.64997  -0.64857  -0.64069
  Beta  occ. eigenvalues --   -0.59946  -0.58470  -0.56025  -0.54722  -0.50599
  Beta  occ. eigenvalues --   -0.48233  -0.47949  -0.44901  -0.44673  -0.41772
  Beta  occ. eigenvalues --   -0.39286  -0.38128  -0.37940  -0.36134  -0.35532
  Beta  occ. eigenvalues --   -0.34077  -0.32205  -0.31900  -0.31612  -0.31320
  Beta  occ. eigenvalues --   -0.31257  -0.29982  -0.29487  -0.28830  -0.28656
  Beta  occ. eigenvalues --   -0.28633  -0.28261  -0.26489  -0.25591  -0.25541
  Beta  occ. eigenvalues --   -0.24349  -0.23495  -0.23027  -0.21607  -0.21422
  Beta  occ. eigenvalues --   -0.17864  -0.17749  -0.14795  -0.12605  -0.10490
  Beta  occ. eigenvalues --   -0.10166  -0.07283  -0.06904
  Beta virt. eigenvalues --    0.07466   0.08072   0.08244   0.08751   0.08961
  Beta virt. eigenvalues --    0.09071   0.10131   0.10393   0.10519   0.11072
  Beta virt. eigenvalues --    0.11313   0.11794   0.12142   0.12712   0.13268

 Mulliken charges and spin densities:
               1          2
     1  C   -0.865031  -0.001691
     2  C    1.156263   0.114537
     3  C   -0.299797   0.141049
     4  N    0.009269   0.016514
     5  C   -0.030178   0.043446
     6  C   -0.393115  -0.031948
     7  C   -1.011463   0.040609
     8  N   -0.100537   0.130714
     9  C   -0.353696  -0.022043
    10  O    0.011504   0.019159
    11  C   -0.299265   0.141014
    12  C    1.156520   0.114604
    13  C   -1.011746   0.040535
    14  N   -0.100574   0.130883
    15  C   -0.353624  -0.022030
    16  C   -0.392967  -0.032073
    17  C   -0.030398   0.043558
    18  N    0.009194   0.016563
    19  O    0.011505   0.019176
    20  C   -0.865117  -0.001633
    21  H    0.190917   0.006479
    22  H    0.160444   0.003630
    23  H    0.120143  -0.001695
    24  H    0.158496   0.003926
    25  H    0.164101   0.004930
    26  H    0.119250   0.004842
    27  H    0.095687   0.019730
    28  H    0.124915   0.004498
    29  H    0.242719   0.003198
    30  H    0.119212   0.004860
    31  H    0.095664   0.019731
    32  H    0.124938   0.004487
    33  H    0.164108   0.004924
    34  H    0.158493   0.003912
    35  H    0.242662   0.003223
    36  H    0.160409   0.003620
    37  H    0.190952   0.006453
    38  H    0.120146  -0.001688
 Sum of Mulliken charges =  -1.00000   1.00000

 Dipole moment (field-independent basis, Debye):
    X=             -0.0015    Y=              2.0270    Z=              0.0009  Tot=              2.0270
 Quadrupole moment (field-independent basis, Debye-Ang):
   XX=           -192.4666   YY=           -128.6954   ZZ=           -135.6709
   XY=              0.0008   XZ=              0.4873   YZ=              0.0007

 Summary of Natural Population Analysis:

                                       Natural Population
                Natural  -----------------------------------------------
    Atom  No    Charge         Core      Valence    Rydberg      Total
 -----------------------------------------------------------------------
      C    1   -0.29477      0.99965     2.29018    0.00495     3.29477
      C    2   -0.00957      0.99943     2.00026    0.00988     3.00957
      C    3    0.10790      0.99939     1.87853    0.01419     2.89210
      N    4   -0.09139      0.99955     2.57673    0.01511     3.59139
      C    5    0.00623      0.99953     1.98256    0.01168     2.99377
      C    6   -0.12564      0.99953     2.11621    0.00990     3.12564
      C    7    0.11531      0.99950     1.87030    0.01489     2.88469
      N    8   -0.23774      0.99965     2.72104    0.01706     3.73774
      C    9   -0.18983      0.99965     2.18280    0.00738     3.18983
      O   10   -0.27992      0.99990     3.27341    0.00661     4.27992
      C   11    0.10790      0.99939     1.87853    0.01419     2.89210
      C   12   -0.00956      0.99943     2.00025    0.00988     3.00956
      C   13    0.11530      0.99950     1.87030    0.01489     2.88470
      N   14   -0.23768      0.99965     2.72097    0.01706     3.73768
      C   15   -0.18983      0.99965     2.18280    0.00738     3.18983
      C   16   -0.12564      0.99953     2.11621    0.00990     3.12564
      C   17    0.00624      0.99953     1.98254    0.01168     2.99376
      N   18   -0.09141      0.99955     2.57675    0.01511     3.59141
      O   19   -0.27992      0.99990     3.27340    0.00661     4.27992
      C   20   -0.29477      0.99965     2.29018    0.00495     3.29477
      H   21    0.10971      0.00000     0.38948    0.00082     0.39029
      H   22    0.10074      0.00000     0.39840    0.00087     0.39926
      H   23    0.09830      0.00000     0.40055    0.00115     0.40170
      H   24    0.09825      0.00000     0.40069    0.00106     0.40175
      H   25    0.10354      0.00000     0.39432    0.00214     0.39646
      H   26    0.08635      0.00000     0.41233    0.00131     0.41365
      H   27    0.08217      0.00000     0.41652    0.00131     0.41783
      H   28    0.08521      0.00000     0.41347    0.00132     0.41479
      H   29    0.23513      0.00000     0.26230    0.00257     0.26487
      H   30    0.08635      0.00000     0.41233    0.00131     0.41365
      H   31    0.08218      0.00000     0.41652    0.00131     0.41782
      H   32    0.08520      0.00000     0.41348    0.00132     0.41480
      H   33    0.10354      0.00000     0.39432    0.00214     0.39646
      H   34    0.09825      0.00000     0.40069    0.00106     0.40175
      H   35    0.23512      0.00000     0.26231    0.00257     0.26488
      H   36    0.10074      0.00000     0.39840    0.00087     0.39926
      H   37    0.10970      0.00000     0.38948    0.00082     0.39030
      H   38    0.09830      0.00000     0.40055    0.00115     0.40170
 =======================================================================
   * Total *    0.00000     19.99154    52.76009    0.24838    73.00000

 Normal termination of Gaussian 16 at Sun Dec 13 18:34:57 2020.
