 Gaussian 16, Revision A.03,

 -----------------------------------------------------------
 # opt freq B3LYP/6-31G(d) empiricaldispersion=gd3bj scf=xqc
 -----------------------------------------------------------

 ------------------------------
 CID_21216348_JID_6874_neutraal
 ------------------------------
 Symbolic Z-matrix:
 Charge =  0 Multiplicity = 1

 SCF Done:  E(RB3LYP) =  -741.732695766     A.U. after   15 cycles
 SCF Done:  E(RB3LYP) =  -741.737296715     A.U. after   13 cycles
 SCF Done:  E(RB3LYP) =  -741.737981259     A.U. after   12 cycles
 SCF Done:  E(RB3LYP) =  -741.738499478     A.U. after   12 cycles
 SCF Done:  E(RB3LYP) =  -741.739181615     A.U. after   12 cycles
 SCF Done:  E(RB3LYP) =  -741.739434652     A.U. after   12 cycles
 SCF Done:  E(RB3LYP) =  -741.739471229     A.U. after   12 cycles
 SCF Done:  E(RB3LYP) =  -741.739539271     A.U. after   10 cycles
 SCF Done:  E(RB3LYP) =  -741.739608813     A.U. after   12 cycles
 SCF Done:  E(RB3LYP) =  -741.739661225     A.U. after   12 cycles
 SCF Done:  E(RB3LYP) =  -741.741200748     A.U. after   11 cycles
 SCF Done:  E(RB3LYP) =  -741.741208096     A.U. after   10 cycles
 SCF Done:  E(RB3LYP) =  -741.741209625     A.U. after   10 cycles
 SCF Done:  E(RB3LYP) =  -741.741210012     A.U. after    9 cycles
 SCF Done:  E(RB3LYP) =  -741.741210098     A.U. after    8 cycles
 SCF Done:  E(RB3LYP) =  -741.741210134     A.U. after    8 cycles
 Optimization completed.
    -- Stationary point found.
 Normal termination of Gaussian 16 at Fri Dec 11 01:04:16 2020.

 --------------------------------------------------------------------
 #N Geom=AllCheck Guess=TCheck SCRF=Check GenChk RB3LYP/6-31G(d) Freq
 --------------------------------------------------------------------

 Structure from the checkpoint file:  "JID_6874.chk"
 ------------------------------
 CID_21216348_JID_6874_neutraal
 ------------------------------
 Charge =  0 Multiplicity = 1

 SCF Done:  E(RB3LYP) =  -741.741210134     A.U. after    1 cycles

  Exact polarizability: 146.186  15.964 142.744 -21.033  10.279 105.699
 Approx polarizability: 209.632  28.167 243.532 -55.105  32.894 186.771

                      1                      2                      3
                      A                      A                      A
 Frequencies --     18.0975                37.4591                38.7080
 Red. masses --      3.9607                 4.6943                 4.9068
 Frc consts  --      0.0008                 0.0039                 0.0043
 IR Inten    --      1.2475                 0.9712                 1.5574

                      4                      5                      6
                      A                      A                      A
 Frequencies --     84.8602               117.4812               152.4494
 Red. masses --      5.2334                 3.2896                 4.9595
 Frc consts  --      0.0222                 0.0268                 0.0679
 IR Inten    --      3.3336                 0.2408                 0.2522

                      7                      8                      9
                      A                      A                      A
 Frequencies --    208.4536               230.2816               237.4572
 Red. masses --      4.3632                 5.1541                 1.1023
 Frc consts  --      0.1117                 0.1610                 0.0366
 IR Inten    --      5.9035                 0.9043                 0.3652

                     10                     11                     12
                      A                      A                      A
 Frequencies --    240.3744               255.9225               292.2270
 Red. masses --      2.9489                 1.0641                 4.6792
 Frc consts  --      0.1004                 0.0411                 0.2354
 IR Inten    --      4.5475                 0.3091                 0.2388

                     13                     14                     15
                      A                      A                      A
 Frequencies --    362.9578               398.7883               421.2744
 Red. masses --      2.9576                 4.2719                 3.8004
 Frc consts  --      0.2296                 0.4003                 0.3974
 IR Inten    --      1.9984                 3.4874                 3.5863

                     16                     17                     18
                      A                      A                      A
 Frequencies --    442.0610               458.5599               485.9835
 Red. masses --      3.0383                 3.4835                 3.6064
 Frc consts  --      0.3498                 0.4316                 0.5018
 IR Inten    --      2.4085                 5.3741                 1.8829

                     19                     20                     21
                      A                      A                      A
 Frequencies --    538.8876               583.4739               599.6195
 Red. masses --      5.5603                 4.1296                 4.9156
 Frc consts  --      0.9514                 0.8283                 1.0413
 IR Inten    --      1.8694                 0.4540                13.0315

                     22                     23                     24
                      A                      A                      A
 Frequencies --    643.4261               668.9907               704.6518
 Red. masses --      4.8825                 7.4739                 3.4990
 Frc consts  --      1.1909                 1.9708                 1.0236
 IR Inten    --      2.5591                 2.4820                 4.5448

                     25                     26                     27
                      A                      A                      A
 Frequencies --    763.6061               779.4914               784.6896
 Red. masses --      1.4748                 3.4785                 4.9837
 Frc consts  --      0.5067                 1.2453                 1.8080
 IR Inten    --     54.1997                 6.4924                21.1069

                     28                     29                     30
                      A                      A                      A
 Frequencies --    801.5942               837.8897               869.3603
 Red. masses --      5.4843                 5.4397                 1.4656
 Frc consts  --      2.0762                 2.2501                 0.6526
 IR Inten    --     17.5327                10.6398                 0.3400

                     31                     32                     33
                      A                      A                      A
 Frequencies --    898.3131               933.9021               949.0393
 Red. masses --      2.9982                 5.4390                 1.3419
 Frc consts  --      1.4255                 2.7950                 0.7121
 IR Inten    --      3.4304                 3.8935                 1.8386

                     34                     35                     36
                      A                      A                      A
 Frequencies --    952.4963               959.2956               962.3793
 Red. masses --      1.2194                 1.3914                 3.7531
 Frc consts  --      0.6518                 0.7544                 2.0480
 IR Inten    --      1.6918                 0.6721                19.6743

                     37                     38                     39
                      A                      A                      A
 Frequencies --    986.1211               986.3947              1034.3312
 Red. masses --      2.9658                 1.2685                 2.0935
 Frc consts  --      1.6992                 0.7272                 1.3196
 IR Inten    --     57.8375                 1.0139                 6.5733

                     40                     41                     42
                      A                      A                      A
 Frequencies --   1110.1333              1139.8239              1164.5876
 Red. masses --      2.8990                 2.7073                 1.5004
 Frc consts  --      2.1050                 2.0724                 1.1989
 IR Inten    --     63.0119                 2.5593                 6.0095

                     43                     44                     45
                      A                      A                      A
 Frequencies --   1173.2413              1177.1410              1194.5500
 Red. masses --      2.1432                 1.9807                 1.4461
 Frc consts  --      1.7381                 1.6171                 1.2158
 IR Inten    --      9.0766                95.6874                12.2699

                     46                     47                     48
                      A                      A                      A
 Frequencies --   1220.7082              1262.0034              1278.5960
 Red. masses --      1.9309                 2.1597                 3.9991
 Frc consts  --      1.6953                 2.0266                 3.8519
 IR Inten    --      2.5518               164.7389                43.0300

                     49                     50                     51
                      A                      A                      A
 Frequencies --   1315.1872              1335.8778              1352.4913
 Red. masses --      1.8986                 1.9081                 2.1006
 Frc consts  --      1.9349                 2.0063                 2.2640
 IR Inten    --    123.2921                35.2118                35.8057

                     52                     53                     54
                      A                      A                      A
 Frequencies --   1385.2501              1392.4564              1428.2836
 Red. masses --      2.2012                 1.3175                 1.3757
 Frc consts  --      2.4887                 1.5051                 1.6535
 IR Inten    --     16.3819                 3.4578                24.7180

                     55                     56                     57
                      A                      A                      A
 Frequencies --   1429.9513              1432.7680              1443.8041
 Red. masses --      1.3423                 7.5730                 2.6303
 Frc consts  --      1.6171                 9.1595                 3.2305
 IR Inten    --     16.7817                 0.6014                21.9183

                     58                     59                     60
                      A                      A                      A
 Frequencies --   1444.5632              1490.1675              1505.0664
 Red. masses --      1.3835                 1.1058                 2.8186
 Frc consts  --      1.7010                 1.4467                 3.7618
 IR Inten    --      9.8467                 3.4057                18.6408

                     61                     62                     63
                      A                      A                      A
 Frequencies --   1511.5309              1522.7664              1529.4956
 Red. masses --      1.0489                 1.0495                 1.0489
 Frc consts  --      1.4120                 1.4338                 1.4457
 IR Inten    --      0.7898                13.1798                 0.6843

                     64                     65                     66
                      A                      A                      A
 Frequencies --   1543.0169              1549.3592              1644.1651
 Red. masses --      3.1906                 1.0607                 6.9700
 Frc consts  --      4.4758                 1.5002                11.1013
 IR Inten    --      9.5948                 9.7743                 2.3994

                     67                     68                     69
                      A                      A                      A
 Frequencies --   1674.3870              1821.2064              3063.3107
 Red. masses --      6.9494                11.0168                 1.0372
 Frc consts  --     11.4791                21.5289                 5.7346
 IR Inten    --      8.9448               200.0419                16.7281

                     70                     71                     72
                      A                      A                      A
 Frequencies --   3067.2118              3092.7401              3097.0481
 Red. masses --      1.0382                 1.0583                 1.0865
 Frc consts  --      5.7545                 5.9640                 6.1399
 IR Inten    --     11.0125                15.1893                16.8070

                     73                     74                     75
                      A                      A                      A
 Frequencies --   3128.2527              3131.6816              3146.0975
 Red. masses --      1.1018                 1.1022                 1.1069
 Frc consts  --      6.3529                 6.3691                 6.4552
 IR Inten    --     12.6435                30.7854                 3.4982

                     76                     77                     78
                      A                      A                      A
 Frequencies --   3162.6608              3170.1218              3193.9857
 Red. masses --      1.1018                 1.1007                 1.0864
 Frc consts  --      6.4934                 6.5174                 6.5299
 IR Inten    --      4.6227                15.6539                 2.3078

                     79                     80                     81
                      A                      A                      A
 Frequencies --   3206.7423              3217.0889              3226.2804
 Red. masses --      1.0897                 1.0951                 1.0954
 Frc consts  --      6.6020                 6.6776                 6.7180
 IR Inten    --     11.3140                11.2601                10.3752

 - Thermochemistry -
 -------------------
 Temperature   298.150 Kelvin.  Pressure   1.00000 Atm.
 Atom     1 has atomic number  6 and mass  12.00000

 Molecular mass:   219.10078 amu.
 Principal axes and moments of inertia in atomic units:
                           1         2         3
     Eigenvalues --  1983.713314755.495665525.18919
           X            0.99991   0.00215   0.01345
           Y           -0.00184   0.99973  -0.02324
           Z           -0.01350   0.02321   0.99964
 This molecule is an asymmetric top.
 Rotational symmetry number  1.
 Warning -- assumption of classical behavior for rotation
           may cause significant error
 Rotational temperatures (Kelvin)      0.04366     0.01821     0.01568
 Rotational constants (GHZ):           0.90978     0.37951     0.32664
 Zero-point vibrational energy     616657.9 (Joules/Mol)
                                  147.38478 (Kcal/Mol)
 Warning -- explicit consideration of  21 degrees of freedom as
           vibrations may cause significant error
 Vibrational temperatures:     26.04    53.90    55.69   122.09   169.03
          (Kelvin)            219.34   299.92   331.32   341.65   345.85
                              368.22   420.45   522.22   573.77   606.12
                              636.03   659.77   699.22   775.34   839.49
                              862.72   925.75   962.53  1013.84  1098.66
                             1121.51  1128.99  1153.32  1205.54  1250.82
                             1292.47  1343.68  1365.46  1370.43  1380.21
                             1384.65  1418.81  1419.20  1488.17  1597.23
                             1639.95  1675.58  1688.03  1693.64  1718.69
                             1756.33  1815.74  1839.61  1892.26  1922.03
                             1945.93  1993.07  2003.43  2054.98  2057.38
                             2061.43  2077.31  2078.40  2144.02  2165.45
                             2174.76  2190.92  2200.60  2220.06  2229.18
                             2365.59  2409.07  2620.31  4407.42  4413.03
                             4449.76  4455.96  4500.86  4505.79  4526.53
                             4550.36  4561.10  4595.43  4613.79  4628.67
                             4641.90

 Zero-point correction=                           0.234873 (Hartree/Particle)
 Thermal correction to Energy=                    0.249142
 Thermal correction to Enthalpy=                  0.250087
 Thermal correction to Gibbs Free Energy=         0.191719
 Sum of electronic and zero-point Energies=           -741.506338
 Sum of electronic and thermal Energies=              -741.492068
 Sum of electronic and thermal Enthalpies=            -741.491124
 Sum of electronic and thermal Free Energies=         -741.549492

                     E (Thermal)             CV                S
                      KCal/Mol        Cal/Mol-Kelvin    Cal/Mol-Kelvin
 Total                  156.339             53.945            122.846
 Electronic               0.000              0.000              0.000
 Translational            0.889              2.981             42.056
 Rotational               0.889              2.981             32.322
 Vibrational            154.562             47.983             48.468
 Vibration     1          0.593              1.986              6.833
 Vibration     2          0.594              1.982              5.389
 Vibration     3          0.594              1.981              5.324
 Vibration     4          0.601              1.960              3.775
 Vibration     5          0.608              1.935              3.141
 Vibration     6          0.619              1.900              2.641
 Vibration     7          0.642              1.828              2.057
 Vibration     8          0.652              1.795              1.877
 Vibration     9          0.656              1.783              1.822
 Vibration    10          0.657              1.779              1.800
 Vibration    11          0.666              1.753              1.689
 Vibration    12          0.688              1.688              1.461
 Vibration    13          0.737              1.549              1.109
 Vibration    14          0.765              1.473              0.967
 Vibration    15          0.784              1.424              0.888
 Vibration    16          0.802              1.378              0.820
 Vibration    17          0.817              1.342              0.770
 Vibration    18          0.842              1.281              0.694
 Vibration    19          0.894              1.164              0.568
 Vibration    20          0.940              1.067              0.479
 Vibration    21          0.958              1.033              0.450

                           ! Non-Optimized Parameters !
 Normal termination of Gaussian 16 at Fri Dec 11 01:13:14 2020.

 ----------------------------------------------------------------------
 # B3LYP/6-311++G(d,p) empiricaldispersion=gd3bj scf=xqc pop=npa geom=c
 heck
 ----------------------------------------------------------------------

 --------------------------------------
 CID_21216348_JID_6874_Energie_neutraal
 --------------------------------------
 Structure from the checkpoint file:  "JID_6874.chk"
 Charge =  0 Multiplicity = 1

 SCF Done:  E(RB3LYP) =  -741.941255897     A.U. after   15 cycles
 Normal termination of Gaussian 16 at Fri Dec 11 01:16:36 2020.

 ----------------------------------------------------------------------
 # B3LYP/6-311++G(d,p) empiricaldispersion=gd3bj scf=xqc pop=npa geom=c
 heck
 ----------------------------------------------------------------------

 ------------------------------------
 CID_21216348_JID_6874_Energie_kation
 ------------------------------------
 Structure from the checkpoint file:  "JID_6874.chk"
 Charge =  1 Multiplicity = 2

 SCF Done:  E(UB3LYP) =  -741.625478128     A.U. after   24 cycles
 Normal termination of Gaussian 16 at Fri Dec 11 01:23:50 2020.
 Gaussian 16:  ES64L-G16RevA.03 25-Dec-2016

 ----------------------------------------------------------------------
 # B3LYP/6-311++G(d,p) empiricaldispersion=gd3bj scf=xqc pop=npa geom=c
 heck
 ----------------------------------------------------------------------

 -----------------------------------
 CID_21216348_JID_6874_Energie_anion
 -----------------------------------
 Structure from the checkpoint file:  "JID_6874.chk"
 Charge = -1 Multiplicity = 2

                         Standard orientation:
 ---------------------------------------------------------------------
 Center     Atomic      Atomic             Coordinates (Angstroms)
 Number     Number       Type             X           Y           Z
 ---------------------------------------------------------------------
      1          6           0        2.274862   -2.016565    0.403797
      2          6           0        2.584344   -0.670325    1.048852
      3          6           0        4.039843   -0.234576    0.931805
      4          8           0        1.673972    0.367064    0.552678
      5          6           0        1.667484    0.694098   -0.740828
      6          8           0        2.415671    0.282295   -1.601325
      7          6           0        0.552505    1.701683   -1.036292
      8          7           0       -0.677763    1.375219   -0.359510
      9          6           0       -1.380051    0.205055   -0.389919
     10          6           0       -1.225991   -0.999712   -1.089331
     11          6           0       -2.169355   -1.983098   -0.825924
     12          6           0       -3.227044   -1.779858    0.093545
     13          6           0       -3.369876   -0.584951    0.781918
     14          6           0       -2.422742    0.419707    0.532958
     15          7           0       -2.282326    1.687863    1.065295
     16          7           0       -1.241442    2.242278    0.538750
     17          1           0        2.579989   -2.031781   -0.644515
     18          1           0        1.203456   -2.231995    0.467247
     19          1           0        2.816930   -2.804786    0.937453
     20          1           0        2.302147   -0.705584    2.104517
     21          1           0        4.359078   -0.203221   -0.111423
     22          1           0        4.180288    0.754983    1.378338
     23          1           0        4.672995   -0.945604    1.473922
     24          1           0        0.847851    2.695224   -0.687652
     25          1           0        0.411982    1.730822   -2.120173
     26          1           0       -0.415264   -1.157656   -1.793243
     27          1           0       -2.096603   -2.936737   -1.340474
     28          1           0       -3.938098   -2.583297    0.259660
     29          1           0       -4.175066   -0.421499    1.490286
 ---------------------------------------------------------------------

 SCF Done:  E(UB3LYP) =  -741.941961793     A.U. after   31 cycles

 The electronic state is 2-A.
 Alpha  occ. eigenvalues --  -19.07040 -19.01969 -14.25634 -14.22010 -14.18712
 Alpha  occ. eigenvalues --  -10.21112 -10.14295 -10.12457 -10.08228 -10.06947
 Alpha  occ. eigenvalues --  -10.06517 -10.05938 -10.04509 -10.04341 -10.04224
 Alpha  occ. eigenvalues --  -10.03614  -1.01297  -0.95349  -0.93045  -0.79269
 Alpha  occ. eigenvalues --   -0.72911  -0.70486  -0.64825  -0.63622  -0.61452
 Alpha  occ. eigenvalues --   -0.60205  -0.55404  -0.51614  -0.49017  -0.47663
 Alpha  occ. eigenvalues --   -0.43936  -0.41315  -0.40637  -0.39748  -0.38133
 Alpha  occ. eigenvalues --   -0.36872  -0.36312  -0.34134  -0.33415  -0.32636
 Alpha  occ. eigenvalues --   -0.31915  -0.31336  -0.30833  -0.30344  -0.28630
 Alpha  occ. eigenvalues --   -0.27118  -0.26422  -0.24723  -0.24478  -0.23568
 Alpha  occ. eigenvalues --   -0.22736  -0.21378  -0.19857  -0.19206  -0.17425
 Alpha  occ. eigenvalues --   -0.13369  -0.12342  -0.11003   0.04524
 Alpha virt. eigenvalues --    0.06021   0.08059   0.08541   0.08997   0.09468
 Alpha virt. eigenvalues --    0.09678   0.10387   0.10819   0.11589   0.12329
 Alpha virt. eigenvalues --    0.12673   0.13152   0.13533   0.14204   0.14582

  Beta  occ. eigenvalues --  -19.07038 -19.01968 -14.25552 -14.21471 -14.18580
  Beta  occ. eigenvalues --  -10.21111 -10.14288 -10.12459 -10.08282 -10.06919
  Beta  occ. eigenvalues --  -10.06499 -10.05947 -10.04560 -10.04155 -10.04056
  Beta  occ. eigenvalues --  -10.03325  -1.01290  -0.94879  -0.93038  -0.79006
  Beta  occ. eigenvalues --   -0.72621  -0.70450  -0.64715  -0.63191  -0.61087
  Beta  occ. eigenvalues --   -0.60160  -0.55358  -0.51140  -0.48813  -0.47484
  Beta  occ. eigenvalues --   -0.43862  -0.41230  -0.40555  -0.39580  -0.38011
  Beta  occ. eigenvalues --   -0.36841  -0.36064  -0.34022  -0.33231  -0.32575
  Beta  occ. eigenvalues --   -0.31733  -0.31190  -0.30522  -0.30104  -0.28571
  Beta  occ. eigenvalues --   -0.27091  -0.26387  -0.24633  -0.24409  -0.23410
  Beta  occ. eigenvalues --   -0.21628  -0.21321  -0.19516  -0.18785  -0.16879
  Beta  occ. eigenvalues --   -0.12968  -0.11080  -0.09783
  Beta virt. eigenvalues --    0.06904   0.08114   0.08608   0.08965   0.09503
  Beta virt. eigenvalues --    0.09729   0.09967   0.10467   0.11078   0.11599
  Beta virt. eigenvalues --    0.12389   0.12823   0.13316   0.13415   0.14203

 Mulliken charges and spin densities:
               1          2
     1  C   -0.082396  -0.444508
     2  C   -0.471405   0.581452
     3  C    0.527222  -1.064849
     4  O    0.139615  -0.000203
     5  C   -0.002305  -0.218790
     6  O   -0.213177   0.000438
     7  C   -0.268989  -0.054463
     8  N    0.321586  -0.004523
     9  C   -0.513700   0.017195
    10  C    0.178626   0.110246
    11  C   -0.218715   0.135084
    12  C   -0.356010  -0.035746
    13  C    0.033331   0.223392
    14  C   -0.283963  -0.037967
    15  N   -0.198058   0.038445
    16  N   -0.146415   0.262271
    17  H    0.158447   0.023646
    18  H    0.204068  -0.026722
    19  H   -0.240416   0.391098
    20  H   -0.105463   0.291628
    21  H    0.070808   0.098989
    22  H    0.032750   0.109012
    23  H   -0.464530   0.622939
    24  H    0.193069   0.001586
    25  H    0.198144   0.007374
    26  H    0.130163  -0.014119
    27  H    0.130532  -0.003271
    28  H    0.106685   0.007071
    29  H    0.140495  -0.016702
 Sum of Mulliken charges =  -1.00000   1.00000

 Dipole moment (field-independent basis, Debye):
    X=              0.7878    Y=             -0.5992    Z=             -3.1276  Tot=              3.2805
 Quadrupole moment (field-independent basis, Debye-Ang):
   XX=           -155.7780   YY=           -121.7774   ZZ=           -117.5746
   XY=             15.1420   XZ=             -3.4480   YZ=             -3.2161

 Summary of Natural Population Analysis:

                                       Natural Population
                Natural  -----------------------------------------------
    Atom  No    Charge         Core      Valence    Rydberg      Total
 -----------------------------------------------------------------------
      C    1   -0.30425      0.99964     2.29873    0.00589     3.30425
      C    2    0.06301      0.99956     1.92422    0.01321     2.93699
      C    3   -0.30100      0.99964     2.29593    0.00543     3.30100
      O    4   -0.27633      0.99985     3.26712    0.00936     4.27633
      C    5    0.40403      0.99971     1.56896    0.02730     2.59597
      O    6   -0.31124      0.99987     3.30620    0.00517     4.31124
      C    7   -0.12661      0.99958     2.11621    0.01082     3.12661
      N    8   -0.12082      0.99961     2.60795    0.01326     3.62082
      C    9    0.05439      0.99946     1.93411    0.01204     2.94561
      C   10   -0.10022      0.99954     2.09324    0.00745     3.10022
      C   11   -0.07434      0.99959     2.06570    0.00905     3.07434
      C   12   -0.13152      0.99959     2.12268    0.00924     3.13152
      C   13   -0.04705      0.99953     2.03880    0.00872     3.04705
      C   14    0.03447      0.99946     1.95222    0.01384     2.96553
      N   15   -0.12977      0.99973     2.61542    0.01463     3.62977
      N   16    0.03810      0.99978     2.44279    0.01933     3.46190
      H   17    0.10704      0.00000     0.39204    0.00092     0.39296
      H   18    0.11163      0.00000     0.38740    0.00097     0.38837
      H   19    0.10277      0.00000     0.39626    0.00097     0.39723
      H   20    0.09378      0.00000     0.40485    0.00136     0.40622
      H   21    0.10867      0.00000     0.39041    0.00091     0.39133
      H   22    0.10168      0.00000     0.39739    0.00094     0.39832
      H   23    0.10489      0.00000     0.39349    0.00161     0.39511
      H   24    0.12000      0.00000     0.37904    0.00096     0.38000
      H   25    0.10435      0.00000     0.39470    0.00095     0.39565
      H   26    0.09810      0.00000     0.40057    0.00133     0.40190
      H   27    0.08991      0.00000     0.40914    0.00096     0.41009
      H   28    0.09162      0.00000     0.40741    0.00097     0.40838
      H   29    0.09469      0.00000     0.40390    0.00141     0.40531
 =======================================================================
   * Total *   -0.00000     15.99413    41.80686    0.19901    58.00000

 Normal termination of Gaussian 16 at Fri Dec 11 01:33:07 2020.
