 Gaussian 16, Revision A.03,

 -----------------------------------------------------------
 # opt freq B3LYP/6-31G(d) empiricaldispersion=gd3bj scf=xqc
 -----------------------------------------------------------

 -------------------------------
 CID_148076742_JID_4780_neutraal
 -------------------------------
 Symbolic Z-matrix:
 Charge =  0 Multiplicity = 1

 SCF Done:  E(RB3LYP) =  -580.159696150     A.U. after   15 cycles
 SCF Done:  E(RB3LYP) =  -580.173797153     A.U. after   14 cycles
 SCF Done:  E(RB3LYP) =  -580.177924937     A.U. after   14 cycles
 SCF Done:  E(RB3LYP) =  -580.179015585     A.U. after   16 cycles
 SCF Done:  E(RB3LYP) =  -580.179397172     A.U. after   14 cycles
 SCF Done:  E(RB3LYP) =  -580.180060547     A.U. after   14 cycles
 SCF Done:  E(RB3LYP) =  -580.180138186     A.U. after   13 cycles
 SCF Done:  E(RB3LYP) =  -580.180519708     A.U. after   13 cycles
 SCF Done:  E(RB3LYP) =  -580.180548873     A.U. after   11 cycles
 SCF Done:  E(RB3LYP) =  -580.180553548     A.U. after   10 cycles
 SCF Done:  E(RB3LYP) =  -580.180555685     A.U. after    9 cycles
 SCF Done:  E(RB3LYP) =  -580.180556349     A.U. after    9 cycles
 Optimization completed.
    -- Stationary point found.
 Normal termination of Gaussian 16 at Thu Dec 10 10:39:04 2020.

 --------------------------------------------------------------------
 #N Geom=AllCheck Guess=TCheck SCRF=Check GenChk RB3LYP/6-31G(d) Freq
 --------------------------------------------------------------------

 Structure from the checkpoint file:  "JID_4780.chk"
 -------------------------------
 CID_148076742_JID_4780_neutraal
 -------------------------------
 Charge =  0 Multiplicity = 1

 SCF Done:  E(RB3LYP) =  -580.180556349     A.U. after    1 cycles

  Exact polarizability: 187.055  -3.330 111.963  -3.213  16.660 104.999
 Approx polarizability: 293.680 -14.904 183.386 -16.905  52.769 173.376

                      1                      2                      3
                      A                      A                      A
 Frequencies --     34.4228                43.1754                87.5401
 Red. masses --      4.1820                 4.4716                 2.4494
 Frc consts  --      0.0029                 0.0049                 0.0111
 IR Inten    --      0.1277                 1.8598                 0.5499

                      4                      5                      6
                      A                      A                      A
 Frequencies --    117.7720               136.7478               147.4701
 Red. masses --      3.7589                 3.0328                 2.4431
 Frc consts  --      0.0307                 0.0334                 0.0313
 IR Inten    --      0.4883                 0.2837                 0.7409

                      7                      8                      9
                      A                      A                      A
 Frequencies --    179.4626               200.4462               229.8314
 Red. masses --      3.2626                 1.3356                 1.2421
 Frc consts  --      0.0619                 0.0316                 0.0387
 IR Inten    --      1.0435                 0.2207                 0.0714

                     10                     11                     12
                      A                      A                      A
 Frequencies --    250.7939               277.0471               299.3053
 Red. masses --      1.7332                 2.0301                 2.2152
 Frc consts  --      0.0642                 0.0918                 0.1169
 IR Inten    --      0.3300                 4.4293                 0.9665

                     13                     14                     15
                      A                      A                      A
 Frequencies --    323.9461               326.5908               379.4300
 Red. masses --      2.1841                 2.1114                 4.0262
 Frc consts  --      0.1350                 0.1327                 0.3415
 IR Inten    --      3.1678                 1.5944                10.8279

                     16                     17                     18
                      A                      A                      A
 Frequencies --    411.8271               437.5033               450.2937
 Red. masses --      3.8360                 5.6516                 6.1780
 Frc consts  --      0.3833                 0.6374                 0.7381
 IR Inten    --     57.6176                20.3666                71.0198

                     19                     20                     21
                      A                      A                      A
 Frequencies --    457.1353               496.2176               532.9432
 Red. masses --      5.1313                 3.8006                 3.2082
 Frc consts  --      0.6318                 0.5514                 0.5369
 IR Inten    --      9.7028                 2.4858                 2.5190

                     22                     23                     24
                      A                      A                      A
 Frequencies --    590.4350               597.3202               697.7369
 Red. masses --      4.6772                 3.3770                 6.4980
 Frc consts  --      0.9607                 0.7099                 1.8639
 IR Inten    --      3.9301                 0.3283                 7.7686

                     25                     26                     27
                      A                      A                      A
 Frequencies --    756.4225               774.0337               789.9156
 Red. masses --      2.1282                 1.7786                 1.1969
 Frc consts  --      0.7174                 0.6278                 0.4400
 IR Inten    --     13.0711                10.4486                10.3286

                     28                     29                     30
                      A                      A                      A
 Frequencies --    807.6404               837.5489               873.6805
 Red. masses --      1.6403                 2.4395                 2.5241
 Frc consts  --      0.6304                 1.0082                 1.1352
 IR Inten    --     17.5477                69.1609                14.5614

                     31                     32                     33
                      A                      A                      A
 Frequencies --    906.0698               923.6394               967.5593
 Red. masses --      2.0251                 1.3660                 1.3712
 Frc consts  --      0.9795                 0.6866                 0.7563
 IR Inten    --      0.5109                 1.0287                 0.6171

                     34                     35                     36
                      A                      A                      A
 Frequencies --    992.3084              1006.8827              1025.4092
 Red. masses --      2.4724                 2.1765                 1.5465
 Frc consts  --      1.4344                 1.3001                 0.9581
 IR Inten    --     30.2768                17.0469                 5.1913

                     37                     38                     39
                      A                      A                      A
 Frequencies --   1037.5931              1062.7906              1068.5184
 Red. masses --      1.9360                 1.8450                 1.8348
 Frc consts  --      1.2280                 1.2278                 1.2342
 IR Inten    --      0.3820                 6.9453                 1.2306

                     40                     41                     42
                      A                      A                      A
 Frequencies --   1094.6628              1111.2267              1148.1269
 Red. masses --      1.7252                 1.8391                 1.8959
 Frc consts  --      1.2180                 1.3380                 1.4724
 IR Inten    --      0.0072                 0.8538                13.8530

                     43                     44                     45
                      A                      A                      A
 Frequencies --   1182.5808              1187.7142              1226.8586
 Red. masses --      1.7106                 2.4743                 2.5891
 Frc consts  --      1.4095                 2.0565                 2.2961
 IR Inten    --      8.4164                 2.4446                 0.8154

                     46                     47                     48
                      A                      A                      A
 Frequencies --   1234.4726              1284.8859              1318.1053
 Red. masses --      2.3269                 2.1295                 2.0988
 Frc consts  --      2.0892                 2.0714                 2.1484
 IR Inten    --     37.4998                89.8374                 1.0328

                     49                     50                     51
                      A                      A                      A
 Frequencies --   1328.7838              1365.6739              1386.5375
 Red. masses --      1.2794                 1.4090                 1.4341
 Frc consts  --      1.3310                 1.5483                 1.6244
 IR Inten    --      5.9866                 4.1831                 3.2418

                     52                     53                     54
                      A                      A                      A
 Frequencies --   1392.9810              1437.0151              1439.4380
 Red. masses --      1.4069                 1.2590                 1.2128
 Frc consts  --      1.6084                 1.5318                 1.4805
 IR Inten    --      2.2428                 3.9189                 9.4310

                     55                     56                     57
                      A                      A                      A
 Frequencies --   1448.5537              1461.5764              1467.8362
 Red. masses --      1.2451                 6.6142                 2.6700
 Frc consts  --      1.5393                 8.3247                 3.3893
 IR Inten    --      7.1934                19.7825                 3.9452

                     58                     59                     60
                      A                      A                      A
 Frequencies --   1499.3174              1507.8989              1515.2740
 Red. masses --      3.2559                 1.0710                 1.0694
 Frc consts  --      4.3123                 1.4347                 1.4467
 IR Inten    --      2.1971                 2.0914                 0.3104

                     61                     62                     63
                      A                      A                      A
 Frequencies --   1523.4819              1529.0802              1532.8697
 Red. masses --      1.0526                 1.0473                 1.0645
 Frc consts  --      1.4395                 1.4428                 1.4737
 IR Inten    --      1.6544                13.0429                 9.5833

                     64                     65                     66
                      A                      A                      A
 Frequencies --   1537.2383              1541.7167              1543.7508
 Red. masses --      1.0534                 1.0435                 1.0555
 Frc consts  --      1.4667                 1.4613                 1.4820
 IR Inten    --      9.8804                 7.5706                 1.2402

                     67                     68                     69
                      A                      A                      A
 Frequencies --   1756.3010              2022.9285              3036.4818
 Red. masses --     12.3606                11.5366                 1.0665
 Frc consts  --     22.4641                27.8157                 5.7939
 IR Inten    --    149.6972                23.1153                15.0261

                     70                     71                     72
                      A                      A                      A
 Frequencies --   3041.9206              3053.8111              3056.4958
 Red. masses --      1.0630                 1.0377                 1.0363
 Frc consts  --      5.7955                 5.7018                 5.7042
 IR Inten    --     30.3304                19.0740                21.3783

                     73                     74                     75
                      A                      A                      A
 Frequencies --   3059.5009              3076.0712              3105.9384
 Red. masses --      1.0376                 1.1010                 1.0970
 Frc consts  --      5.7226                 6.1382                 6.2351
 IR Inten    --     36.1875                28.7141                13.0752

                     76                     77                     78
                      A                      A                      A
 Frequencies --   3119.2392              3120.8895              3121.1376
 Red. masses --      1.1021                 1.0990                 1.0998
 Frc consts  --      6.3177                 6.3067                 6.3125
 IR Inten    --     26.9459                34.1233                46.0281

                     79                     80                     81
                      A                      A                      A
 Frequencies --   3132.4963              3135.2462              3144.6769
 Red. masses --      1.1001                 1.1019                 1.1018
 Frc consts  --      6.3599                 6.3816                 6.4194
 IR Inten    --     49.2145                29.7691                27.1354

                     82                     83                     84
                      A                      A                      A
 Frequencies --   3190.4147              3216.3123              3221.8556
 Red. masses --      1.0870                 1.0903                 1.0946
 Frc consts  --      6.5186                 6.6454                 6.6943
 IR Inten    --      3.5573                 0.2828                28.0908

 - Thermochemistry -
 -------------------
 Temperature   298.150 Kelvin.  Pressure   1.00000 Atm.
 Atom     1 has atomic number  6 and mass  12.00000

 Molecular mass:   188.12012 amu.
 Principal axes and moments of inertia in atomic units:
                           1         2         3
     Eigenvalues --  1436.424644037.531914278.32928
           X            0.99992   0.00691   0.01079
           Y           -0.00560   0.99317  -0.11653
           Z           -0.01153   0.11646   0.99313
 This molecule is an asymmetric top.
 Rotational symmetry number  1.
 Warning -- assumption of classical behavior for rotation
           may cause significant error
 Rotational temperatures (Kelvin)      0.06030     0.02145     0.02024
 Rotational constants (GHZ):           1.25641     0.44699     0.42183
 Zero-point vibrational energy     672270.1 (Joules/Mol)
                                  160.67641 (Kcal/Mol)
 Warning -- explicit consideration of  23 degrees of freedom as
           vibrations may cause significant error
 Vibrational temperatures:     49.53    62.12   125.95   169.45   196.75
          (Kelvin)            212.18   258.21   288.40   330.68   360.84
                              398.61   430.63   466.09   469.89   545.92
                              592.53   629.47   647.87   657.72   713.95
                              766.79   849.50   859.41  1003.89  1088.32
                             1113.66  1136.51  1162.01  1205.05  1257.03
                             1303.63  1328.91  1392.10  1427.71  1448.68
                             1475.34  1492.87  1529.12  1537.36  1574.98
                             1598.81  1651.90  1701.47  1708.86  1765.18
                             1776.13  1848.66  1896.46  1911.82  1964.90
                             1994.92  2004.19  2067.54  2071.03  2084.15
                             2102.88  2111.89  2157.18  2169.53  2180.14
                             2191.95  2200.01  2205.46  2211.74  2218.19
                             2221.11  2526.93  2910.54  4368.82  4376.65
                             4393.75  4397.62  4401.94  4425.78  4468.75
                             4487.89  4490.26  4490.62  4506.96  4510.92
                             4524.49  4590.30  4627.56  4635.53

 Zero-point correction=                           0.256054 (Hartree/Particle)
 Thermal correction to Energy=                    0.270542
 Thermal correction to Enthalpy=                  0.271486
 Thermal correction to Gibbs Free Energy=         0.214735
 Sum of electronic and zero-point Energies=           -579.924502
 Sum of electronic and thermal Energies=              -579.910015
 Sum of electronic and thermal Enthalpies=            -579.909070
 Sum of electronic and thermal Free Energies=         -579.965822

                     E (Thermal)             CV                S
                      KCal/Mol        Cal/Mol-Kelvin    Cal/Mol-Kelvin
 Total                  169.767             54.716            119.443
 Electronic               0.000              0.000              0.000
 Translational            0.889              2.981             41.602
 Rotational               0.889              2.981             31.584
 Vibrational            167.990             48.755             46.257
 Vibration     1          0.594              1.983              5.557
 Vibration     2          0.595              1.980              5.108
 Vibration     3          0.601              1.958              3.714
 Vibration     4          0.608              1.935              3.137
 Vibration     5          0.614              1.917              2.849
 Vibration     6          0.617              1.905              2.705
 Vibration     7          0.629              1.868              2.334
 Vibration     8          0.638              1.839              2.129
 Vibration     9          0.652              1.795              1.880
 Vibration    10          0.663              1.761              1.725
 Vibration    11          0.678              1.716              1.552
 Vibration    12          0.692              1.675              1.421
 Vibration    13          0.708              1.628              1.290
 Vibration    14          0.710              1.622              1.277
 Vibration    15          0.749              1.514              1.041
 Vibration    16          0.776              1.445              0.920
 Vibration    17          0.798              1.388              0.834
 Vibration    18          0.809              1.360              0.795
 Vibration    19          0.815              1.345              0.774
 Vibration    20          0.852              1.258              0.668
 Vibration    21          0.888              1.177              0.581
 Vibration    22          0.948              1.052              0.466
 Vibration    23          0.955              1.037              0.454

                           ! Non-Optimized Parameters !
 Normal termination of Gaussian 16 at Thu Dec 10 10:49:00 2020.

 ----------------------------------------------------------------------
 # B3LYP/6-311++G(d,p) empiricaldispersion=gd3bj scf=xqc pop=npa geom=c
 heck
 ----------------------------------------------------------------------

 ---------------------------------------
 CID_148076742_JID_4780_Energie_neutraal
 ---------------------------------------
 Structure from the checkpoint file:  "JID_4780.chk"
 Charge =  0 Multiplicity = 1

 SCF Done:  E(RB3LYP) =  -580.336971919     A.U. after   15 cycles
 Normal termination of Gaussian 16 at Thu Dec 10 10:53:44 2020.

 ----------------------------------------------------------------------
 # B3LYP/6-311++G(d,p) empiricaldispersion=gd3bj scf=xqc pop=npa geom=c
 heck
 ----------------------------------------------------------------------

 -------------------------------------
 CID_148076742_JID_4780_Energie_kation
 -------------------------------------
 Structure from the checkpoint file:  "JID_4780.chk"
 Charge =  1 Multiplicity = 2

 SCF Done:  E(UB3LYP) =  -580.016947103     A.U. after   28 cycles
 Normal termination of Gaussian 16 at Thu Dec 10 11:05:55 2020.
 Gaussian 16:  ES64L-G16RevA.03 25-Dec-2016

 ----------------------------------------------------------------------
 # B3LYP/6-311++G(d,p) empiricaldispersion=gd3bj scf=xqc pop=npa geom=c
 heck
 ----------------------------------------------------------------------

 ------------------------------------
 CID_148076742_JID_4780_Energie_anion
 ------------------------------------
 Structure from the checkpoint file:  "JID_4780.chk"
 Charge = -1 Multiplicity = 2

                         Standard orientation:
 ---------------------------------------------------------------------
 Center     Atomic      Atomic             Coordinates (Angstroms)
 Number     Number       Type             X           Y           Z
 ---------------------------------------------------------------------
      1          6           0        3.225125   -1.610545    0.512993
      2          6           0        2.830624   -0.242831   -0.053644
      3          6           0        1.428613    0.273465    0.345048
      4          6           0        1.237699    0.193352    1.874853
      5          6           0        1.269921    1.759635   -0.091063
      6          6           0        1.364998    2.018839   -1.596860
      7          6           0        0.351191   -0.554141   -0.373931
      8          8           0        0.633679   -1.401512   -1.209093
      9          6           0       -1.089449   -0.288810   -0.077940
     10          6           0       -2.111558   -1.027036   -0.730817
     11          6           0       -3.473854   -0.800507   -0.497848
     12          6           0       -3.936025    0.185946    0.405798
     13          6           0       -2.875140    0.854966    0.994696
     14          6           0       -1.662783    0.642178    0.775925
     15          1           0        3.298549   -1.598296    1.605571
     16          1           0        4.204376   -1.909720    0.123231
     17          1           0        2.503302   -2.378568    0.222568
     18          1           0        3.561099    0.509132    0.274582
     19          1           0        2.888878   -0.289294   -1.144327
     20          1           0        2.082587    0.683119    2.372784
     21          1           0        0.321851    0.698516    2.194679
     22          1           0        1.191509   -0.840878    2.228236
     23          1           0        0.308120    2.134797    0.278349
     24          1           0        2.044294    2.334199    0.434301
     25          1           0        0.604499    1.457175   -2.150919
     26          1           0        1.212769    3.082377   -1.809416
     27          1           0        2.342785    1.736518   -1.998906
     28          1           0       -1.792144   -1.789532   -1.434987
     29          1           0       -4.205816   -1.403152   -1.029808
     30          1           0       -4.992261    0.358640    0.583539
 ---------------------------------------------------------------------

 SCF Done:  E(UB3LYP) =  -580.365447682     A.U. after   33 cycles
 SCF Done:  E(UB3LYP) =  -580.365447682     a.u. after    1 cycles

 The electronic state is 2-A.
 Alpha  occ. eigenvalues --  -18.97387 -10.12056 -10.06625 -10.05344 -10.05164
 Alpha  occ. eigenvalues --  -10.04954 -10.04838 -10.03599 -10.02887 -10.02689
 Alpha  occ. eigenvalues --  -10.02525 -10.02442  -9.96620  -9.96373  -0.90849
 Alpha  occ. eigenvalues --   -0.71154  -0.69881  -0.64145  -0.61380  -0.59473
 Alpha  occ. eigenvalues --   -0.57054  -0.53794  -0.50538  -0.49779  -0.45027
 Alpha  occ. eigenvalues --   -0.41591  -0.37967  -0.35885  -0.34562  -0.33763
 Alpha  occ. eigenvalues --   -0.33082  -0.31938  -0.30558  -0.30304  -0.28360
 Alpha  occ. eigenvalues --   -0.27407  -0.26671  -0.26028  -0.25024  -0.24356
 Alpha  occ. eigenvalues --   -0.23872  -0.23187  -0.22941  -0.22549  -0.20819
 Alpha  occ. eigenvalues --   -0.20158  -0.19733  -0.12715  -0.10187  -0.09210
 Alpha  occ. eigenvalues --   -0.08552   0.03921
 Alpha virt. eigenvalues --    0.07678   0.07808   0.08872   0.09702   0.09824
 Alpha virt. eigenvalues --    0.10649   0.11549   0.11819   0.12411   0.13026
 Alpha virt. eigenvalues --    0.13583   0.14124   0.15079   0.15169   0.15390

  Beta  occ. eigenvalues --  -18.97393 -10.12059 -10.06625 -10.05341 -10.05163
  Beta  occ. eigenvalues --  -10.04954 -10.04816 -10.03569 -10.02704 -10.02525
  Beta  occ. eigenvalues --  -10.02498 -10.02422  -9.95916  -9.95667  -0.90858
  Beta  occ. eigenvalues --   -0.71089  -0.69456  -0.64127  -0.61248  -0.59131
  Beta  occ. eigenvalues --   -0.56403  -0.53751  -0.50441  -0.49717  -0.44838
  Beta  occ. eigenvalues --   -0.40851  -0.37466  -0.35797  -0.34484  -0.33500
  Beta  occ. eigenvalues --   -0.32977  -0.31872  -0.30423  -0.30209  -0.28001
  Beta  occ. eigenvalues --   -0.27358  -0.26549  -0.26000  -0.24979  -0.24317
  Beta  occ. eigenvalues --   -0.23511  -0.23115  -0.22563  -0.22213  -0.20653
  Beta  occ. eigenvalues --   -0.20094  -0.19626  -0.12278  -0.10004  -0.08666
  Beta  occ. eigenvalues --   -0.04578
  Beta virt. eigenvalues --    0.07615   0.07927   0.08836   0.09651   0.09780
  Beta virt. eigenvalues --    0.10607   0.11437   0.11756   0.12353   0.12963
  Beta virt. eigenvalues --    0.13356   0.14031   0.14247   0.15031   0.15176

 Mulliken charges and spin densities:
               1          2
     1  C   -0.612998  -0.012954
     2  C   -0.318840   0.048104
     3  C    1.307944   0.082727
     4  C   -0.648700  -0.050276
     5  C   -0.260574  -0.073167
     6  C   -0.698586   0.030092
     7  C   -1.007013   0.014684
     8  O   -0.236527  -0.002484
     9  C    0.222500   0.132005
    10  C    0.365559   0.064525
    11  C   -0.401042   0.000141
    12  C   -0.573989   0.083638
    13  C    0.111478   0.471535
    14  C   -0.377221   0.076068
    15  H    0.126941   0.002788
    16  H    0.106732   0.007909
    17  H    0.180208   0.001555
    18  H    0.115116   0.018209
    19  H    0.170914  -0.001968
    20  H    0.095321   0.029130
    21  H    0.176887  -0.008782
    22  H    0.137990   0.000724
    23  H    0.172396  -0.015861
    24  H    0.098037   0.024489
    25  H    0.173158   0.000098
    26  H    0.131427   0.004284
    27  H    0.120839  -0.000229
    28  H    0.167237   0.012950
    29  H    0.099163   0.014337
    30  H    0.055644   0.045728
 Sum of Mulliken charges =  -1.00000   1.00000

 Dipole moment (field-independent basis, Debye):
    X=              6.4720    Y=             -0.8209    Z=             -1.5685  Tot=              6.7097
 Quadrupole moment (field-independent basis, Debye-Ang):
   XX=           -122.0487   YY=           -103.3054   ZZ=           -103.0344
   XY=              8.6728   XZ=              8.9815   YZ=             -7.3594

 Summary of Natural Population Analysis:

                                       Natural Population
                Natural  -----------------------------------------------
    Atom  No    Charge         Core      Valence    Rydberg      Total
 -----------------------------------------------------------------------
      C    1   -0.28682      0.99967     2.28279    0.00436     3.28682
      C    2   -0.18860      0.99961     2.17982    0.00917     3.18860
      C    3   -0.07297      0.99953     2.06198    0.01145     3.07297
      C    4   -0.28578      0.99964     2.28015    0.00599     3.28578
      C    5   -0.18856      0.99961     2.18031    0.00865     3.18856
      C    6   -0.28723      0.99967     2.28346    0.00410     3.28723
      C    7    0.28779      0.99954     1.68698    0.02569     2.71221
      O    8   -0.31199      0.99988     3.30577    0.00633     4.31199
      C    9   -0.10588      0.99938     2.09201    0.01449     3.10588
      C   10   -0.09585      0.99954     2.08726    0.00905     3.09585
      C   11   -0.13186      0.99958     2.12157    0.01071     3.13186
      C   12   -0.10784      0.99951     2.09477    0.01357     3.10784
      C   13    0.10203      0.99878     1.88524    0.01396     2.89797
      C   14    0.10391      0.99883     1.87996    0.01731     2.89609
      H   15    0.09228      0.00000     0.40687    0.00085     0.40772
      H   16    0.09109      0.00000     0.40798    0.00094     0.40891
      H   17    0.10641      0.00000     0.39257    0.00102     0.39359
      H   18    0.08875      0.00000     0.40974    0.00151     0.41125
      H   19    0.10370      0.00000     0.39518    0.00112     0.39630
      H   20    0.09000      0.00000     0.40863    0.00137     0.41000
      H   21    0.12475      0.00000     0.37408    0.00118     0.37525
      H   22    0.09713      0.00000     0.40216    0.00071     0.40287
      H   23    0.12021      0.00000     0.37834    0.00145     0.37979
      H   24    0.08761      0.00000     0.41063    0.00176     0.41239
      H   25    0.10337      0.00000     0.39585    0.00077     0.39663
      H   26    0.09467      0.00000     0.40442    0.00090     0.40533
      H   27    0.09147      0.00000     0.40765    0.00088     0.40853
      H   28    0.10228      0.00000     0.39631    0.00141     0.39772
      H   29    0.09009      0.00000     0.40867    0.00124     0.40991
      H   30    0.08585      0.00000     0.41276    0.00139     0.41415
 =======================================================================
   * Total *   -0.00000     13.99276    36.83391    0.17333    51.00000

 Normal termination of Gaussian 16 at Thu Dec 10 11:19:46 2020.
