 Gaussian 16, Revision A.03,

 -----------------------------------------------------------
 # opt freq B3LYP/6-31G(d) empiricaldispersion=gd3bj scf=xqc
 -----------------------------------------------------------

 -------------------------------
 CID_150738477_JID_1556_neutraal
 -------------------------------
 Symbolic Z-matrix:
 Charge =  0 Multiplicity = 1

 SCF Done:  E(RB3LYP) =  -564.720611076     A.U. after   16 cycles
 SCF Done:  E(RB3LYP) =  -564.730523249     A.U. after   16 cycles
 SCF Done:  E(RB3LYP) =  -564.731833631     A.U. after   16 cycles
 SCF Done:  E(RB3LYP) =  -564.731833751     A.U. after   14 cycles
 SCF Done:  E(RB3LYP) =  -564.732988562     A.U. after   14 cycles
 SCF Done:  E(RB3LYP) =  -564.734982303     A.U. after   16 cycles
 SCF Done:  E(RB3LYP) =  -564.735425453     A.U. after   14 cycles
 SCF Done:  E(RB3LYP) =  -564.736487835     A.U. after   13 cycles
 SCF Done:  E(RB3LYP) =  -564.736772957     A.U. after   13 cycles
 SCF Done:  E(RB3LYP) =  -564.737065525     A.U. after   14 cycles
 SCF Done:  E(RB3LYP) =  -564.737672453     A.U. after    8 cycles
 SCF Done:  E(RB3LYP) =  -564.737672504     A.U. after    9 cycles
 SCF Done:  E(RB3LYP) =  -564.737672522     A.U. after    8 cycles
 SCF Done:  E(RB3LYP) =  -564.737672541     A.U. after    8 cycles
 SCF Done:  E(RB3LYP) =  -564.737672550     A.U. after    8 cycles
 Optimization completed.
    -- Stationary point found.
 Normal termination of Gaussian 16 at Tue Dec  8 20:32:13 2020.

 --------------------------------------------------------------------
 #N Geom=AllCheck Guess=TCheck SCRF=Check GenChk RB3LYP/6-31G(d) Freq
 --------------------------------------------------------------------

 Structure from the checkpoint file:  "JID_1556.chk"
 -------------------------------
 CID_150738477_JID_1556_neutraal
 -------------------------------
 Charge =  0 Multiplicity = 1

 SCF Done:  E(RB3LYP) =  -564.737672550     A.U. after    1 cycles

  Exact polarizability: 109.712  -2.097  84.601  -3.879   2.915  59.104
 Approx polarizability: 172.594  -1.333 131.355 -20.307  11.716 101.058

                      1                      2                      3
                      A                      A                      A
 Frequencies --     22.9802                44.7489                58.1070
 Red. masses --      8.7900                 4.4932                 7.9233
 Frc consts  --      0.0027                 0.0053                 0.0158
 IR Inten    --      0.6759                 1.5468                 3.6874

                      4                      5                      6
                      A                      A                      A
 Frequencies --    100.8289               122.1533               197.9535
 Red. masses --      6.2608                 3.0954                 3.0556
 Frc consts  --      0.0375                 0.0272                 0.0705
 IR Inten    --      0.5243                 1.3784                 1.7661

                      7                      8                      9
                      A                      A                      A
 Frequencies --    211.6604               262.2906               274.9270
 Red. masses --      1.1593                 1.0471                 4.2064
 Frc consts  --      0.0306                 0.0424                 0.1873
 IR Inten    --      0.2801                 0.1600                 5.6762

                     10                     11                     12
                      A                      A                      A
 Frequencies --    329.7658               344.6335               403.4142
 Red. masses --      6.4880                 3.7909                 6.7232
 Frc consts  --      0.4157                 0.2653                 0.6447
 IR Inten    --      9.3025                 5.8468                 0.8752

                     13                     14                     15
                      A                      A                      A
 Frequencies --    444.0366               509.9080               552.6313
 Red. masses --      5.6439                 5.0865                10.1919
 Frc consts  --      0.6556                 0.7792                 1.8339
 IR Inten    --      4.9681                 0.2567                 5.7044

                     16                     17                     18
                      A                      A                      A
 Frequencies --    584.5246               598.2686               639.8569
 Red. masses --      3.2536                 3.9992                 3.7006
 Frc consts  --      0.6550                 0.8434                 0.8927
 IR Inten    --      4.2140                40.3021                28.1631

                     19                     20                     21
                      A                      A                      A
 Frequencies --    706.7120               776.0655               815.4635
 Red. masses --      4.5278                 7.1577                 1.2627
 Frc consts  --      1.3324                 2.5399                 0.4947
 IR Inten    --      9.9063                 6.8411                 2.1023

                     22                     23                     24
                      A                      A                      A
 Frequencies --    939.4472               971.2470              1022.7831
 Red. masses --      2.7020                 2.6526                 2.6172
 Frc consts  --      1.4050                 1.4743                 1.6131
 IR Inten    --     27.1721                59.5412                37.6645

                     25                     26                     27
                      A                      A                      A
 Frequencies --   1055.8717              1068.6165              1094.3148
 Red. masses --      3.3502                 1.6993                 2.0707
 Frc consts  --      2.2006                 1.1433                 1.4610
 IR Inten    --     12.2844                 3.9226                22.5682

                     28                     29                     30
                      A                      A                      A
 Frequencies --   1117.4578              1212.5993              1231.2434
 Red. masses --      1.9080                10.4559                 2.7125
 Frc consts  --      1.4037                 9.0582                 2.4228
 IR Inten    --     20.9123                98.3193               231.5885

                     31                     32                     33
                      A                      A                      A
 Frequencies --   1292.1317              1323.3558              1359.0714
 Red. masses --      2.5649                 1.9194                 1.4783
 Frc consts  --      2.5231                 1.9805                 1.6088
 IR Inten    --    138.8658                59.2461                 2.5197

                     34                     35                     36
                      A                      A                      A
 Frequencies --   1420.8540              1442.5303              1494.7545
 Red. masses --      1.2826                 1.2122                 1.0634
 Frc consts  --      1.5256                 1.4862                 1.3999
 IR Inten    --     26.8654                 2.8007                21.4910

                     37                     38                     39
                      A                      A                      A
 Frequencies --   1517.8733              1524.4188              1533.3523
 Red. masses --      1.0463                 1.0401                 1.0533
 Frc consts  --      1.4203                 1.4241                 1.4591
 IR Inten    --     10.8106                 4.6978                 2.4193

                     40                     41                     42
                      A                      A                      A
 Frequencies --   1540.8798              1793.1683              1818.6743
 Red. masses --      1.0702                11.4264                11.4922
 Frc consts  --      1.4971                21.6473                22.3956
 IR Inten    --     10.7854               351.2489                45.9633

                     43                     44                     45
                      A                      A                      A
 Frequencies --   2245.5819              3065.6343              3078.6638
 Red. masses --     13.9946                 1.0347                 1.0384
 Frc consts  --     41.5786                 5.7294                 5.7989
 IR Inten    --    370.5991                16.1833                 3.1970

                     46                     47                     48
                      A                      A                      A
 Frequencies --   3112.3104              3133.4414              3139.4444
 Red. masses --      1.0644                 1.1016                 1.1010
 Frc consts  --      6.0745                 6.3729                 6.3938
 IR Inten    --      5.7631                 9.3167                25.3271

                     49                     50                     51
                      A                      A                      A
 Frequencies --   3152.3723              3162.1930              3183.7398
 Red. masses --      1.0996                 1.1024                 1.1025
 Frc consts  --      6.4381                 6.4950                 6.5844
 IR Inten    --      5.3530                19.8499                 2.5122

 - Thermochemistry -
 -------------------
 Temperature   298.150 Kelvin.  Pressure   1.00000 Atm.
 Atom     1 has atomic number  6 and mass  12.00000

 Molecular mass:   156.06473 amu.
 Principal axes and moments of inertia in atomic units:
                           1         2         3
     Eigenvalues --  1152.516811933.644402734.66766
           X            0.99995  -0.00792  -0.00614
           Y            0.00776   0.99964  -0.02559
           Z            0.00634   0.02554   0.99965
 This molecule is an asymmetric top.
 Rotational symmetry number  1.
 Warning -- assumption of classical behavior for rotation
           may cause significant error
 Rotational temperatures (Kelvin)      0.07515     0.04479     0.03167
 Rotational constants (GHZ):           1.56591     0.93334     0.65995
 Zero-point vibrational energy     377116.5 (Joules/Mol)
                                   90.13301 (Kcal/Mol)
 Warning -- explicit consideration of  17 degrees of freedom as
           vibrations may cause significant error
 Vibrational temperatures:     33.06    64.38    83.60   145.07   175.75
          (Kelvin)            284.81   304.53   377.38   395.56   474.46
                              495.85   580.42   638.87   733.64   795.11
                              841.00   860.78   920.61  1016.80  1116.59
                             1173.27  1351.65  1397.41  1471.56  1519.16
                             1537.50  1574.47  1607.77  1744.66  1771.48
                             1859.09  1904.01  1955.40  2044.29  2075.48
                             2150.62  2183.88  2193.30  2206.15  2216.98
                             2579.97  2616.67  3230.89  4410.76  4429.51
                             4477.92  4508.32  4516.96  4535.56  4549.69
                             4580.69

 Zero-point correction=                           0.143636 (Hartree/Particle)
 Thermal correction to Energy=                    0.155278
 Thermal correction to Enthalpy=                  0.156222
 Thermal correction to Gibbs Free Energy=         0.104294
 Sum of electronic and zero-point Energies=           -564.594036
 Sum of electronic and thermal Energies=              -564.582395
 Sum of electronic and thermal Enthalpies=            -564.581451
 Sum of electronic and thermal Free Energies=         -564.633379

                     E (Thermal)             CV                S
                      KCal/Mol        Cal/Mol-Kelvin    Cal/Mol-Kelvin
 Total                   97.438             40.264            109.291
 Electronic               0.000              0.000              0.000
 Translational            0.889              2.981             41.045
 Rotational               0.889              2.981             30.189
 Vibrational             95.661             34.302             38.057
 Vibration     1          0.593              1.985              6.358
 Vibration     2          0.595              1.979              5.037
 Vibration     3          0.596              1.974              4.520
 Vibration     4          0.604              1.948              3.438
 Vibration     5          0.610              1.931              3.066
 Vibration     6          0.637              1.843              2.152
 Vibration     7          0.643              1.823              2.029
 Vibration     8          0.670              1.742              1.646
 Vibration     9          0.677              1.720              1.565
 Vibration    10          0.713              1.616              1.261
 Vibration    11          0.723              1.586              1.191
 Vibration    12          0.769              1.463              0.950
 Vibration    13          0.804              1.374              0.814
 Vibration    14          0.865              1.228              0.634
 Vibration    15          0.908              1.134              0.539
 Vibration    16          0.941              1.065              0.477
 Vibration    17          0.956              1.035              0.453

 Optimization completed.
    -- Stationary point found.
 Normal termination of Gaussian 16 at Tue Dec  8 20:35:47 2020.

 ----------------------------------------------------------------------
 # B3LYP/6-311++G(d,p) empiricaldispersion=gd3bj scf=xqc pop=npa geom=c
 heck
 ----------------------------------------------------------------------

 ---------------------------------------
 CID_150738477_JID_1556_Energie_neutraal
 ---------------------------------------
 Structure from the checkpoint file:  "JID_1556.chk"
 Charge =  0 Multiplicity = 1

 SCF Done:  E(RB3LYP) =  -564.903021664     A.U. after   16 cycles
 Normal termination of Gaussian 16 at Tue Dec  8 20:38:30 2020.

 ----------------------------------------------------------------------
 # B3LYP/6-311++G(d,p) empiricaldispersion=gd3bj scf=xqc pop=npa geom=c
 heck
 ----------------------------------------------------------------------

 -------------------------------------
 CID_150738477_JID_1556_Energie_kation
 -------------------------------------
 Structure from the checkpoint file:  "JID_1556.chk"
 Charge =  1 Multiplicity = 2

 SCF Done:  E(UB3LYP) =  -564.547444263     A.U. after   28 cycles
 Normal termination of Gaussian 16 at Tue Dec  8 20:43:54 2020.
 Gaussian 16:  ES64L-G16RevA.03 25-Dec-2016

 ----------------------------------------------------------------------
 # B3LYP/6-311++G(d,p) empiricaldispersion=gd3bj scf=xqc pop=npa geom=c
 heck
 ----------------------------------------------------------------------

 ------------------------------------
 CID_150738477_JID_1556_Energie_anion
 ------------------------------------
 Structure from the checkpoint file:  "JID_1556.chk"
 Charge = -1 Multiplicity = 2

                         Standard orientation:
 ---------------------------------------------------------------------
 Center     Atomic      Atomic             Coordinates (Angstroms)
 Number     Number       Type             X           Y           Z
 ---------------------------------------------------------------------
      1          6           0       -2.866353   -0.369700    0.885420
      2          6           0       -2.209943   -0.630633   -0.480921
      3          6           0       -0.738060   -0.969327   -0.333276
      4          8           0       -0.317475   -2.089828   -0.519381
      5          7           0        0.159639    0.020940    0.184494
      6          6           0        0.244545    1.425835    0.004300
      7          8           0        1.245587    2.007374    0.367292
      8          6           0       -0.892150    2.157782   -0.676772
      9          7           0        1.267418   -0.548877    0.872429
     10          7           0        2.280506   -0.649693    0.135521
     11          7           0        3.287131   -0.803320   -0.367155
     12          1           0       -2.737260   -1.234295    1.543707
     13          1           0       -3.939109   -0.193719    0.760029
     14          1           0       -2.432490    0.499251    1.389452
     15          1           0       -2.652160   -1.511850   -0.950981
     16          1           0       -2.374527    0.211958   -1.153805
     17          1           0       -1.048597    1.794480   -1.697011
     18          1           0       -1.832142    2.069459   -0.127253
     19          1           0       -0.599705    3.207262   -0.716956
 ---------------------------------------------------------------------

 SCF Done:  E(UB3LYP) =  -564.908441072     A.U. after   33 cycles
 SCF Done:  E(UB3LYP) =  -564.908441072     a.u. after    1 cycles

 The electronic state is 2-A.
 Alpha  occ. eigenvalues --  -18.97511 -18.96395 -14.31430 -14.25128 -14.23334
 Alpha  occ. eigenvalues --  -14.22931 -10.15817 -10.13818 -10.07094 -10.06444
 Alpha  occ. eigenvalues --  -10.05696  -0.99656  -0.93678  -0.91664  -0.85866
 Alpha  occ. eigenvalues --   -0.75117  -0.66537  -0.63593  -0.54472  -0.51150
 Alpha  occ. eigenvalues --   -0.48463  -0.38839  -0.38109  -0.37303  -0.34726
 Alpha  occ. eigenvalues --   -0.34148  -0.33115  -0.32101  -0.31504  -0.30796
 Alpha  occ. eigenvalues --   -0.29681  -0.28477  -0.27211  -0.25763  -0.24713
 Alpha  occ. eigenvalues --   -0.23498  -0.20645  -0.16260  -0.13922  -0.12822
 Alpha  occ. eigenvalues --   -0.11586   0.04704
 Alpha virt. eigenvalues --    0.06636   0.08720   0.09115   0.10030   0.11209
 Alpha virt. eigenvalues --    0.12285   0.12873   0.13595   0.14049   0.14656
 Alpha virt. eigenvalues --    0.15391   0.15886   0.17255   0.18082   0.18664

  Beta  occ. eigenvalues --  -18.97384 -18.96115 -14.31126 -14.25088 -14.23349
  Beta  occ. eigenvalues --  -14.22506 -10.15686 -10.13558 -10.07096 -10.06457
  Beta  occ. eigenvalues --  -10.05640  -0.99105  -0.93335  -0.91227  -0.85561
  Beta  occ. eigenvalues --   -0.74768  -0.66384  -0.63459  -0.54168  -0.50864
  Beta  occ. eigenvalues --   -0.48107  -0.38423  -0.37792  -0.36582  -0.34079
  Beta  occ. eigenvalues --   -0.33890  -0.32857  -0.31694  -0.31051  -0.30238
  Beta  occ. eigenvalues --   -0.29424  -0.28136  -0.26812  -0.25352  -0.24539
  Beta  occ. eigenvalues --   -0.22667  -0.19797  -0.16021  -0.13626  -0.12515
  Beta  occ. eigenvalues --   -0.11382
  Beta virt. eigenvalues --    0.07660   0.09114   0.09977   0.10214   0.10974
  Beta virt. eigenvalues --    0.11800   0.12245   0.13246   0.13699   0.14702
  Beta virt. eigenvalues --    0.14951   0.15475   0.16384   0.17248   0.18144

 Mulliken charges and spin densities:
               1          2
     1  C    0.525905  -0.980161
     2  C   -0.519432   0.370967
     3  C   -0.014871   0.046590
     4  O   -0.337071   0.093624
     5  N    0.124063  -0.017475
     6  C   -0.004197   0.120149
     7  O   -0.334468   0.040566
     8  C   -0.202248  -0.289147
     9  N   -0.900496  -0.000533
    10  N    0.628146   0.052865
    11  N    0.082620   0.261124
    12  H    0.143019   0.005852
    13  H   -0.677836   0.835277
    14  H    0.206735  -0.069748
    15  H    0.154889   0.033904
    16  H   -0.039872   0.161296
    17  H    0.148613   0.010565
    18  H   -0.172675   0.340575
    19  H    0.189175  -0.016290
 Sum of Mulliken charges =  -1.00000   1.00000

 Dipole moment (field-independent basis, Debye):
    X=             -0.8213    Y=              1.4165    Z=             -1.2315  Tot=              2.0488
 Quadrupole moment (field-independent basis, Debye-Ang):
   XX=           -120.3073   YY=            -89.5009   ZZ=            -74.6919
   XY=              2.8054   XZ=              2.6331   YZ=             -4.3891

 Summary of Natural Population Analysis:

                                       Natural Population
                Natural  -----------------------------------------------
    Atom  No    Charge         Core      Valence    Rydberg      Total
 -----------------------------------------------------------------------
      C    1   -0.28134      0.99966     2.27613    0.00554     3.28134
      C    2   -0.23630      0.99960     2.22757    0.00912     3.23630
      C    3    0.37846      0.99968     1.59827    0.02360     2.62154
      O    4   -0.26951      0.99987     3.26410    0.00555     4.26951
      N    5   -0.19252      0.99962     2.68240    0.01050     3.69252
      C    6    0.35686      0.99970     1.62068    0.02275     2.64314
      O    7   -0.29318      0.99987     3.28757    0.00574     4.29318
      C    8   -0.33315      0.99962     2.32843    0.00510     3.33315
      N    9   -0.12310      0.99972     2.60751    0.01586     3.62310
      N   10    0.14022      0.99970     2.34436    0.01572     3.35978
      N   11    0.01839      0.99982     2.46890    0.01289     3.48161
      H   12    0.09889      0.00000     0.40018    0.00093     0.40111
      H   13    0.10127      0.00000     0.39542    0.00331     0.39873
      H   14    0.09649      0.00000     0.40230    0.00121     0.40351
      H   15    0.10656      0.00000     0.39238    0.00106     0.39344
      H   16    0.10381      0.00000     0.39466    0.00153     0.39619
      H   17    0.10663      0.00000     0.39251    0.00085     0.39337
      H   18    0.11131      0.00000     0.38724    0.00146     0.38869
      H   19    0.11021      0.00000     0.38890    0.00089     0.38979
 =======================================================================
   * Total *    0.00000     10.99686    29.85952    0.14362    41.00000

 Normal termination of Gaussian 16 at Tue Dec  8 20:51:13 2020.
