 Gaussian 16, Revision A.03,

 -----------------------------------------------------------
 # opt freq B3LYP/6-31G(d) empiricaldispersion=gd3bj scf=xqc
 -----------------------------------------------------------

 ------------------------------
 CID_62483917_JID_3226_neutraal
 ------------------------------
 Symbolic Z-matrix:
 Charge =  0 Multiplicity = 1

 SCF Done:  E(RB3LYP) =  -626.131159403     A.U. after   15 cycles
 SCF Done:  E(RB3LYP) =  -626.135817629     A.U. after   12 cycles
 SCF Done:  E(RB3LYP) =  -626.136856406     A.U. after   11 cycles
 SCF Done:  E(RB3LYP) =  -626.137673073     A.U. after   12 cycles
 SCF Done:  E(RB3LYP) =  -626.138221903     A.U. after   12 cycles
 SCF Done:  E(RB3LYP) =  -626.138811044     A.U. after   12 cycles
 SCF Done:  E(RB3LYP) =  -626.139356582     A.U. after   12 cycles
 SCF Done:  E(RB3LYP) =  -626.139443525     A.U. after   12 cycles
 SCF Done:  E(RB3LYP) =  -626.139479866     A.U. after   10 cycles
 SCF Done:  E(RB3LYP) =  -626.139495500     A.U. after    9 cycles
 SCF Done:  E(RB3LYP) =  -626.139499543     A.U. after    9 cycles
 SCF Done:  E(RB3LYP) =  -626.139501431     A.U. after    9 cycles
 SCF Done:  E(RB3LYP) =  -626.139502804     A.U. after    9 cycles
 SCF Done:  E(RB3LYP) =  -626.139503902     A.U. after    8 cycles
 SCF Done:  E(RB3LYP) =  -626.139504420     A.U. after    8 cycles
 SCF Done:  E(RB3LYP) =  -626.139504595     A.U. after    7 cycles
 Optimization completed.
    -- Stationary point found.
 Normal termination of Gaussian 16 at Wed Dec  9 22:31:41 2020.

 --------------------------------------------------------------------
 #N Geom=AllCheck Guess=TCheck SCRF=Check GenChk RB3LYP/6-31G(d) Freq
 --------------------------------------------------------------------

 Structure from the checkpoint file:  "JID_3226.chk"
 ------------------------------
 CID_62483917_JID_3226_neutraal
 ------------------------------
 Charge =  0 Multiplicity = 1

 SCF Done:  E(RB3LYP) =  -626.139504595     A.U. after    1 cycles

  Exact polarizability: 158.394   7.704 122.821   1.872  -2.238  62.518
 Approx polarizability: 230.628  12.893 195.820   7.618  -5.809  96.072

                      1                      2                      3
                      A                      A                      A
 Frequencies --     34.3520                73.8237                89.6690
 Red. masses --      5.0730                 4.9557                 3.7097
 Frc consts  --      0.0035                 0.0159                 0.0176
 IR Inten    --      3.1434                 4.5291                 1.3373

                      4                      5                      6
                      A                      A                      A
 Frequencies --    101.2149               153.8338               216.3492
 Red. masses --      4.1809                 2.6444                 2.1720
 Frc consts  --      0.0252                 0.0369                 0.0599
 IR Inten    --      3.4144                 3.2145                 0.2801

                      7                      8                      9
                      A                      A                      A
 Frequencies --    219.4520               258.0440               271.5279
 Red. masses --      3.6141                 4.0991                 2.5052
 Frc consts  --      0.1025                 0.1608                 0.1088
 IR Inten    --      4.4001                 7.0667                 3.3404

                     10                     11                     12
                      A                      A                      A
 Frequencies --    296.0864               332.0721               402.5829
 Red. masses --      2.0462                 1.5002                 3.7674
 Frc consts  --      0.1057                 0.0975                 0.3598
 IR Inten    --      7.1107                95.0691                16.3668

                     13                     14                     15
                      A                      A                      A
 Frequencies --    418.3774               447.9387               463.8155
 Red. masses --      1.3151                 1.1633                 4.4820
 Frc consts  --      0.1356                 0.1375                 0.5681
 IR Inten    --    140.0477                60.0236                 6.2637

                     16                     17                     18
                      A                      A                      A
 Frequencies --    471.3933               488.5924               555.0762
 Red. masses --      2.6184                 3.3725                 5.3330
 Frc consts  --      0.3428                 0.4743                 0.9681
 IR Inten    --      5.8706                21.6977                 5.8259

                     19                     20                     21
                      A                      A                      A
 Frequencies --    576.0978               607.8331               647.7295
 Red. masses --      4.8496                 3.2140                 4.1148
 Frc consts  --      0.9483                 0.6996                 1.0171
 IR Inten    --      4.5371                62.3758                31.3621

                     22                     23                     24
                      A                      A                      A
 Frequencies --    689.1295               707.5671               770.5609
 Red. masses --      5.6734                 2.4722                 4.3860
 Frc consts  --      1.5874                 0.7292                 1.5344
 IR Inten    --      8.3552                10.0077               138.0836

                     25                     26                     27
                      A                      A                      A
 Frequencies --    783.9812               802.9789               863.7784
 Red. masses --      1.9292                 1.8466                 1.5233
 Frc consts  --      0.6986                 0.7015                 0.6696
 IR Inten    --    122.4586                74.0028                27.4139

                     28                     29                     30
                      A                      A                      A
 Frequencies --    884.7932               951.0980               967.3327
 Red. masses --      1.4573                 3.9535                 1.2514
 Frc consts  --      0.6722                 2.1071                 0.6899
 IR Inten    --      2.2042                39.4975                 0.6124

                     31                     32                     33
                      A                      A                      A
 Frequencies --   1016.1347              1031.8528              1079.4891
 Red. masses --      6.0959                 2.2144                 4.1014
 Frc consts  --      3.7085                 1.3891                 2.8159
 IR Inten    --      0.4399                28.3393                12.2067

                     34                     35                     36
                      A                      A                      A
 Frequencies --   1088.4235              1112.9325              1129.8742
 Red. masses --      3.2129                 1.6981                 2.0096
 Frc consts  --      2.2426                 1.2393                 1.5115
 IR Inten    --     38.0543                11.0557                11.5184

                     37                     38                     39
                      A                      A                      A
 Frequencies --   1186.2417              1188.1760              1217.8053
 Red. masses --      1.2723                 1.1156                 1.4158
 Frc consts  --      1.0549                 0.9280                 1.2371
 IR Inten    --      0.7418                18.0905                12.8649

                     40                     41                     42
                      A                      A                      A
 Frequencies --   1260.4802              1322.8194              1342.3506
 Red. masses --      2.5424                 2.2390                 3.2458
 Frc consts  --      2.3800                 2.3084                 3.4460
 IR Inten    --    179.5621                16.0178                54.3529

                     43                     44                     45
                      A                      A                      A
 Frequencies --   1373.8553              1379.8136              1448.8069
 Red. masses --      3.0181                 1.4807                 2.1973
 Frc consts  --      3.3564                 1.6610                 2.7174
 IR Inten    --     28.4710                12.2168               301.0274

                     46                     47                     48
                      A                      A                      A
 Frequencies --   1478.7942              1506.7442              1520.6664
 Red. masses --      2.3384                 1.4209                 1.0479
 Frc consts  --      3.0129                 1.9007                 1.4277
 IR Inten    --     36.3357                28.7665                 5.6732

                     49                     50                     51
                      A                      A                      A
 Frequencies --   1533.8299              1549.0320              1583.5854
 Red. masses --      1.1668                 2.0313                 1.2269
 Frc consts  --      1.6174                 2.8717                 1.8128
 IR Inten    --     57.9906                32.7796                40.4888

                     52                     53                     54
                      A                      A                      A
 Frequencies --   1648.1056              1650.8514              1659.2326
 Red. masses --      5.8127                 3.3142                 1.4367
 Frc consts  --      9.3025                 5.3217                 2.3303
 IR Inten    --     87.0703               275.5076                74.7397

                     55                     56                     57
                      A                      A                      A
 Frequencies --   1737.1336              3023.7062              3081.8422
 Red. masses --      6.4361                 1.0353                 1.1059
 Frc consts  --     11.4430                 5.5772                 6.1883
 IR Inten    --    545.3875                46.8504                43.8166

                     58                     59                     60
                      A                      A                      A
 Frequencies --   3157.5437              3190.7500              3215.9203
 Red. masses --      1.0997                 1.0874                 1.0916
 Frc consts  --      6.4597                 6.5226                 6.6515
 IR Inten    --     29.3938                14.4301                12.0584

                     61                     62                     63
                      A                      A                      A
 Frequencies --   3222.7734              3239.6438              3390.7937
 Red. masses --      1.0950                 1.0893                 1.0643
 Frc consts  --      6.7005                 6.7361                 7.2095
 IR Inten    --      9.0508                 2.2651               156.5594

                     64                     65                     66
                      A                      A                      A
 Frequencies --   3477.2982              3571.9542              3684.1330
 Red. masses --      1.0765                 1.0460                 1.1025
 Frc consts  --      7.6692                 7.8633                 8.8166
 IR Inten    --      6.3586                24.3621                41.0031

 - Thermochemistry -
 -------------------
 Temperature   298.150 Kelvin.  Pressure   1.00000 Atm.
 Atom     1 has atomic number  6 and mass  12.00000

 Molecular mass:   181.08513 amu.
 Principal axes and moments of inertia in atomic units:
                           1         2         3
     Eigenvalues --  1293.260633949.516544861.46511
           X            0.99993  -0.00863  -0.00782
           Y            0.00864   0.99996   0.00223
           Z            0.00780  -0.00230   0.99997
 This molecule is an asymmetric top.
 Rotational symmetry number  1.
 Warning -- assumption of classical behavior for rotation
           may cause significant error
 Rotational temperatures (Kelvin)      0.06697     0.02193     0.01782
 Rotational constants (GHZ):           1.39550     0.45695     0.37123
 Zero-point vibrational energy     507518.5 (Joules/Mol)
                                  121.29984 (Kcal/Mol)
 Warning -- explicit consideration of  20 degrees of freedom as
           vibrations may cause significant error
 Vibrational temperatures:     49.42   106.22   129.01   145.63   221.33
          (Kelvin)            311.28   315.74   371.27   390.67   426.00
                              477.78   579.23   601.95   644.48   667.33
                              678.23   702.98   798.63   828.88   874.54
                              931.94   991.50  1018.03  1108.67  1127.97
                             1155.31  1242.78  1273.02  1368.42  1391.78
                             1461.99  1484.61  1553.14  1566.00  1601.26
                             1625.64  1706.74  1709.52  1752.15  1813.55
                             1903.24  1931.34  1976.67  1985.24  2084.51
                             2127.65  2167.87  2187.90  2206.84  2228.71
                             2278.43  2371.26  2375.21  2387.27  2499.35
                             4350.44  4434.08  4543.00  4590.78  4626.99
                             4636.85  4661.12  4878.60  5003.06  5139.25
                             5300.65

 Zero-point correction=                           0.193304 (Hartree/Particle)
 Thermal correction to Energy=                    0.205954
 Thermal correction to Enthalpy=                  0.206898
 Thermal correction to Gibbs Free Energy=         0.153901
 Sum of electronic and zero-point Energies=           -625.946201
 Sum of electronic and thermal Energies=              -625.933550
 Sum of electronic and thermal Enthalpies=            -625.932606
 Sum of electronic and thermal Free Energies=         -625.985604

                     E (Thermal)             CV                S
                      KCal/Mol        Cal/Mol-Kelvin    Cal/Mol-Kelvin
 Total                  129.238             47.818            111.542
 Electronic               0.000              0.000              0.000
 Translational            0.889              2.981             41.488
 Rotational               0.889              2.981             31.585
 Vibrational            127.461             41.857             38.469
 Vibration     1          0.594              1.983              5.561
 Vibration     2          0.599              1.966              4.049
 Vibration     3          0.602              1.956              3.667
 Vibration     4          0.604              1.948              3.431
 Vibration     5          0.619              1.898              2.624
 Vibration     6          0.645              1.816              1.989
 Vibration     7          0.647              1.811              1.964
 Vibration     8          0.667              1.749              1.675
 Vibration     9          0.675              1.726              1.586
 Vibration    10          0.690              1.681              1.439
 Vibration    11          0.714              1.611              1.250
 Vibration    12          0.768              1.465              0.953
 Vibration    13          0.781              1.430              0.897
 Vibration    14          0.807              1.365              0.802
 Vibration    15          0.821              1.330              0.755
 Vibration    16          0.828              1.314              0.734
 Vibration    17          0.844              1.275              0.687
 Vibration    18          0.911              1.129              0.534
 Vibration    19          0.933              1.083              0.493
 Vibration    20          0.967              1.015              0.436

                           ! Non-Optimized Parameters !
 Normal termination of Gaussian 16 at Wed Dec  9 22:37:27 2020.

 ----------------------------------------------------------------------
 # B3LYP/6-311++G(d,p) empiricaldispersion=gd3bj scf=xqc pop=npa geom=c
 heck
 ----------------------------------------------------------------------

 --------------------------------------
 CID_62483917_JID_3226_Energie_neutraal
 --------------------------------------
 Structure from the checkpoint file:  "JID_3226.chk"
 Charge =  0 Multiplicity = 1

 SCF Done:  E(RB3LYP) =  -626.334676072     A.U. after   15 cycles
 Normal termination of Gaussian 16 at Wed Dec  9 22:40:01 2020.

 ----------------------------------------------------------------------
 # B3LYP/6-311++G(d,p) empiricaldispersion=gd3bj scf=xqc pop=npa geom=c
 heck
 ----------------------------------------------------------------------

 ------------------------------------
 CID_62483917_JID_3226_Energie_kation
 ------------------------------------
 Structure from the checkpoint file:  "JID_3226.chk"
 Charge =  1 Multiplicity = 2

 SCF Done:  E(UB3LYP) =  -626.053687255     A.U. after   25 cycles
 Normal termination of Gaussian 16 at Wed Dec  9 22:46:15 2020.
 Gaussian 16:  ES64L-G16RevA.03 25-Dec-2016

 ----------------------------------------------------------------------
 # B3LYP/6-311++G(d,p) empiricaldispersion=gd3bj scf=xqc pop=npa geom=c
 heck
 ----------------------------------------------------------------------

 -----------------------------------
 CID_62483917_JID_3226_Energie_anion
 -----------------------------------
 Structure from the checkpoint file:  "JID_3226.chk"
 Charge = -1 Multiplicity = 2

                         Standard orientation:
 ---------------------------------------------------------------------
 Center     Atomic      Atomic             Coordinates (Angstroms)
 Number     Number       Type             X           Y           Z
 ---------------------------------------------------------------------
      1          6           0        2.810743   -2.269979   -0.466516
      2          8           0        3.178948   -0.934289   -0.170253
      3          6           0        2.184385   -0.002699   -0.071969
      4          6           0        2.603527    1.308112    0.192194
      5          6           0        1.653334    2.318237    0.292418
      6          6           0        0.293204    2.046516    0.140945
      7          6           0       -0.130829    0.734942   -0.103968
      8          6           0        0.825536   -0.294038   -0.217861
      9          7           0       -1.502318    0.497238   -0.285561
     10          6           0       -2.121782   -0.461822    0.309431
     11          7           0       -1.616944   -1.356143    1.226260
     12          7           0       -3.455159   -0.695622   -0.053610
     13          8           0       -3.962053    0.295860   -0.928585
     14          1           0        3.742437   -2.837025   -0.505498
     15          1           0        2.299450   -2.342315   -1.435304
     16          1           0        2.160917   -2.692443    0.311918
     17          1           0        3.664327    1.506013    0.301752
     18          1           0        1.977384    3.336669    0.488273
     19          1           0       -0.450589    2.833149    0.209854
     20          1           0        0.488024   -1.296470   -0.447768
     21          1           0       -2.269528   -1.909780    1.763775
     22          1           0       -0.783232   -1.060947    1.716816
     23          1           0       -4.075656   -0.715666    0.755212
     24          1           0       -3.176466    0.892331   -1.025990
 ---------------------------------------------------------------------

 SCF Done:  E(UB3LYP) =  -626.329372410     A.U. after   31 cycles

 The electronic state is 2-A.
 Alpha  occ. eigenvalues --  -19.06100 -19.04528 -14.27053 -14.22496 -14.19441
 Alpha  occ. eigenvalues --  -10.18142 -10.14105 -10.12802 -10.11706 -10.08460
 Alpha  occ. eigenvalues --  -10.07319 -10.07286 -10.06860  -0.98075  -0.97679
 Alpha  occ. eigenvalues --   -0.86774  -0.79305  -0.74779  -0.72368  -0.66115
 Alpha  occ. eigenvalues --   -0.64955  -0.60415  -0.54415  -0.50721  -0.48765
 Alpha  occ. eigenvalues --   -0.45288  -0.45140  -0.42196  -0.40150  -0.39726
 Alpha  occ. eigenvalues --   -0.38773  -0.37647  -0.37020  -0.34732  -0.32431
 Alpha  occ. eigenvalues --   -0.31100  -0.29434  -0.28486  -0.28146  -0.26945
 Alpha  occ. eigenvalues --   -0.25143  -0.24776  -0.23398  -0.20123  -0.16893
 Alpha  occ. eigenvalues --   -0.14152  -0.13762  -0.11579   0.04232
 Alpha virt. eigenvalues --    0.06388   0.07228   0.07634   0.09054   0.09086
 Alpha virt. eigenvalues --    0.09276   0.09878   0.10326   0.11451   0.12028
 Alpha virt. eigenvalues --    0.12830   0.13217   0.14061   0.14694   0.15281

  Beta  occ. eigenvalues --  -19.06094 -19.04515 -14.26997 -14.22383 -14.19437
  Beta  occ. eigenvalues --  -10.18130 -10.14103 -10.12764 -10.11707 -10.08459
  Beta  occ. eigenvalues --  -10.07317 -10.07275 -10.06853  -0.98033  -0.97666
  Beta  occ. eigenvalues --   -0.86712  -0.79228  -0.74742  -0.72271  -0.66090
  Beta  occ. eigenvalues --   -0.64936  -0.60368  -0.54361  -0.50686  -0.48706
  Beta  occ. eigenvalues --   -0.45193  -0.45041  -0.42141  -0.40063  -0.39688
  Beta  occ. eigenvalues --   -0.38739  -0.37620  -0.36975  -0.34712  -0.32403
  Beta  occ. eigenvalues --   -0.31042  -0.29411  -0.28472  -0.28111  -0.26924
  Beta  occ. eigenvalues --   -0.25110  -0.24747  -0.23360  -0.20111  -0.16857
  Beta  occ. eigenvalues --   -0.14105  -0.13719  -0.11552
  Beta virt. eigenvalues --    0.06693   0.07329   0.07655   0.08359   0.09117
  Beta virt. eigenvalues --    0.09285   0.09917   0.10183   0.10748   0.11775
  Beta virt. eigenvalues --    0.12770   0.13062   0.13649   0.14227   0.14946

 Mulliken charges and spin densities:
               1          2
     1  C    0.520431  -0.873767
     2  O   -0.196191   0.044004
     3  C   -1.365459   0.888564
     4  C   -0.293128  -0.271497
     5  C   -0.022021  -0.031364
     6  C    0.205071  -0.041448
     7  C    0.340914  -0.894612
     8  C    0.688774  -0.102599
     9  N   -0.034291  -0.085706
    10  C    0.509023  -0.616067
    11  N   -0.094316  -0.257396
    12  N   -0.110382  -0.053068
    13  O   -0.215297   0.022438
    14  H   -0.336097   0.503861
    15  H   -0.111332   0.263162
    16  H   -0.240610   0.413981
    17  H    0.105856   0.046697
    18  H    0.084587   0.068288
    19  H    0.055036   0.093268
    20  H    0.337210  -0.116865
    21  H   -0.815592   1.116909
    22  H   -0.078497   0.352643
    23  H   -0.259890   0.547112
    24  H    0.326203  -0.016537
 Sum of Mulliken charges =  -1.00000   1.00000

 Dipole moment (field-independent basis, Debye):
    X=              5.1240    Y=              6.3013    Z=             -3.8050  Tot=              8.9688
 Quadrupole moment (field-independent basis, Debye-Ang):
   XX=           -145.1512   YY=           -114.1435   ZZ=           -111.7968
   XY=             -3.6777   XZ=              9.1463   YZ=             10.9289

 Summary of Natural Population Analysis:

                                       Natural Population
                Natural  -----------------------------------------------
    Atom  No    Charge         Core      Valence    Rydberg      Total
 -----------------------------------------------------------------------
      C    1   -0.10206      0.99960     2.09326    0.00920     3.10206
      O    2   -0.27416      0.99986     3.26461    0.00970     4.27416
      C    3    0.16509      0.99939     1.82133    0.01419     2.83491
      C    4   -0.13633      0.99952     2.12739    0.00942     3.13633
      C    5   -0.09336      0.99957     2.08470    0.00908     3.09336
      C    6   -0.12460      0.99951     2.11592    0.00916     3.12460
      C    7    0.08697      0.99948     1.89989    0.01365     2.91303
      C    8   -0.16544      0.99947     2.15740    0.00857     3.16544
      N    9   -0.32854      0.99958     2.81631    0.01266     3.82854
      C   10    0.30866      0.99960     1.67570    0.01605     2.69134
      N   11   -0.40108      0.99971     2.89127    0.01011     3.90108
      N   12   -0.16080      0.99966     2.64647    0.01468     3.66080
      O   13   -0.29436      0.99991     3.28628    0.00818     4.29436
      H   14    0.09298      0.00000     0.40584    0.00117     0.40702
      H   15    0.08416      0.00000     0.41461    0.00123     0.41584
      H   16    0.08956      0.00000     0.40860    0.00184     0.41044
      H   17    0.10382      0.00000     0.39516    0.00102     0.39618
      H   18    0.09743      0.00000     0.40184    0.00072     0.40257
      H   19    0.10339      0.00000     0.39553    0.00108     0.39661
      H   20    0.11363      0.00000     0.38463    0.00173     0.38637
      H   21    0.20727      0.00000     0.25550    0.03723     0.29273
      H   22    0.20179      0.00000     0.29270    0.00551     0.29821
      H   23    0.18538      0.00000     0.30969    0.00493     0.31462
      H   24    0.24060      0.00000     0.25590    0.00350     0.25940
 =======================================================================
   * Total *    0.00000     12.99486    34.80052    0.20462    48.00000

 Normal termination of Gaussian 16 at Wed Dec  9 22:53:34 2020.
