 Gaussian 16, Revision A.03,

 -----------------------------------------------------------
 # opt freq B3LYP/6-31G(d) empiricaldispersion=gd3bj scf=xqc
 -----------------------------------------------------------

 --------------------------------
 CID_147461223_JID_10706_neutraal
 --------------------------------
 Symbolic Z-matrix:
 Charge =  0 Multiplicity = 1

 SCF Done:  E(RB3LYP) =  -1272.84524151     A.U. after   16 cycles
 SCF Done:  E(RB3LYP) =  -1272.85173987     A.U. after   14 cycles
 SCF Done:  E(RB3LYP) =  -1272.85279386     A.U. after   14 cycles
 SCF Done:  E(RB3LYP) =  -1272.84550283     A.U. after   15 cycles
 SCF Done:  E(RB3LYP) =  -1272.85342130     A.U. after   14 cycles
 SCF Done:  E(RB3LYP) =  -1272.85390055     A.U. after   14 cycles
 SCF Done:  E(RB3LYP) =  -1272.85442562     A.U. after   15 cycles
 SCF Done:  E(RB3LYP) =  -1272.85490816     A.U. after   12 cycles
 SCF Done:  E(RB3LYP) =  -1272.85540995     A.U. after   14 cycles
 SCF Done:  E(RB3LYP) =  -1272.85550760     A.U. after   12 cycles
 SCF Done:  E(RB3LYP) =  -1272.85558633     A.U. after   11 cycles
 SCF Done:  E(RB3LYP) =  -1272.85558881     A.U. after   10 cycles
 SCF Done:  E(RB3LYP) =  -1272.85558938     A.U. after   10 cycles
 SCF Done:  E(RB3LYP) =  -1272.85558946     A.U. after    8 cycles
 SCF Done:  E(RB3LYP) =  -1272.85558948     A.U. after    8 cycles
 Optimization completed.
    -- Stationary point found.
 Normal termination of Gaussian 16 at Sun Dec 13 16:50:56 2020.

 --------------------------------------------------------------------
 #N Geom=AllCheck Guess=TCheck SCRF=Check GenChk RB3LYP/6-31G(d) Freq
 --------------------------------------------------------------------

 Structure from the checkpoint file:  "JID_10706.chk"
 --------------------------------
 CID_147461223_JID_10706_neutraal
 --------------------------------
 Charge =  0 Multiplicity = 1

 SCF Done:  E(RB3LYP) =  -1272.85558948     A.U. after    1 cycles

  Exact polarizability: 307.481  19.921 164.703  -0.052  -0.019 113.031
 Approx polarizability: 425.600  35.396 327.854  -0.070  -0.027 197.409

                      1                      2                      3
                      A                      A                      A
 Frequencies --     16.2406                27.3707                29.6934
 Red. masses --      3.7496                 5.7967                 1.0658
 Frc consts  --      0.0006                 0.0026                 0.0006
 IR Inten    --      0.0060                 0.0434                 0.3026

                      4                      5                      6
                      A                      A                      A
 Frequencies --     38.6819                60.9150                69.8439
 Red. masses --      5.4940                12.4436                10.9011
 Frc consts  --      0.0048                 0.0272                 0.0313
 IR Inten    --      0.1854                 0.0983                 1.7562

                      7                      8                      9
                      A                      A                      A
 Frequencies --    129.7459               177.1674               178.4306
 Red. masses --      5.4205                 8.4928                 6.8120
 Frc consts  --      0.0538                 0.1571                 0.1278
 IR Inten    --      0.2442                 3.8754                 1.0835

                     10                     11                     12
                      A                      A                      A
 Frequencies --    204.1863               247.4496               308.1804
 Red. masses --      5.9956                10.1611                 5.9705
 Frc consts  --      0.1473                 0.3666                 0.3341
 IR Inten    --      0.0831                 1.8608                 1.5526

                     13                     14                     15
                      A                      A                      A
 Frequencies --    310.2860               355.6406               361.9180
 Red. masses --      3.4820                 7.4323                 7.0962
 Frc consts  --      0.1975                 0.5539                 0.5476
 IR Inten    --      0.0191                 0.3790                 0.0715

                     16                     17                     18
                      A                      A                      A
 Frequencies --    404.1085               424.7709               427.3533
 Red. masses --      9.8486                 3.0692                 4.2839
 Frc consts  --      0.9476                 0.3263                 0.4610
 IR Inten    --      0.4600                 0.0202                 1.5048

                     19                     20                     21
                      A                      A                      A
 Frequencies --    435.6087               482.7030               516.7954
 Red. masses --      3.4115                 4.0809                11.4927
 Frc consts  --      0.3814                 0.5602                 1.8085
 IR Inten    --      3.6949                14.0349                 1.2876

                     22                     23                     24
                      A                      A                      A
 Frequencies --    545.8489               550.1494               559.3493
 Red. masses --      5.1133                 5.2065                 6.4597
 Frc consts  --      0.8976                 0.9284                 1.1908
 IR Inten    --     11.1220                 0.8242                 2.9114

                     25                     26                     27
                      A                      A                      A
 Frequencies --    597.7260               603.4631               656.0951
 Red. masses --      5.4923                 8.0943                 6.9586
 Frc consts  --      1.1561                 1.7367                 1.7648
 IR Inten    --      5.9029                 1.9566                 0.1004

                     28                     29                     30
                      A                      A                      A
 Frequencies --    675.8322               679.7338               723.8695
 Red. masses --      7.4247                 6.6856                 3.4117
 Frc consts  --      1.9981                 1.8200                 1.0533
 IR Inten    --     20.6151                 4.4036                 4.8676

                     31                     32                     33
                      A                      A                      A
 Frequencies --    724.9545               757.0669               758.5309
 Red. masses --      5.2078                 9.2274                 6.0210
 Frc consts  --      1.6126                 3.1160                 2.0411
 IR Inten    --      5.8625                25.2312                21.2259

                     34                     35                     36
                      A                      A                      A
 Frequencies --    784.6306               840.6736               841.9104
 Red. masses --      4.9352                 1.2464                 2.1697
 Frc consts  --      1.7901                 0.5190                 0.9061
 IR Inten    --      4.4061                 0.1908                27.0748

                     37                     38                     39
                      A                      A                      A
 Frequencies --    848.9939               854.1564               887.5142
 Red. masses --      3.3620                 1.4763                 7.8209
 Frc consts  --      1.4278                 0.6346                 3.6296
 IR Inten    --     18.5295                15.0589                27.0420

                     40                     41                     42
                      A                      A                      A
 Frequencies --    917.1863               945.5557               959.9139
 Red. masses --      1.4429                 7.5483                 1.3026
 Frc consts  --      0.7151                 3.9762                 0.7072
 IR Inten    --     15.6450                17.9749                 1.9811

                     43                     44                     45
                      A                      A                      A
 Frequencies --    963.4634               981.9182              1022.1680
 Red. masses --      1.3345                 1.2994                 1.3977
 Frc consts  --      0.7299                 0.7381                 0.8604
 IR Inten    --      0.0304                 0.4222                 0.0210

                     46                     47                     48
                      A                      A                      A
 Frequencies --   1042.3600              1066.6316              1077.1809
 Red. masses --      2.7098                 2.1713                 1.5269
 Frc consts  --      1.7347                 1.4555                 1.0438
 IR Inten    --     22.7896                 4.8840                18.7932

                     49                     50                     51
                      A                      A                      A
 Frequencies --   1140.6607              1148.3719              1152.3237
 Red. masses --      1.2635                 4.9577                 1.2671
 Frc consts  --      0.9686                 3.8521                 0.9913
 IR Inten    --      6.7970               106.0047                48.3550

                     52                     53                     54
                      A                      A                      A
 Frequencies --   1194.6893              1226.7518              1240.6814
 Red. masses --      1.4067                 2.9184                 2.8497
 Frc consts  --      1.1829                 2.5877                 2.5845
 IR Inten    --     24.2144                55.8289                95.0210

                     55                     56                     57
                      A                      A                      A
 Frequencies --   1270.1744              1274.6898              1333.5530
 Red. masses --      7.3244                 1.5774                 4.4047
 Frc consts  --      6.9622                 1.5101                 4.6152
 IR Inten    --    570.8935                 6.8930                 6.0953

                     58                     59                     60
                      A                      A                      A
 Frequencies --   1338.3906              1353.0596              1386.4560
 Red. masses --      1.3392                 7.0600                 7.0112
 Frc consts  --      1.4133                 7.6153                 7.9407
 IR Inten    --      0.2480                 0.6058                84.0045

                     61                     62                     63
                      A                      A                      A
 Frequencies --   1391.6383              1444.6086              1455.8867
 Red. masses --     11.1963                 1.2412                 2.6882
 Frc consts  --     12.7754                 1.5261                 3.3571
 IR Inten    --    564.6432                 0.0617                 0.9112

                     64                     65                     66
                      A                      A                      A
 Frequencies --   1461.7627              1496.6374              1518.4406
 Red. masses --      4.1863                 3.3650                 1.0503
 Frc consts  --      5.2702                 4.4409                 1.4267
 IR Inten    --     25.7229                86.2713                 5.4334

                     67                     68                     69
                      A                      A                      A
 Frequencies --   1522.6247              1552.1451              1591.8550
 Red. masses --      1.1033                 2.7540                 7.8679
 Frc consts  --      1.5071                 3.9091                11.7466
 IR Inten    --      7.8440               325.3422               366.9836

                     70                     71                     72
                      A                      A                      A
 Frequencies --   1603.9749              1646.7849              1647.8844
 Red. masses --      8.0496                 6.4137                 9.8242
 Frc consts  --     12.2017                10.2479                15.7181
 IR Inten    --    125.6351                 3.3468               222.9253

                     73                     74                     75
                      A                      A                      A
 Frequencies --   1665.0669              1675.3651              3047.4536
 Red. masses --      7.0415                 7.1304                 1.0404
 Frc consts  --     11.5022                11.7919                 5.6925
 IR Inten    --      7.0034                29.0788                28.4174

                     76                     77                     78
                      A                      A                      A
 Frequencies --   3106.3195              3132.8608              3193.2361
 Red. masses --      1.0960                 1.1030                 1.0893
 Frc consts  --      6.2309                 6.3786                 6.5444
 IR Inten    --     15.8666                13.6449                12.4156

                     79                     80                     81
                      A                      A                      A
 Frequencies --   3193.9002              3222.4153              3223.1982
 Red. masses --      1.0893                 1.0937                 1.0943
 Frc consts  --      6.5468                 6.6912                 6.6984
 IR Inten    --     14.9032                 4.1081                 1.3236

                     82                     83                     84
                      A                      A                      A
 Frequencies --   3228.7656              3255.4687              3258.9122
 Red. masses --      1.0909                 1.0918                 1.0928
 Frc consts  --      6.7003                 6.8174                 6.8378
 IR Inten    --      2.3546                 3.2661                 1.5914

 - Thermochemistry -
 -------------------
 Temperature   298.150 Kelvin.  Pressure   1.00000 Atm.
 Atom     1 has atomic number  6 and mass  12.00000

 Molecular mass:   286.04121 amu.
 Principal axes and moments of inertia in atomic units:
                           1         2         3
     Eigenvalues --  1939.56636********************
           X            0.99987   0.01597  -0.00001
           Y           -0.01597   0.99987  -0.00001
           Z            0.00001   0.00001   1.00000
 This molecule is an asymmetric top.
 Rotational symmetry number  1.
 Warning -- assumption of classical behavior for rotation
           may cause significant error
 Rotational temperatures (Kelvin)      0.04466     0.00618     0.00566
 Rotational constants (GHZ):           0.93049     0.12876     0.11787
 Zero-point vibrational energy     572239.5 (Joules/Mol)
                                  136.76852 (Kcal/Mol)
 Warning -- explicit consideration of  26 degrees of freedom as
           vibrations may cause significant error
 Vibrational temperatures:     23.37    39.38    42.72    55.65    87.64
          (Kelvin)            100.49   186.68   254.90   256.72   293.78
                              356.02   443.40   446.43   511.69   520.72
                              581.42   611.15   614.87   626.74   694.50
                              743.55   785.35   791.54   804.78   859.99
                              868.25   943.97   972.37   977.99  1041.49
                             1043.05  1089.25  1091.36  1128.91  1209.54
                             1211.32  1221.51  1228.94  1276.93  1319.63
                             1360.44  1381.10  1386.21  1412.76  1470.67
                             1499.72  1534.64  1549.82  1641.16  1652.25
                             1657.94  1718.89  1765.02  1785.06  1827.50
                             1833.99  1918.69  1925.65  1946.75  1994.80
                             2002.26  2078.47  2094.70  2103.15  2153.33
                             2184.70  2190.72  2233.19  2290.32  2307.76
                             2369.36  2370.94  2395.66  2410.48  4384.61
                             4469.30  4507.49  4594.35  4595.31  4636.34
                             4637.46  4645.47  4683.89  4688.85

 Zero-point correction=                           0.217955 (Hartree/Particle)
 Thermal correction to Energy=                    0.234584
 Thermal correction to Enthalpy=                  0.235528
 Thermal correction to Gibbs Free Energy=         0.169733
 Sum of electronic and zero-point Energies=          -1272.637635
 Sum of electronic and thermal Energies=             -1272.621006
 Sum of electronic and thermal Enthalpies=           -1272.620061
 Sum of electronic and thermal Free Energies=        -1272.685856

                     E (Thermal)             CV                S
                      KCal/Mol        Cal/Mol-Kelvin    Cal/Mol-Kelvin
 Total                  147.204             62.860            138.476
 Electronic               0.000              0.000              0.000
 Translational            0.889              2.981             42.851
 Rotational               0.889              2.981             34.386
 Vibrational            145.426             56.899             61.239
 Vibration     1          0.593              1.986              7.048
 Vibration     2          0.593              1.984              6.011
 Vibration     3          0.593              1.984              5.850
 Vibration     4          0.594              1.981              5.325
 Vibration     5          0.597              1.973              4.427
 Vibration     6          0.598              1.968              4.158
 Vibration     7          0.612              1.924              2.950
 Vibration     8          0.628              1.870              2.358
 Vibration     9          0.629              1.869              2.345
 Vibration    10          0.640              1.834              2.095
 Vibration    11          0.661              1.767              1.749
 Vibration    12          0.698              1.658              1.372
 Vibration    13          0.699              1.654              1.361
 Vibration    14          0.731              1.564              1.141
 Vibration    15          0.736              1.551              1.114
 Vibration    16          0.769              1.461              0.948
 Vibration    17          0.787              1.416              0.876
 Vibration    18          0.789              1.411              0.867
 Vibration    19          0.796              1.393              0.841
 Vibration    20          0.839              1.288              0.703
 Vibration    21          0.872              1.213              0.617
 Vibration    22          0.901              1.149              0.553
 Vibration    23          0.905              1.139              0.544
 Vibration    24          0.915              1.119              0.525
 Vibration    25          0.956              1.037              0.454
 Vibration    26          0.962              1.024              0.444

                           ! Non-Optimized Parameters !
 Normal termination of Gaussian 16 at Sun Dec 13 17:03:16 2020.

 ----------------------------------------------------------------------
 # B3LYP/6-311++G(d,p) empiricaldispersion=gd3bj scf=xqc pop=npa geom=c
 heck
 ----------------------------------------------------------------------

 ----------------------------------------
 CID_147461223_JID_10706_Energie_neutraal
 ----------------------------------------
 Structure from the checkpoint file:  "JID_10706.chk"
 Charge =  0 Multiplicity = 1

 SCF Done:  E(RB3LYP) =  -1273.11349115     A.U. after   17 cycles
 Normal termination of Gaussian 16 at Sun Dec 13 17:08:25 2020.

 ----------------------------------------------------------------------
 # B3LYP/6-311++G(d,p) empiricaldispersion=gd3bj scf=xqc pop=npa geom=c
 heck
 ----------------------------------------------------------------------

 --------------------------------------
 CID_147461223_JID_10706_Energie_kation
 --------------------------------------
 Structure from the checkpoint file:  "JID_10706.chk"
 Charge =  1 Multiplicity = 2

 SCF Done:  E(UB3LYP) =  -1272.79622119     A.U. after   33 cycles
 SCF Done:  E(UB3LYP) =  -1272.79622130     a.u. after    2 cycles
 Normal termination of Gaussian 16 at Sun Dec 13 17:36:09 2020.
 Gaussian 16:  ES64L-G16RevA.03 25-Dec-2016

 ----------------------------------------------------------------------
 # B3LYP/6-311++G(d,p) empiricaldispersion=gd3bj scf=xqc pop=npa geom=c
 heck
 ----------------------------------------------------------------------

 -------------------------------------
 CID_147461223_JID_10706_Energie_anion
 -------------------------------------
 Structure from the checkpoint file:  "JID_10706.chk"
 Charge = -1 Multiplicity = 2

                         Standard orientation:
 ---------------------------------------------------------------------
 Center     Atomic      Atomic             Coordinates (Angstroms)
 Number     Number       Type             X           Y           Z
 ---------------------------------------------------------------------
      1          6           0       -6.196011   -1.831866    0.001257
      2          6           0       -5.012050   -0.896457   -0.000022
      3          6           0       -4.457726   -0.441674   -1.203485
      4          6           0       -3.382310    0.444844   -1.214393
      5          6           0       -2.857491    0.873810   -0.000456
      6          6           0       -3.382336    0.445195    1.213958
      7          6           0       -4.457493   -0.441110    1.203546
      8          8           0       -1.799528    1.793991   -0.000492
      9          6           0       -0.549337    1.318675   -0.000357
     10          7           0        0.473755    2.103699    0.000165
     11          6           0        1.642683    1.366222    0.000177
     12          6           0        1.479047   -0.045569   -0.000323
     13         16           0       -0.234802   -0.444739   -0.000911
     14          6           0        2.564765   -0.908718   -0.000346
     15          6           0        3.831062   -0.326984    0.000157
     16          6           0        4.030901    1.059741    0.000659
     17          6           0        2.935054    1.909744    0.000667
     18          7           0        4.999691   -1.209923    0.000161
     19          8           0        4.800333   -2.426232   -0.000248
     20          8           0        6.114524   -0.686569    0.000579
     21          1           0       -7.139573   -1.272367    0.040387
     22          1           0       -6.219034   -2.448583   -0.902571
     23          1           0       -6.176884   -2.499405    0.868598
     24          1           0       -4.872228   -0.785728   -2.147094
     25          1           0       -2.949786    0.801309   -2.143258
     26          1           0       -2.949608    0.802112    2.142560
     27          1           0       -4.871898   -0.784867    2.147365
     28          1           0        2.465597   -1.986404   -0.000723
     29          1           0        5.043415    1.441647    0.001031
     30          1           0        3.057527    2.987035    0.001054
 ---------------------------------------------------------------------

 SCF Done:  E(UB3LYP) =  -1273.15371149     A.U. after   29 cycles

 The electronic state is 2-A.
 Alpha  occ. eigenvalues --  -88.76873 -19.08800 -18.95090 -18.95067 -14.33009
 Alpha  occ. eigenvalues --  -14.19847 -10.17790 -10.16911 -10.12631 -10.11699
 Alpha  occ. eigenvalues --  -10.11596 -10.11589 -10.11479 -10.11470 -10.08747
 Alpha  occ. eigenvalues --  -10.08143 -10.06786 -10.05155 -10.04836 -10.04617
 Alpha  occ. eigenvalues --   -7.85504  -5.81810  -5.81488  -5.81019  -1.03093
 Alpha  occ. eigenvalues --   -1.01731  -0.85936  -0.84994  -0.80085  -0.73605
 Alpha  occ. eigenvalues --   -0.71570  -0.69247  -0.68765  -0.64944  -0.62880
 Alpha  occ. eigenvalues --   -0.60881  -0.56392  -0.55901  -0.52745  -0.50019
 Alpha  occ. eigenvalues --   -0.47901  -0.45192  -0.42923  -0.42451  -0.40849
 Alpha  occ. eigenvalues --   -0.39433  -0.38076  -0.37675  -0.36911  -0.36810
 Alpha  occ. eigenvalues --   -0.35444  -0.35150  -0.34791  -0.32775  -0.32435
 Alpha  occ. eigenvalues --   -0.31862  -0.30717  -0.30435  -0.29353  -0.29029
 Alpha  occ. eigenvalues --   -0.28232  -0.26655  -0.26401  -0.22481  -0.20600
 Alpha  occ. eigenvalues --   -0.19967  -0.19029  -0.18025  -0.17534  -0.14244
 Alpha  occ. eigenvalues --   -0.12893  -0.12168  -0.11327  -0.10778   0.02087
 Alpha virt. eigenvalues --    0.04101   0.04362   0.04571   0.06516   0.06893
 Alpha virt. eigenvalues --    0.08369   0.09312   0.09347   0.10137   0.10213
 Alpha virt. eigenvalues --    0.10655   0.10747   0.10882   0.12100   0.12335

  Beta  occ. eigenvalues --  -88.76859 -19.08736 -18.94663 -18.94593 -14.32449
  Beta  occ. eigenvalues --  -14.19955 -10.17531 -10.16917 -10.12636 -10.11699
  Beta  occ. eigenvalues --  -10.11584 -10.11576 -10.11465 -10.11455 -10.08823
  Beta  occ. eigenvalues --  -10.07914 -10.06688 -10.05194 -10.04640 -10.04539
  Beta  occ. eigenvalues --   -7.85492  -5.81807  -5.81483  -5.80970  -1.02130
  Beta  occ. eigenvalues --   -1.01569  -0.85086  -0.84880  -0.80061  -0.73401
  Beta  occ. eigenvalues --   -0.71527  -0.69213  -0.68692  -0.64629  -0.62665
  Beta  occ. eigenvalues --   -0.60604  -0.56011  -0.55855  -0.52316  -0.49876
  Beta  occ. eigenvalues --   -0.47793  -0.44910  -0.42729  -0.42374  -0.40751
  Beta  occ. eigenvalues --   -0.39311  -0.38001  -0.37191  -0.36894  -0.36799
  Beta  occ. eigenvalues --   -0.34926  -0.34533  -0.32788  -0.32308  -0.32054
  Beta  occ. eigenvalues --   -0.31704  -0.30473  -0.30409  -0.29246  -0.28963
  Beta  occ. eigenvalues --   -0.28091  -0.26269  -0.26171  -0.22405  -0.20190
  Beta  occ. eigenvalues --   -0.19621  -0.18802  -0.17998  -0.17590  -0.12446
  Beta  occ. eigenvalues --   -0.11949  -0.10704  -0.10329  -0.10254
  Beta virt. eigenvalues --    0.04274   0.04359   0.04584   0.06505   0.06883
  Beta virt. eigenvalues --    0.08289   0.08367   0.09358   0.09366   0.10143
  Beta virt. eigenvalues --    0.10751   0.10855   0.10893   0.12069   0.12284

 Mulliken charges and spin densities:
               1          2
     1  C   -0.723254   0.001003
     2  C    0.303892  -0.004802
     3  C   -0.228646   0.012570
     4  C    0.299415   0.006699
     5  C   -0.679842  -0.001314
     6  C    0.304210   0.005849
     7  C   -0.184600   0.013651
     8  O    0.070941   0.013170
     9  C    0.075889   0.141070
    10  N   -0.029755  -0.056290
    11  C   -1.565054   0.121917
    12  C    2.369756  -0.047799
    13  S   -0.517382   0.011854
    14  C   -0.402884   0.186685
    15  C   -0.239838  -0.018576
    16  C    0.116504   0.099740
    17  C   -1.121734  -0.000268
    18  N   -0.242817   0.187081
    19  O   -0.176710   0.166083
    20  O   -0.181549   0.179482
    21  H    0.159671  -0.000124
    22  H    0.140198   0.000045
    23  H    0.139852   0.000110
    24  H    0.171979  -0.000701
    25  H    0.182125  -0.000571
    26  H    0.181559  -0.000530
    27  H    0.174885  -0.000772
    28  H    0.225837  -0.011507
    29  H    0.225148  -0.005423
    30  H    0.152202   0.001670
 Sum of Mulliken charges =  -1.00000   1.00000

 Dipole moment (field-independent basis, Debye):
    X=            -19.0378    Y=              1.4823    Z=              0.0034  Tot=             19.0954
 Quadrupole moment (field-independent basis, Debye-Ang):
   XX=           -229.0655   YY=           -148.7545   ZZ=           -122.7330
   XY=             32.1438   XZ=             -0.0220   YZ=             -0.0011

 Summary of Natural Population Analysis:

                                       Natural Population
                Natural  -----------------------------------------------
    Atom  No    Charge         Core      Valence    Rydberg      Total
 -----------------------------------------------------------------------
      C    1   -0.29251      0.99964     2.28811    0.00476     3.29251
      C    2   -0.02255      0.99952     2.01521    0.00781     3.02255
      C    3   -0.09607      0.99953     2.08836    0.00818     3.09607
      C    4   -0.10698      0.99950     2.09844    0.00904     3.10698
      C    5    0.14295      0.99934     1.84485    0.01286     2.85705
      C    6   -0.10704      0.99950     2.09851    0.00903     3.10704
      C    7   -0.09580      0.99953     2.08808    0.00819     3.09580
      O    8   -0.26080      0.99981     3.24820    0.01278     4.26080
      C    9    0.24751      0.99954     1.73239    0.02056     2.75249
      N   10   -0.27597      0.99961     2.76495    0.01141     3.77597
      C   11    0.09677      0.99943     1.89107    0.01272     2.90323
      C   12   -0.11916      0.99941     2.11079    0.00896     3.11916
      S   13    0.14286      4.99945     2.83905    0.01865     7.85714
      C   14   -0.06852      0.99946     2.05779    0.01127     3.06852
      C   15    0.05656      0.99941     1.93215    0.01189     2.94344
      C   16   -0.08286      0.99954     2.07345    0.00987     3.08286
      C   17   -0.11911      0.99953     2.11046    0.00912     3.11911
      N   18    0.29731      0.99972     2.17564    0.02732     3.20269
      O   19   -0.20027      0.99990     3.19242    0.00796     4.20027
      O   20   -0.19170      0.99990     3.18389    0.00791     4.19170
      H   21    0.10264      0.00000     0.39643    0.00094     0.39736
      H   22    0.10194      0.00000     0.39719    0.00087     0.39806
      H   23    0.10223      0.00000     0.39689    0.00087     0.39777
      H   24    0.09856      0.00000     0.40048    0.00096     0.40144
      H   25    0.11066      0.00000     0.38833    0.00102     0.38934
      H   26    0.11065      0.00000     0.38833    0.00102     0.38935
      H   27    0.09855      0.00000     0.40048    0.00096     0.40145
      H   28    0.11642      0.00000     0.38208    0.00150     0.38358
      H   29    0.11397      0.00000     0.38470    0.00133     0.38603
      H   30    0.09975      0.00000     0.39859    0.00166     0.40025
 =======================================================================
   * Total *    0.00000     23.99128    49.76731    0.24141    74.00000

 Normal termination of Gaussian 16 at Sun Dec 13 17:48:17 2020.
