 Gaussian 16, Revision A.03,

 -----------------------------------------------------------
 # opt freq B3LYP/6-31G(d) empiricaldispersion=gd3bj scf=xqc
 -----------------------------------------------------------

 --------------------------------
 CID_104374296_JID_10126_neutraal
 --------------------------------
 Symbolic Z-matrix:
 Charge =  0 Multiplicity = 1

 SCF Done:  E(RB3LYP) =  -927.483312052     A.U. after   15 cycles
 SCF Done:  E(RB3LYP) =  -927.490027627     A.U. after   13 cycles
 SCF Done:  E(RB3LYP) =  -927.490597699     A.U. after   13 cycles
 SCF Done:  E(RB3LYP) =  -927.492039374     A.U. after   12 cycles
 SCF Done:  E(RB3LYP) =  -927.492378112     A.U. after   13 cycles
 SCF Done:  E(RB3LYP) =  -927.492506235     A.U. after   13 cycles
 SCF Done:  E(RB3LYP) =  -927.492642833     A.U. after   12 cycles
 SCF Done:  E(RB3LYP) =  -927.492681913     A.U. after   11 cycles
 SCF Done:  E(RB3LYP) =  -927.492704703     A.U. after   11 cycles
 SCF Done:  E(RB3LYP) =  -927.492710359     A.U. after   10 cycles
 SCF Done:  E(RB3LYP) =  -927.493367688     A.U. after    7 cycles
 SCF Done:  E(RB3LYP) =  -927.493367901     A.U. after    7 cycles
 SCF Done:  E(RB3LYP) =  -927.493368081     A.U. after    7 cycles
 SCF Done:  E(RB3LYP) =  -927.493368326     A.U. after    7 cycles
 SCF Done:  E(RB3LYP) =  -927.493368435     A.U. after    7 cycles
 SCF Done:  E(RB3LYP) =  -927.493368462     A.U. after    7 cycles
 Optimization completed.
    -- Stationary point found.
 Normal termination of Gaussian 16 at Mon Dec 14 13:53:04 2020.

 --------------------------------------------------------------------
 #N Geom=AllCheck Guess=TCheck SCRF=Check GenChk RB3LYP/6-31G(d) Freq
 --------------------------------------------------------------------

 Structure from the checkpoint file:  "JID_10126.chk"
 --------------------------------
 CID_104374296_JID_10126_neutraal
 --------------------------------
 Charge =  0 Multiplicity = 1

 SCF Done:  E(RB3LYP) =  -927.493368462     A.U. after    1 cycles

  Exact polarizability: 239.550   1.112 186.503  -3.564   9.638 101.113
 Approx polarizability: 359.100   0.373 319.867 -16.724  25.304 163.508

                      1                      2                      3
                      A                      A                      A
 Frequencies --     30.9647                44.8960                54.4350
 Red. masses --      6.3376                 4.0836                 4.2372
 Frc consts  --      0.0036                 0.0048                 0.0074
 IR Inten    --      0.9660                 0.6457                 0.6582

                      4                      5                      6
                      A                      A                      A
 Frequencies --     71.1738                77.6391                83.3615
 Red. masses --      4.1556                 1.3044                 1.2996
 Frc consts  --      0.0124                 0.0046                 0.0053
 IR Inten    --      0.1795                 0.1780                 0.1289

                      7                      8                      9
                      A                      A                      A
 Frequencies --     97.7719               131.1210               154.6689
 Red. masses --      1.7203                 1.5900                 3.7051
 Frc consts  --      0.0097                 0.0161                 0.0522
 IR Inten    --      0.0697                 0.8989                 2.8562

                     10                     11                     12
                      A                      A                      A
 Frequencies --    169.5638               186.8726               233.7799
 Red. masses --      4.4466                 2.4544                 4.2517
 Frc consts  --      0.0753                 0.0505                 0.1369
 IR Inten    --      0.9123                 0.5558                 2.6558

                     13                     14                     15
                      A                      A                      A
 Frequencies --    259.7819               264.9642               282.5779
 Red. masses --      3.6317                 6.1367                 3.1165
 Frc consts  --      0.1444                 0.2538                 0.1466
 IR Inten    --      3.9678                 2.9989                 5.6727

                     16                     17                     18
                      A                      A                      A
 Frequencies --    286.0404               306.0184               313.4611
 Red. masses --      3.0556                 5.9644                 5.6012
 Frc consts  --      0.1473                 0.3291                 0.3243
 IR Inten    --      3.8939                 0.7608                 0.5953

                     19                     20                     21
                      A                      A                      A
 Frequencies --    342.5916               359.2870               458.4720
 Red. masses --      6.8249                 7.2485                 3.5500
 Frc consts  --      0.4720                 0.5513                 0.4396
 IR Inten    --      0.9317                 0.7304                 2.5515

                     22                     23                     24
                      A                      A                      A
 Frequencies --    476.9109               545.1632               582.3436
 Red. masses --      5.8112                 3.0468                 5.5141
 Frc consts  --      0.7787                 0.5335                 1.1017
 IR Inten    --      5.4188                23.8112                12.7457

                     25                     26                     27
                      A                      A                      A
 Frequencies --    611.5257               618.6130               634.5472
 Red. masses --      1.8423                 3.6377                 4.2676
 Frc consts  --      0.4059                 0.8202                 1.0124
 IR Inten    --     49.4219                24.8661                10.3595

                     28                     29                     30
                      A                      A                      A
 Frequencies --    651.9083               660.6826               674.7445
 Red. masses --      4.2197                 5.0406                 4.8576
 Frc consts  --      1.0566                 1.2963                 1.3030
 IR Inten    --     17.4772                33.8459                29.4691

                     31                     32                     33
                      A                      A                      A
 Frequencies --    679.6909               690.3138               718.8448
 Red. masses --      5.2807                 6.5467                 5.3738
 Frc consts  --      1.4373                 1.8381                 1.6361
 IR Inten    --     15.9281                 4.7489                48.8820

                     34                     35                     36
                      A                      A                      A
 Frequencies --    744.1827               768.9827               785.1976
 Red. masses --      4.5139                 6.4413                 1.3454
 Frc consts  --      1.4729                 2.2442                 0.4887
 IR Inten    --      1.1560                11.2795                16.7730

                     37                     38                     39
                      A                      A                      A
 Frequencies --    812.5135               820.7596               866.9346
 Red. masses --      5.6492                 6.0322                 1.4424
 Frc consts  --      2.1974                 2.3942                 0.6387
 IR Inten    --     19.9135                10.2618                 5.1737

                     40                     41                     42
                      A                      A                      A
 Frequencies --    886.6643               961.7274               965.3030
 Red. masses --      8.4522                 2.8441                 1.4536
 Frc consts  --      3.9151                 1.5499                 0.7980
 IR Inten    --     33.4150                18.4127                 2.4830

                     43                     44                     45
                      A                      A                      A
 Frequencies --    992.9964               999.0760              1016.9423
 Red. masses --      2.1943                 2.3655                 2.3331
 Frc consts  --      1.2748                 1.3912                 1.4216
 IR Inten    --      2.5211                 0.7640                 4.2880

                     46                     47                     48
                      A                      A                      A
 Frequencies --   1070.6184              1081.6344              1117.8623
 Red. masses --      1.3916                 1.5140                 3.2024
 Frc consts  --      0.9398                 1.0436                 2.3578
 IR Inten    --      3.2951                 2.9519                 4.7663

                     49                     50                     51
                      A                      A                      A
 Frequencies --   1166.1774              1167.8176              1172.0486
 Red. masses --      1.3065                 2.7864                 2.4179
 Frc consts  --      1.0469                 2.2389                 1.9569
 IR Inten    --      7.5143               440.4460                18.5515

                     52                     53                     54
                      A                      A                      A
 Frequencies --   1215.1552              1233.0814              1241.7800
 Red. masses --      3.8225                 1.6988                 2.7051
 Frc consts  --      3.3255                 1.5218                 2.4576
 IR Inten    --     68.7596                37.6400                 1.2518

                     55                     56                     57
                      A                      A                      A
 Frequencies --   1266.7280              1272.7105              1300.3603
 Red. masses --      3.7061                 1.9480                 5.0933
 Frc consts  --      3.5038                 1.8591                 5.0743
 IR Inten    --      2.0218                11.1723                36.6401

                     58                     59                     60
                      A                      A                      A
 Frequencies --   1324.8980              1357.1626              1385.7581
 Red. masses --      4.0885                 3.5708                 2.9034
 Frc consts  --      4.2284                 3.8751                 3.2850
 IR Inten    --      5.2965                 7.0095                 7.7952

                     61                     62                     63
                      A                      A                      A
 Frequencies --   1400.4099              1407.7482              1439.0885
 Red. masses --      2.8727                 3.1114                 3.0957
 Frc consts  --      3.3193                 3.6329                 3.7773
 IR Inten    --     81.3429               152.0374                68.0506

                     64                     65                     66
                      A                      A                      A
 Frequencies --   1447.5141              1451.8547              1466.7573
 Red. masses --      1.7046                 1.4977                 1.3550
 Frc consts  --      2.1043                 1.8600                 1.7176
 IR Inten    --      1.0273                29.2177                13.6559

                     67                     68                     69
                      A                      A                      A
 Frequencies --   1493.7647              1506.0674              1507.1802
 Red. masses --      3.5240                 1.0498                 1.0743
 Frc consts  --      4.6328                 1.4029                 1.4379
 IR Inten    --     55.3298                 3.9118                10.8229

                     70                     71                     72
                      A                      A                      A
 Frequencies --   1510.1577              1512.6632              1521.3819
 Red. masses --      2.9810                 1.0446                 1.1426
 Frc consts  --      4.0055                 1.4082                 1.5582
 IR Inten    --     18.1923                 7.7265                28.8432

                     73                     74                     75
                      A                      A                      A
 Frequencies --   1526.7797              1539.4247              1541.6506
 Red. masses --      1.5241                 1.6026                 1.7824
 Frc consts  --      2.0933                 2.2376                 2.4959
 IR Inten    --     74.5778                82.1317                53.7006

                     76                     77                     78
                      A                      A                      A
 Frequencies --   1566.0651              1610.4941              1641.6746
 Red. masses --      3.9466                 7.0209                 7.7321
 Frc consts  --      5.7029                10.7291                12.2778
 IR Inten    --     27.3873                86.3555               168.9538

                     79                     80                     81
                      A                      A                      A
 Frequencies --   1655.7007              1821.5649              3048.9919
 Red. masses --      7.0202                 9.7763                 1.0374
 Frc consts  --     11.3388                19.1124                 5.6823
 IR Inten    --     95.0238               314.0376                40.2711

                     82                     83                     84
                      A                      A                      A
 Frequencies --   3054.5185              3076.8847              3103.5500
 Red. masses --      1.0374                 1.0325                 1.0997
 Frc consts  --      5.7028                 5.7594                 6.2407
 IR Inten    --     22.9125                49.8719                17.6069

                     85                     86                     87
                      A                      A                      A
 Frequencies --   3110.3729              3129.5628              3136.0221
 Red. masses --      1.1012                 1.1018                 1.0994
 Frc consts  --      6.2767                 6.3578                 6.3706
 IR Inten    --     12.8113                19.8452                17.8457

                     88                     89                     90
                      A                      A                      A
 Frequencies --   3145.0069              3183.3036              3228.6365
 Red. masses --      1.1067                 1.1041                 1.0908
 Frc consts  --      6.4495                 6.5922                 6.6995
 IR Inten    --     12.9941                 1.3697                 2.7598

                     91                     92                     93
                      A                      A                      A
 Frequencies --   3266.0606              3274.4538              3697.6071
 Red. masses --      1.0967                 1.0966                 1.0642
 Frc consts  --      6.8926                 6.9278                 8.5725
 IR Inten    --      0.3352                 0.8778                87.3851

 - Thermochemistry -
 -------------------
 Temperature   298.150 Kelvin.  Pressure   1.00000 Atm.
 Atom     1 has atomic number  6 and mass  12.00000

 Molecular mass:   271.10692 amu.
 Principal axes and moments of inertia in atomic units:
                           1         2         3
     Eigenvalues --  3365.725516529.018809040.98200
           X            0.99991  -0.00822   0.01047
           Y            0.00820   0.99996   0.00183
           Z           -0.01049  -0.00174   0.99994
 This molecule is an asymmetric top.
 Rotational symmetry number  1.
 Warning -- assumption of classical behavior for rotation
           may cause significant error
 Rotational temperatures (Kelvin)      0.02573     0.01327     0.00958
 Rotational constants (GHZ):           0.53621     0.27642     0.19962
 Zero-point vibrational energy     674530.6 (Joules/Mol)
                                  161.21669 (Kcal/Mol)
 Warning -- explicit consideration of  26 degrees of freedom as
           vibrations may cause significant error
 Vibrational temperatures:     44.55    64.60    78.32   102.40   111.71
          (Kelvin)            119.94   140.67   188.65   222.53   243.96
                              268.87   336.36   373.77   381.22   406.57
                              411.55   440.29   451.00   492.91   516.93
                              659.64   686.17   784.37   837.86   879.85
                              890.05   912.97   937.95   950.57   970.81
                              977.92   993.21  1034.26  1070.71  1106.39
                             1129.72  1169.03  1180.89  1247.33  1275.71
                             1383.71  1388.86  1428.70  1437.45  1463.15
                             1540.38  1556.23  1608.35  1677.87  1680.23
                             1686.32  1748.34  1774.13  1786.64  1822.54
                             1831.15  1870.93  1906.23  1952.65  1993.80
                             2014.88  2025.44  2070.53  2082.65  2088.90
                             2110.34  2149.19  2166.90  2168.50  2172.78
                             2176.38  2188.93  2196.70  2214.89  2218.09
                             2253.22  2317.14  2362.00  2382.18  2620.83
                             4386.82  4394.77  4426.95  4465.32  4475.13
                             4502.74  4512.04  4524.96  4580.06  4645.29
                             4699.13  4711.21  5320.03

 Zero-point correction=                           0.256915 (Hartree/Particle)
 Thermal correction to Energy=                    0.274838
 Thermal correction to Enthalpy=                  0.275782
 Thermal correction to Gibbs Free Energy=         0.209687
 Sum of electronic and zero-point Energies=           -927.236453
 Sum of electronic and thermal Energies=              -927.218531
 Sum of electronic and thermal Enthalpies=            -927.217587
 Sum of electronic and thermal Free Energies=         -927.283681

                     E (Thermal)             CV                S
                      KCal/Mol        Cal/Mol-Kelvin    Cal/Mol-Kelvin
 Total                  172.463             66.247            139.108
 Electronic               0.000              0.000              0.000
 Translational            0.889              2.981             42.691
 Rotational               0.889              2.981             33.651
 Vibrational            170.686             60.285             62.765
 Vibration     1          0.594              1.984              5.767
 Vibration     2          0.595              1.979              5.030
 Vibration     3          0.596              1.976              4.649
 Vibration     4          0.598              1.968              4.121
 Vibration     5          0.599              1.964              3.950
 Vibration     6          0.600              1.961              3.810
 Vibration     7          0.603              1.951              3.498
 Vibration     8          0.612              1.922              2.930
 Vibration     9          0.620              1.897              2.614
 Vibration    10          0.625              1.880              2.440
 Vibration    11          0.632              1.858              2.259
 Vibration    12          0.654              1.789              1.850
 Vibration    13          0.668              1.746              1.663
 Vibration    14          0.671              1.737              1.629
 Vibration    15          0.682              1.706              1.518
 Vibration    16          0.684              1.700              1.497
 Vibration    17          0.696              1.662              1.384
 Vibration    18          0.701              1.648              1.344
 Vibration    19          0.722              1.590              1.200
 Vibration    20          0.734              1.556              1.125
 Vibration    21          0.816              1.342              0.771
 Vibration    22          0.833              1.301              0.718
 Vibration    23          0.900              1.150              0.554
 Vibration    24          0.939              1.070              0.481
 Vibration    25          0.971              1.007              0.430
 Vibration    26          0.978              0.993              0.419

 Optimization completed.
    -- Stationary point found.
 Normal termination of Gaussian 16 at Mon Dec 14 14:09:58 2020.

 ----------------------------------------------------------------------
 # B3LYP/6-311++G(d,p) empiricaldispersion=gd3bj scf=xqc pop=npa geom=c
 heck
 ----------------------------------------------------------------------

 ----------------------------------------
 CID_104374296_JID_10126_Energie_neutraal
 ----------------------------------------
 Structure from the checkpoint file:  "JID_10126.chk"
 Charge =  0 Multiplicity = 1

 SCF Done:  E(RB3LYP) =  -927.743325576     A.U. after   16 cycles
 Normal termination of Gaussian 16 at Mon Dec 14 14:16:02 2020.

 ----------------------------------------------------------------------
 # B3LYP/6-311++G(d,p) empiricaldispersion=gd3bj scf=xqc pop=npa geom=c
 heck
 ----------------------------------------------------------------------

 --------------------------------------
 CID_104374296_JID_10126_Energie_kation
 --------------------------------------
 Structure from the checkpoint file:  "JID_10126.chk"
 Charge =  1 Multiplicity = 2

 SCF Done:  E(UB3LYP) =  -927.455198676     A.U. after   25 cycles
 Normal termination of Gaussian 16 at Mon Dec 14 14:28:59 2020.
 Gaussian 16:  ES64L-G16RevA.03 25-Dec-2016

 ----------------------------------------------------------------------
 # B3LYP/6-311++G(d,p) empiricaldispersion=gd3bj scf=xqc pop=npa geom=c
 heck
 ----------------------------------------------------------------------

 -------------------------------------
 CID_104374296_JID_10126_Energie_anion
 -------------------------------------
 Structure from the checkpoint file:  "JID_10126.chk"
 Charge = -1 Multiplicity = 2

                         Standard orientation:
 ---------------------------------------------------------------------
 Center     Atomic      Atomic             Coordinates (Angstroms)
 Number     Number       Type             X           Y           Z
 ---------------------------------------------------------------------
      1          6           0        4.514852   -1.692497    0.549103
      2          6           0        3.150339   -1.350838    0.043874
      3          6           0        2.245138   -0.455053    0.561979
      4          7           0        1.133976   -0.534838   -0.285568
      5          6           0        1.439873   -1.474817   -1.253156
      6          7           0        2.638458   -1.966147   -1.091172
      7          6           0       -0.111988    0.106918   -0.169851
      8          6           0       -1.264730   -0.686327   -0.080499
      9          6           0       -1.588082   -2.075546   -0.048723
     10          7           0       -2.892025   -2.253144    0.081372
     11          7           0       -3.454818   -1.010912    0.148333
     12          6           0       -2.516155   -0.031700    0.058079
     13          7           0       -2.725947    1.290189    0.125698
     14          6           0       -1.618520    2.014372    0.030045
     15          6           0       -0.298655    1.501376   -0.130841
     16          6           0        0.811313    2.451111   -0.382160
     17          8           0        1.910155    2.172321   -0.815267
     18          8           0        0.462786    3.736423   -0.100145
     19          6           0       -4.885421   -0.850401    0.306040
     20          6           0        2.286471    0.409392    1.775660
     21          1           0        4.635938   -2.778123    0.632019
     22          1           0        4.703087   -1.247256    1.530860
     23          1           0        5.290522   -1.330574   -0.136875
     24          1           0        0.745956   -1.706022   -2.049710
     25          1           0       -0.925740   -2.926959   -0.118397
     26          1           0       -1.746708    3.090789    0.063367
     27          1           0        1.238584    4.272715   -0.347724
     28          1           0       -5.216028   -1.332150    1.230017
     29          1           0       -5.092459    0.219712    0.348962
     30          1           0       -5.408964   -1.298387   -0.542826
     31          1           0        3.023858    0.018941    2.482349
     32          1           0        2.566597    1.440527    1.535414
     33          1           0        1.317717    0.434851    2.287907
 ---------------------------------------------------------------------

 SCF Done:  E(UB3LYP) =  -927.776205769     A.U. after   23 cycles

 The electronic state is 2-A.
 Alpha  occ. eigenvalues --  -19.04226 -18.97265 -14.25970 -14.23692 -14.19812
 Alpha  occ. eigenvalues --  -14.17079 -14.16449 -10.16377 -10.10405 -10.10182
 Alpha  occ. eigenvalues --  -10.08989 -10.08122 -10.07498 -10.06551 -10.06076
 Alpha  occ. eigenvalues --  -10.06069 -10.05942 -10.05882 -10.04711 -10.04223
 Alpha  occ. eigenvalues --   -0.98047  -0.92399  -0.88952  -0.88319  -0.81310
 Alpha  occ. eigenvalues --   -0.76572  -0.72505  -0.67127  -0.65945  -0.65111
 Alpha  occ. eigenvalues --   -0.61189  -0.59274  -0.55881  -0.54350  -0.51662
 Alpha  occ. eigenvalues --   -0.47997  -0.47606  -0.45019  -0.42943  -0.41230
 Alpha  occ. eigenvalues --   -0.39773  -0.37518  -0.36603  -0.35742  -0.35197
 Alpha  occ. eigenvalues --   -0.33714  -0.32972  -0.32646  -0.31850  -0.31806
 Alpha  occ. eigenvalues --   -0.30320  -0.29632  -0.29389  -0.28993  -0.28437
 Alpha  occ. eigenvalues --   -0.27962  -0.27353  -0.26824  -0.26559  -0.25706
 Alpha  occ. eigenvalues --   -0.23983  -0.20347  -0.19102  -0.17151  -0.16064
 Alpha  occ. eigenvalues --   -0.15017  -0.14121  -0.13436  -0.12397  -0.11053
 Alpha  occ. eigenvalues --   -0.09347   0.02358
 Alpha virt. eigenvalues --    0.07810   0.08008   0.08525   0.08932   0.10122
 Alpha virt. eigenvalues --    0.10754   0.11086   0.11308   0.11864   0.12643
 Alpha virt. eigenvalues --    0.12878   0.12997   0.13451   0.13965   0.14259

  Beta  occ. eigenvalues --  -19.04160 -18.97124 -14.26031 -14.23763 -14.19511
  Beta  occ. eigenvalues --  -14.16809 -14.16432 -10.16226 -10.10403 -10.10112
  Beta  occ. eigenvalues --  -10.08901 -10.08150 -10.07440 -10.06058 -10.05950
  Beta  occ. eigenvalues --  -10.05944 -10.05880 -10.05786 -10.04693 -10.04280
  Beta  occ. eigenvalues --   -0.97851  -0.92187  -0.88751  -0.88127  -0.80927
  Beta  occ. eigenvalues --   -0.76224  -0.72351  -0.66862  -0.65572  -0.64815
  Beta  occ. eigenvalues --   -0.61122  -0.59112  -0.55660  -0.53872  -0.51441
  Beta  occ. eigenvalues --   -0.47810  -0.47455  -0.44864  -0.42795  -0.41110
  Beta  occ. eigenvalues --   -0.39475  -0.37318  -0.36425  -0.35602  -0.34975
  Beta  occ. eigenvalues --   -0.33578  -0.32768  -0.32162  -0.31736  -0.31603
  Beta  occ. eigenvalues --   -0.30153  -0.29552  -0.28933  -0.28898  -0.28345
  Beta  occ. eigenvalues --   -0.27845  -0.27200  -0.26765  -0.26458  -0.25532
  Beta  occ. eigenvalues --   -0.23006  -0.19554  -0.17671  -0.16773  -0.15787
  Beta  occ. eigenvalues --   -0.14882  -0.13869  -0.13180  -0.11451  -0.10036
  Beta  occ. eigenvalues --   -0.08930
  Beta virt. eigenvalues --    0.07801   0.07999   0.08505   0.09059   0.09641
  Beta virt. eigenvalues --    0.10123   0.10762   0.11093   0.11396   0.11903
  Beta virt. eigenvalues --    0.12701   0.12878   0.13039   0.13588   0.14071

 Mulliken charges and spin densities:
               1          2
     1  C   -0.628503   0.000533
     2  C   -0.101749  -0.006744
     3  C    0.379915   0.049450
     4  N    0.431012  -0.037602
     5  C    0.066849   0.040677
     6  N   -0.102215   0.007633
     7  C    0.102018   0.455748
     8  C   -0.441546  -0.016356
     9  C   -0.073127   0.076205
    10  N   -0.353151   0.142609
    11  N    0.265577  -0.041787
    12  C   -0.472030   0.033399
    13  N   -0.170340   0.128474
    14  C    0.007707  -0.028136
    15  C   -0.199095   0.043709
    16  C   -0.186495   0.102274
    17  O   -0.321203   0.049491
    18  O   -0.164845   0.012569
    19  C   -0.310171  -0.000670
    20  C   -0.827451  -0.008293
    21  H    0.130915   0.001571
    22  H    0.105502  -0.000466
    23  H    0.139494   0.004338
    24  H    0.146957  -0.003082
    25  H    0.189922  -0.007183
    26  H    0.198771   0.000480
    27  H    0.259057  -0.000075
    28  H    0.144033   0.001080
    29  H    0.174450  -0.000618
    30  H    0.143505  -0.000415
    31  H    0.117377  -0.001185
    32  H    0.201907   0.000542
    33  H    0.146954   0.001830
 Sum of Mulliken charges =  -1.00000   1.00000

 Dipole moment (field-independent basis, Debye):
    X=             -0.4686    Y=              2.0318    Z=              2.3419  Tot=              3.1357
 Quadrupole moment (field-independent basis, Debye-Ang):
   XX=           -152.8602   YY=           -144.0709   ZZ=           -124.8804
   XY=              3.7879   XZ=              9.5015   YZ=             -2.1371

 Summary of Natural Population Analysis:

                                       Natural Population
                Natural  -----------------------------------------------
    Atom  No    Charge         Core      Valence    Rydberg      Total
 -----------------------------------------------------------------------
      C    1   -0.29162      0.99964     2.28746    0.00452     3.29162
      C    2    0.04127      0.99947     1.94655    0.01271     2.95873
      C    3    0.08110      0.99946     1.90828    0.01116     2.91890
      N    4   -0.22519      0.99963     2.70947    0.01608     3.72519
      C    5    0.12774      0.99965     1.85623    0.01637     2.87226
      N    6   -0.26510      0.99970     2.75333    0.01208     3.76510
      C    7    0.31194      0.99942     1.67626    0.01239     2.68806
      C    8   -0.11425      0.99952     2.10163    0.01310     3.11425
      C    9    0.01396      0.99962     1.97236    0.01405     2.98604
      N   10   -0.10970      0.99972     2.59804    0.01195     3.60970
      N   11   -0.13782      0.99961     2.62367    0.01454     3.63782
      C   12    0.20132      0.99948     1.78095    0.01826     2.79868
      N   13   -0.25227      0.99969     2.73080    0.02178     3.75227
      C   14    0.11019      0.99961     1.87933    0.01087     2.88981
      C   15   -0.16170      0.99954     2.14189    0.02027     3.16170
      C   16    0.41209      0.99966     1.56273    0.02551     2.58791
      O   17   -0.31094      0.99987     3.30214    0.00893     4.31094
      O   18   -0.35447      0.99988     3.34721    0.00737     4.35447
      C   19   -0.17281      0.99966     2.16647    0.00669     3.17281
      C   20   -0.29987      0.99964     2.29658    0.00365     3.29987
      H   21    0.09936      0.00000     0.39950    0.00114     0.40064
      H   22    0.09569      0.00000     0.40352    0.00079     0.40431
      H   23    0.09929      0.00000     0.39962    0.00109     0.40071
      H   24    0.09106      0.00000     0.40760    0.00134     0.40894
      H   25    0.09599      0.00000     0.40283    0.00118     0.40401
      H   26    0.08623      0.00000     0.41133    0.00245     0.41377
      H   27    0.23207      0.00000     0.26454    0.00338     0.26793
      H   28    0.09303      0.00000     0.40584    0.00113     0.40697
      H   29    0.10851      0.00000     0.39039    0.00110     0.39149
      H   30    0.09276      0.00000     0.40610    0.00114     0.40724
      H   31    0.09827      0.00000     0.40082    0.00091     0.40173
      H   32    0.10844      0.00000     0.39033    0.00123     0.39156
      H   33    0.10739      0.00000     0.39148    0.00113     0.39261
 =======================================================================
   * Total *    0.01197     19.99246    50.71528    0.28028    70.98803

 Normal termination of Gaussian 16 at Mon Dec 14 14:40:40 2020.
