 Gaussian 16, Revision A.03,

 -----------------------------------------------------------
 # opt freq B3LYP/6-31G(d) empiricaldispersion=gd3bj scf=xqc
 -----------------------------------------------------------

 -------------------------------
 CID_115184572_JID_4974_neutraal
 -------------------------------
 Symbolic Z-matrix:
 Charge =  0 Multiplicity = 1

 SCF Done:  E(RB3LYP) =  -663.035911938     A.U. after   15 cycles
 SCF Done:  E(RB3LYP) =  -663.041745729     A.U. after   13 cycles
 SCF Done:  E(RB3LYP) =  -663.041481486     A.U. after   14 cycles
 SCF Done:  E(RB3LYP) =  -663.042942561     A.U. after   13 cycles
 SCF Done:  E(RB3LYP) =  -663.044339215     A.U. after   13 cycles
 SCF Done:  E(RB3LYP) =  -663.045256660     A.U. after   15 cycles
 SCF Done:  E(RB3LYP) =  -663.046809237     A.U. after   13 cycles
 SCF Done:  E(RB3LYP) =  -663.048118360     A.U. after   13 cycles
 SCF Done:  E(RB3LYP) =  -663.048929936     A.U. after   12 cycles
 SCF Done:  E(RB3LYP) =  -663.049309010     A.U. after   13 cycles
 SCF Done:  E(RB3LYP) =  -663.049614641     A.U. after    8 cycles
 SCF Done:  E(RB3LYP) =  -663.049614947     A.U. after    9 cycles
 SCF Done:  E(RB3LYP) =  -663.049615057     A.U. after    8 cycles
 SCF Done:  E(RB3LYP) =  -663.049615170     A.U. after    8 cycles
 SCF Done:  E(RB3LYP) =  -663.049615226     A.U. after    8 cycles
 Optimization completed.
    -- Stationary point found.
 Normal termination of Gaussian 16 at Thu Dec 10 11:05:45 2020.

 --------------------------------------------------------------------
 #N Geom=AllCheck Guess=TCheck SCRF=Check GenChk RB3LYP/6-31G(d) Freq
 --------------------------------------------------------------------

 Structure from the checkpoint file:  "JID_4974.chk"
 -------------------------------
 CID_115184572_JID_4974_neutraal
 -------------------------------
 Charge =  0 Multiplicity = 1

 SCF Done:  E(RB3LYP) =  -663.049615226     A.U. after    1 cycles

  Exact polarizability: 122.474 -13.234  98.902 -11.703 -11.170  90.769
 Approx polarizability: 172.972 -32.619 166.957 -17.533 -27.380 150.371

                      1                      2                      3
                      A                      A                      A
 Frequencies --     30.3267                49.9080                68.6447
 Red. masses --      4.9157                 4.6596                 7.6121
 Frc consts  --      0.0027                 0.0068                 0.0211
 IR Inten    --      1.9695                 3.8585                 1.0093

                      4                      5                      6
                      A                      A                      A
 Frequencies --     81.7786               108.9705               136.7373
 Red. masses --      5.6266                 4.9424                 8.8467
 Frc consts  --      0.0222                 0.0346                 0.0975
 IR Inten    --      1.1878                 3.2360                 3.5065

                      7                      8                      9
                      A                      A                      A
 Frequencies --    191.0401               201.8891               287.8411
 Red. masses --      3.2285                 5.1144                 3.0809
 Frc consts  --      0.0694                 0.1228                 0.1504
 IR Inten    --      4.0496                 1.1536                 2.4527

                     10                     11                     12
                      A                      A                      A
 Frequencies --    317.8180               392.5239               403.2476
 Red. masses --      5.0667                 8.2036                 4.8290
 Frc consts  --      0.3015                 0.7447                 0.4626
 IR Inten    --     22.3290                 4.2085                 3.5389

                     13                     14                     15
                      A                      A                      A
 Frequencies --    493.6274               513.8614               521.5346
 Red. masses --      1.5139                 7.1528                 5.0320
 Frc consts  --      0.2173                 1.1128                 0.8064
 IR Inten    --     83.0424                 3.4441                 2.4373

                     16                     17                     18
                      A                      A                      A
 Frequencies --    551.1715               574.3145               601.6659
 Red. masses --      5.2486                 1.4629                 4.5346
 Frc consts  --      0.9394                 0.2843                 0.9672
 IR Inten    --     10.3721                72.5990                10.5837

                     19                     20                     21
                      A                      A                      A
 Frequencies --    648.0348               673.4094               698.9472
 Red. masses --      2.3382                 2.7935                 1.3352
 Frc consts  --      0.5785                 0.7464                 0.3843
 IR Inten    --      3.0827                31.5197                34.4840

                     22                     23                     24
                      A                      A                      A
 Frequencies --    744.3674               797.1763               829.9337
 Red. masses --      7.9445                 1.5251                 1.9200
 Frc consts  --      2.5935                 0.5710                 0.7792
 IR Inten    --     15.8631                22.6772                 8.9807

                     25                     26                     27
                      A                      A                      A
 Frequencies --    847.3064               851.0967               880.9336
 Red. masses --      2.4913                 2.1759                 2.4474
 Frc consts  --      1.0538                 0.9286                 1.1190
 IR Inten    --     26.3780                 4.5013                 9.9971

                     28                     29                     30
                      A                      A                      A
 Frequencies --    908.3899               979.7663              1001.0033
 Red. masses --      4.8881                 4.2751                 1.3787
 Frc consts  --      2.3765                 2.4179                 0.8140
 IR Inten    --      1.7374                38.3231                 0.6053

                     31                     32                     33
                      A                      A                      A
 Frequencies --   1010.9168              1044.8085              1068.1114
 Red. masses --      2.3482                10.3864                 8.4080
 Frc consts  --      1.4139                 6.6802                 5.6516
 IR Inten    --     23.9126                38.1858                37.6345

                     34                     35                     36
                      A                      A                      A
 Frequencies --   1095.2111              1105.9794              1147.8616
 Red. masses --      1.5521                 1.8219                 3.7983
 Frc consts  --      1.0969                 1.3130                 2.9486
 IR Inten    --     14.2994                20.2941                 3.9347

                     37                     38                     39
                      A                      A                      A
 Frequencies --   1161.4615              1169.6894              1173.6085
 Red. masses --      1.4460                 1.0852                 1.3566
 Frc consts  --      1.1493                 0.8748                 1.1009
 IR Inten    --      7.3349                 0.2447                 4.0739

                     40                     41                     42
                      A                      A                      A
 Frequencies --   1248.2422              1269.6307              1316.2987
 Red. masses --      2.6305                 1.7261                 1.2382
 Frc consts  --      2.4149                 1.6394                 1.2640
 IR Inten    --     11.4527                 9.9257                 1.3852

                     43                     44                     45
                      A                      A                      A
 Frequencies --   1329.0126              1370.0029              1388.8460
 Red. masses --      3.0390                 2.2496                 1.6788
 Frc consts  --      3.1626                 2.4877                 1.9079
 IR Inten    --     30.8087               134.1503                55.5498

                     46                     47                     48
                      A                      A                      A
 Frequencies --   1413.6865              1475.0906              1479.0725
 Red. masses --      3.8315                 2.1238                 2.8662
 Frc consts  --      4.5116                 2.7227                 3.6943
 IR Inten    --      3.4667                26.8753                 8.6297

                     49                     50                     51
                      A                      A                      A
 Frequencies --   1537.1674              1551.4598              1563.1507
 Red. masses --      1.0771                 3.2895                 1.1061
 Frc consts  --      1.4996                 4.6651                 1.5924
 IR Inten    --      0.3593                 3.7100                 2.5334

                     52                     53                     54
                      A                      A                      A
 Frequencies --   1624.1927              1799.0873              2354.7225
 Red. masses --      4.2516                 9.4046                12.6713
 Frc consts  --      6.6082                17.9347                41.3954
 IR Inten    --     28.3941               394.0543                17.0033

                     55                     56                     57
                      A                      A                      A
 Frequencies --   3070.2936              3081.4288              3125.1776
 Red. masses --      1.0530                 1.0580                 1.1139
 Frc consts  --      5.8482                 5.9189                 6.4096
 IR Inten    --     67.5509                 8.8442                20.5308

                     58                     59                     60
                      A                      A                      A
 Frequencies --   3139.8826              3264.2928              3290.2140
 Red. masses --      1.1130                 1.0922                 1.1024
 Frc consts  --      6.4652                 6.8568                 7.0312
 IR Inten    --     15.6242                 0.6053                 0.9185

                     61                     62                     63
                      A                      A                      A
 Frequencies --   3309.6571              3566.1367              3669.2263
 Red. masses --      1.0987                 1.0750                 1.0811
 Frc consts  --      7.0908                 8.0548                 8.5753
 IR Inten    --      3.0929                30.7383                75.5755

 - Thermochemistry -
 -------------------
 Temperature   298.150 Kelvin.  Pressure   1.00000 Atm.
 Atom     1 has atomic number  6 and mass  12.00000

 Molecular mass:   191.06948 amu.
 Principal axes and moments of inertia in atomic units:
                           1         2         3
     Eigenvalues --  1647.551443388.941563498.01373
           X            0.99999  -0.00393  -0.00358
           Y            0.00387   0.99981  -0.01893
           Z            0.00366   0.01892   0.99981
 This molecule is an asymmetric top.
 Rotational symmetry number  1.
 Warning -- assumption of classical behavior for rotation
           may cause significant error
 Rotational temperatures (Kelvin)      0.05257     0.02556     0.02476
 Rotational constants (GHZ):           1.09541     0.53254     0.51593
 Zero-point vibrational energy     464156.4 (Joules/Mol)
                                  110.93604 (Kcal/Mol)
 Warning -- explicit consideration of  18 degrees of freedom as
           vibrations may cause significant error
 Vibrational temperatures:     43.63    71.81    98.76   117.66   156.78
          (Kelvin)            196.73   274.86   290.47   414.14   457.27
                              564.75   580.18   710.22   739.33   750.37
                              793.01   826.31   865.66   932.38   968.89
                             1005.63  1070.98  1146.96  1194.09  1219.08
                             1224.54  1267.47  1306.97  1409.67  1440.22
                             1454.48  1503.25  1536.77  1575.76  1591.26
                             1651.52  1671.08  1682.92  1688.56  1795.94
                             1826.72  1893.86  1912.15  1971.13  1998.24
                             2033.98  2122.33  2128.06  2211.64  2232.20
                             2249.03  2336.85  2588.49  3387.92  4417.47
                             4433.49  4496.43  4517.59  4696.59  4733.88
                             4761.86  5130.88  5279.20

 Zero-point correction=                           0.176788 (Hartree/Particle)
 Thermal correction to Energy=                    0.189301
 Thermal correction to Enthalpy=                  0.190246
 Thermal correction to Gibbs Free Energy=         0.136291
 Sum of electronic and zero-point Energies=           -662.872827
 Sum of electronic and thermal Energies=              -662.860314
 Sum of electronic and thermal Enthalpies=            -662.859370
 Sum of electronic and thermal Free Energies=         -662.913324

                     E (Thermal)             CV                S
                      KCal/Mol        Cal/Mol-Kelvin    Cal/Mol-Kelvin
 Total                  118.788             46.065            113.557
 Electronic               0.000              0.000              0.000
 Translational            0.889              2.981             41.648
 Rotational               0.889              2.981             31.347
 Vibrational            117.011             40.104             40.562
 Vibration     1          0.594              1.984              5.808
 Vibration     2          0.595              1.978              4.821
 Vibration     3          0.598              1.969              4.192
 Vibration     4          0.600              1.962              3.848
 Vibration     5          0.606              1.942              3.287
 Vibration     6          0.614              1.917              2.849
 Vibration     7          0.634              1.852              2.218
 Vibration     8          0.639              1.837              2.116
 Vibration     9          0.685              1.696              1.487
 Vibration    10          0.704              1.640              1.321
 Vibration    11          0.760              1.486              0.991
 Vibration    12          0.769              1.463              0.951
 Vibration    13          0.849              1.264              0.674
 Vibration    14          0.869              1.219              0.624
 Vibration    15          0.877              1.202              0.606
 Vibration    16          0.906              1.137              0.542
 Vibration    17          0.931              1.087              0.496
 Vibration    18          0.960              1.028              0.447

                           ! Non-Optimized Parameters !
 Normal termination of Gaussian 16 at Thu Dec 10 11:12:02 2020.

 ----------------------------------------------------------------------
 # B3LYP/6-311++G(d,p) empiricaldispersion=gd3bj scf=xqc pop=npa geom=c
 heck
 ----------------------------------------------------------------------

 ---------------------------------------
 CID_115184572_JID_4974_Energie_neutraal
 ---------------------------------------
 Structure from the checkpoint file:  "JID_4974.chk"
 Charge =  0 Multiplicity = 1

 SCF Done:  E(RB3LYP) =  -663.243398262     A.U. after   15 cycles
 Normal termination of Gaussian 16 at Thu Dec 10 11:14:32 2020.

 ----------------------------------------------------------------------
 # B3LYP/6-311++G(d,p) empiricaldispersion=gd3bj scf=xqc pop=npa geom=c
 heck
 ----------------------------------------------------------------------

 -------------------------------------
 CID_115184572_JID_4974_Energie_kation
 -------------------------------------
 Structure from the checkpoint file:  "JID_4974.chk"
 Charge =  1 Multiplicity = 2

 SCF Done:  E(UB3LYP) =  -662.925446863     A.U. after   27 cycles
 Normal termination of Gaussian 16 at Thu Dec 10 11:20:42 2020.
 Gaussian 16:  ES64L-G16RevA.03 25-Dec-2016

 ----------------------------------------------------------------------
 # B3LYP/6-311++G(d,p) empiricaldispersion=gd3bj scf=xqc pop=npa geom=c
 heck
 ----------------------------------------------------------------------

 ------------------------------------
 CID_115184572_JID_4974_Energie_anion
 ------------------------------------
 Structure from the checkpoint file:  "JID_4974.chk"
 Charge = -1 Multiplicity = 2

                         Standard orientation:
 ---------------------------------------------------------------------
 Center     Atomic      Atomic             Coordinates (Angstroms)
 Number     Number       Type             X           Y           Z
 ---------------------------------------------------------------------
      1          6           0       -0.867006   -0.514520   -1.424137
      2          6           0       -1.344743   -0.206534    0.029716
      3          6           0       -2.760087   -0.258939   -0.608282
      4          8           0       -2.219142   -0.593399   -1.902603
      5          6           0       -1.091644   -1.260845    1.000681
      6          7           0       -0.899085   -2.103651    1.776720
      7          6           0       -0.978931    1.174269    0.616887
      8          8           0       -1.845810    1.960077    0.961578
      9          7           0        0.354713    1.450552    0.728774
     10          6           0        1.447875    0.671253    0.272268
     11          6           0        1.937869   -0.478897    0.863871
     12          7           0        2.996871   -0.901820    0.105197
     13          6           0        3.206265   -0.040575   -0.948319
     14          6           0        2.256342    0.952302   -0.873183
     15          1           0       -0.315532   -1.452628   -1.540692
     16          1           0       -0.304917    0.302422   -1.886555
     17          1           0       -3.263930    0.711120   -0.590047
     18          1           0       -3.418832   -1.040812   -0.218604
     19          1           0        0.538769    2.378806    1.094074
     20          1           0        1.601442   -1.019710    1.733699
     21          1           0        3.535056   -1.734404    0.289595
     22          1           0        4.004643   -0.206629   -1.655887
     23          1           0        2.139783    1.787750   -1.549231
 ---------------------------------------------------------------------

 SCF Done:  E(UB3LYP) =  -663.237422246     A.U. after   33 cycles
 SCF Done:  E(UB3LYP) =  -663.237422246     a.u. after    1 cycles

 The electronic state is 2-A.
 Alpha  occ. eigenvalues --  -19.04514 -19.01370 -14.26165 -14.26029 -14.22573
 Alpha  occ. eigenvalues --  -10.19970 -10.15048 -10.14996 -10.14782 -10.12607
 Alpha  occ. eigenvalues --  -10.10633 -10.10021 -10.09687 -10.06545  -0.97778
 Alpha  occ. eigenvalues --   -0.96422  -0.88645  -0.84476  -0.82294  -0.71714
 Alpha  occ. eigenvalues --   -0.67937  -0.63222  -0.62379  -0.55516  -0.52535
 Alpha  occ. eigenvalues --   -0.50763  -0.49041  -0.45709  -0.45171  -0.42907
 Alpha  occ. eigenvalues --   -0.39215  -0.38357  -0.37131  -0.34476  -0.33746
 Alpha  occ. eigenvalues --   -0.33414  -0.33384  -0.31923  -0.31443  -0.30103
 Alpha  occ. eigenvalues --   -0.29023  -0.28574  -0.26725  -0.24124  -0.23330
 Alpha  occ. eigenvalues --   -0.19380  -0.18561  -0.18223  -0.15299  -0.12687
 Alpha  occ. eigenvalues --    0.04284
 Alpha virt. eigenvalues --    0.06612   0.07245   0.07764   0.08023   0.09301
 Alpha virt. eigenvalues --    0.09458   0.10281   0.11007   0.11168   0.11544
 Alpha virt. eigenvalues --    0.12152   0.12758   0.13086   0.13861   0.14473

  Beta  occ. eigenvalues --  -19.04511 -19.01322 -14.26146 -14.25959 -14.22527
  Beta  occ. eigenvalues --  -10.19917 -10.15040 -10.14999 -10.14746 -10.12592
  Beta  occ. eigenvalues --  -10.10634 -10.10007 -10.09653 -10.06536  -0.97757
  Beta  occ. eigenvalues --   -0.96347  -0.88568  -0.84415  -0.82222  -0.71653
  Beta  occ. eigenvalues --   -0.67852  -0.63163  -0.62335  -0.55424  -0.52452
  Beta  occ. eigenvalues --   -0.50663  -0.48962  -0.45617  -0.45118  -0.42870
  Beta  occ. eigenvalues --   -0.39150  -0.38293  -0.37074  -0.34376  -0.33652
  Beta  occ. eigenvalues --   -0.33361  -0.33289  -0.31871  -0.31390  -0.30005
  Beta  occ. eigenvalues --   -0.28988  -0.28488  -0.26618  -0.24018  -0.23294
  Beta  occ. eigenvalues --   -0.19280  -0.18472  -0.18200  -0.15252  -0.12657
  Beta virt. eigenvalues --    0.06820   0.07466   0.07805   0.08427   0.08743
  Beta virt. eigenvalues --    0.09445   0.10219   0.10750   0.11275   0.11346
  Beta virt. eigenvalues --    0.11734   0.12487   0.12938   0.13383   0.13917

 Mulliken charges and spin densities:
               1          2
     1  C    0.325728  -0.644572
     2  C    0.573247   0.898658
     3  C   -0.216331  -0.137858
     4  O   -0.195375   0.003049
     5  C   -0.272791  -0.561374
     6  N   -0.265690   0.051713
     7  C   -0.131525  -0.076186
     8  O   -0.331699   0.016061
     9  N   -0.282199   0.104199
    10  C    1.522946  -2.370036
    11  C   -0.545180   0.652171
    12  N    0.048646  -0.117392
    13  C    1.824508  -2.369561
    14  C   -1.132278   1.637984
    15  H   -0.080840   0.301938
    16  H    0.025469   0.182649
    17  H    0.183009   0.011450
    18  H    0.134829   0.045137
    19  H    0.246291   0.059712
    20  H   -0.066763   0.250182
    21  H   -0.708507   1.060697
    22  H   -1.185760   1.352462
    23  H   -0.469735   0.648913
 Sum of Mulliken charges =  -1.00000   1.00000

 Dipole moment (field-independent basis, Debye):
    X=             -8.2503    Y=              4.3186    Z=              1.5445  Tot=              9.4394
 Quadrupole moment (field-independent basis, Debye-Ang):
   XX=           -156.3451   YY=           -120.8520   ZZ=           -118.4999
   XY=             17.7300   XZ=             11.1493   YZ=              2.8231

 Summary of Natural Population Analysis:

                                       Natural Population
                Natural  -----------------------------------------------
    Atom  No    Charge         Core      Valence    Rydberg      Total
 -----------------------------------------------------------------------
      C    1    0.01440      0.99961     1.97279    0.01321     2.98560
      C    2   -0.14984      0.99944     2.14037    0.01003     3.14984
      C    3    0.01464      0.99961     1.97429    0.01146     2.98536
      O    4   -0.30126      0.99991     3.29348    0.00788     4.30126
      C    5    0.16137      0.99962     1.81969    0.01932     2.83863
      N    6   -0.16996      0.99979     2.65927    0.01091     3.66996
      C    7    0.36107      0.99963     1.61463    0.02466     2.63893
      O    8   -0.31342      0.99987     3.30773    0.00581     4.31342
      N    9   -0.30667      0.99963     2.79717    0.00987     3.80667
      C   10    0.00511      0.99946     1.98149    0.01394     2.99489
      C   11   -0.01648      0.99950     2.00293    0.01404     3.01648
      N   12   -0.25467      0.99970     2.74340    0.01157     3.75467
      C   13   -0.00756      0.99957     1.99368    0.01431     3.00756
      C   14   -0.15262      0.99952     2.14257    0.01053     3.15262
      H   15    0.09638      0.00000     0.40176    0.00185     0.40362
      H   16    0.09543      0.00000     0.40266    0.00192     0.40457
      H   17    0.09793      0.00000     0.40078    0.00129     0.40207
      H   18    0.08789      0.00000     0.41087    0.00123     0.41211
      H   19    0.19670      0.00000     0.30107    0.00223     0.30330
      H   20    0.11089      0.00000     0.38724    0.00187     0.38911
      H   21    0.21517      0.00000     0.25241    0.03241     0.28483
      H   22    0.10795      0.00000     0.38469    0.00736     0.39205
      H   23    0.10755      0.00000     0.39113    0.00132     0.39245
 =======================================================================
   * Total *    0.00000     13.99485    35.77611    0.22903    50.00000

 Normal termination of Gaussian 16 at Thu Dec 10 11:27:52 2020.
