 Gaussian 16, Revision A.03,

 -----------------------------------------------------------
 # opt freq B3LYP/6-31G(d) empiricaldispersion=gd3bj scf=xqc
 -----------------------------------------------------------

 -------------------------------
 CID_106342280_JID_9536_neutraal
 -------------------------------
 Symbolic Z-matrix:
 Charge =  0 Multiplicity = 1

 SCF Done:  E(RB3LYP) =  -1668.78767032     A.U. after   15 cycles
 SCF Done:  E(RB3LYP) =  -1668.79678189     A.U. after   13 cycles
 SCF Done:  E(RB3LYP) =  -1668.80011994     A.U. after   13 cycles
 SCF Done:  E(RB3LYP) =  -1668.80273424     A.U. after   13 cycles
 SCF Done:  E(RB3LYP) =  -1668.80319787     A.U. after   12 cycles
 SCF Done:  E(RB3LYP) =  -1668.80469420     A.U. after   12 cycles
 SCF Done:  E(RB3LYP) =  -1668.80528028     A.U. after   12 cycles
 SCF Done:  E(RB3LYP) =  -1668.80561242     A.U. after   13 cycles
 SCF Done:  E(RB3LYP) =  -1668.80617454     A.U. after   12 cycles
 SCF Done:  E(RB3LYP) =  -1668.80685668     A.U. after   13 cycles
 SCF Done:  E(RB3LYP) =  -1668.81179125     A.U. after    8 cycles
 SCF Done:  E(RB3LYP) =  -1668.81179153     A.U. after    8 cycles
 SCF Done:  E(RB3LYP) =  -1668.81179163     A.U. after    8 cycles
 SCF Done:  E(RB3LYP) =  -1668.81179166     A.U. after    7 cycles
 SCF Done:  E(RB3LYP) =  -1668.81179167     A.U. after    7 cycles
 Optimization completed.
    -- Stationary point found.
 Normal termination of Gaussian 16 at Mon Dec 14 13:54:50 2020.

 --------------------------------------------------------------------
 #N Geom=AllCheck Guess=TCheck SCRF=Check GenChk RB3LYP/6-31G(d) Freq
 --------------------------------------------------------------------

 Structure from the checkpoint file:  "JID_9536.chk"
 -------------------------------
 CID_106342280_JID_9536_neutraal
 -------------------------------
 Charge =  0 Multiplicity = 1

 SCF Done:  E(RB3LYP) =  -1668.81179167     A.U. after    1 cycles

  Exact polarizability: 207.600  -2.973 180.774 -11.779  -6.517 112.000
 Approx polarizability: 272.745   4.743 302.824 -24.691 -22.938 195.224

                      1                      2                      3
                      A                      A                      A
 Frequencies --     15.3246                18.4461                44.2386
 Red. masses --      5.7465                 6.1236                 4.3515
 Frc consts  --      0.0008                 0.0012                 0.0050
 IR Inten    --      0.6411                 0.6758                 5.0274

                      4                      5                      6
                      A                      A                      A
 Frequencies --     64.9951                83.9491                92.9922
 Red. masses --      5.5423                 5.2031                 3.6216
 Frc consts  --      0.0138                 0.0216                 0.0185
 IR Inten    --      2.1056                 3.2481                 2.9812

                      7                      8                      9
                      A                      A                      A
 Frequencies --    107.0709               131.3840               146.1301
 Red. masses --      3.5805                 4.2350                 3.8106
 Frc consts  --      0.0242                 0.0431                 0.0479
 IR Inten    --      3.0810                 2.7144                 1.8820

                     10                     11                     12
                      A                      A                      A
 Frequencies --    186.9316               190.1653               200.1657
 Red. masses --      1.2873                 1.7254                 3.5388
 Frc consts  --      0.0265                 0.0368                 0.0835
 IR Inten    --      0.7436                 0.6964                 6.6113

                     13                     14                     15
                      A                      A                      A
 Frequencies --    216.1385               234.4685               245.7601
 Red. masses --      2.6864                 3.3073                 4.8596
 Frc consts  --      0.0739                 0.1071                 0.1729
 IR Inten    --      3.6017                13.1636                 2.2723

                     16                     17                     18
                      A                      A                      A
 Frequencies --    269.1481               271.4819               312.0075
 Red. masses --      3.1872                 4.3995                 7.4277
 Frc consts  --      0.1360                 0.1910                 0.4260
 IR Inten    --      1.8925                 6.7022                 3.5945

                     19                     20                     21
                      A                      A                      A
 Frequencies --    319.7940               341.0675               345.3897
 Red. masses --      4.2135                 3.0321                 4.7725
 Frc consts  --      0.2539                 0.2078                 0.3354
 IR Inten    --      0.9304                 3.3361                 3.4689

                     22                     23                     24
                      A                      A                      A
 Frequencies --    408.1953               430.7456               440.5808
 Red. masses --      3.5543                 5.3927                 5.6581
 Frc consts  --      0.3489                 0.5895                 0.6471
 IR Inten    --      2.5113                30.0708                13.6704

                     25                     26                     27
                      A                      A                      A
 Frequencies --    476.2101               497.8193               511.2003
 Red. masses --      3.4646                 7.3080                 4.7174
 Frc consts  --      0.4629                 1.0671                 0.7263
 IR Inten    --     22.6068                11.6936                 3.3349

                     28                     29                     30
                      A                      A                      A
 Frequencies --    527.5112               535.2517               547.1624
 Red. masses --      5.2155                 1.8010                 2.0832
 Frc consts  --      0.8551                 0.3040                 0.3675
 IR Inten    --     20.0834                82.4379                48.0507

                     31                     32                     33
                      A                      A                      A
 Frequencies --    563.9832               596.7232               602.7423
 Red. masses --      3.9320                 4.7449                 4.1706
 Frc consts  --      0.7369                 0.9955                 0.8927
 IR Inten    --      0.3136                22.4149                31.4611

                     34                     35                     36
                      A                      A                      A
 Frequencies --    641.7957               671.2223               705.3346
 Red. masses --      4.1319                 4.7512                 3.3358
 Frc consts  --      1.0027                 1.2612                 0.9778
 IR Inten    --    122.6671               139.9631                29.7978

                     37                     38                     39
                      A                      A                      A
 Frequencies --    725.5105               759.1610               809.6009
 Red. masses --      3.9521                 4.2239                 1.9572
 Frc consts  --      1.2256                 1.4343                 0.7558
 IR Inten    --     82.4319                 3.1757               236.6300

                     40                     41                     42
                      A                      A                      A
 Frequencies --    814.4584               846.0517               873.5741
 Red. masses --      1.4726                 4.9730                 1.2814
 Frc consts  --      0.5755                 2.0973                 0.5761
 IR Inten    --     31.0431                41.7864               109.8635

                     43                     44                     45
                      A                      A                      A
 Frequencies --    895.6823               905.1152               984.4070
 Red. masses --      2.6399                 1.3683                 1.3448
 Frc consts  --      1.2478                 0.6605                 0.7678
 IR Inten    --     74.2147                 0.8220                 4.8699

                     46                     47                     48
                      A                      A                      A
 Frequencies --    985.1045              1035.3988              1060.3679
 Red. masses --      1.8783                 2.1079                 4.1469
 Frc consts  --      1.0739                 1.3314                 2.7472
 IR Inten    --     42.6798                27.2503                25.0569

                     49                     50                     51
                      A                      A                      A
 Frequencies --   1067.9662              1084.3421              1101.5839
 Red. masses --      7.1793                 2.9211                 5.5960
 Frc consts  --      4.8244                 2.0237                 4.0009
 IR Inten    --     67.4841                 1.7763                94.3325

                     52                     53                     54
                      A                      A                      A
 Frequencies --   1112.1969              1117.7601              1131.1301
 Red. masses --      4.0511                 5.1794                 2.1309
 Frc consts  --      2.9525                 3.8126                 1.6063
 IR Inten    --      4.0131               200.3878                14.7150

                     55                     56                     57
                      A                      A                      A
 Frequencies --   1159.9704              1162.3430              1164.6732
 Red. masses --      1.7124                 1.3532                 1.2819
 Frc consts  --      1.3575                 1.0772                 1.0245
 IR Inten    --     12.9568                13.3015                 1.1142

                     58                     59                     60
                      A                      A                      A
 Frequencies --   1168.4582              1208.2471              1222.7077
 Red. masses --      1.5764                 1.5151                 1.2811
 Frc consts  --      1.2681                 1.3032                 1.1284
 IR Inten    --     40.8449                14.0936                 0.5056

                     61                     62                     63
                      A                      A                      A
 Frequencies --   1266.9282              1279.6237              1282.4872
 Red. masses --      3.9362                 2.1631                 1.6403
 Frc consts  --      3.7224                 2.0869                 1.5895
 IR Inten    --    131.5891                46.0686                46.4249

                     64                     65                     66
                      A                      A                      A
 Frequencies --   1313.7168              1345.4422              1367.9883
 Red. masses --      4.0411                 6.1347                 1.3280
 Frc consts  --      4.1091                 6.5430                 1.4642
 IR Inten    --    164.5517                34.8375                 5.8601

                     67                     68                     69
                      A                      A                      A
 Frequencies --   1390.2294              1407.1874              1430.7784
 Red. masses --      1.9029                 1.2607                 2.3879
 Frc consts  --      2.1669                 1.4708                 2.8801
 IR Inten    --     86.5859                18.9425                 5.3283

                     70                     71                     72
                      A                      A                      A
 Frequencies --   1456.0427              1469.7668              1480.4587
 Red. masses --      1.2035                 1.1418                 1.2580
 Frc consts  --      1.5033                 1.4533                 1.6245
 IR Inten    --     30.8491                 3.1672                19.7873

                     73                     74                     75
                      A                      A                      A
 Frequencies --   1484.5858              1492.6709              1502.8426
 Red. masses --      1.1847                 1.1664                 1.0786
 Frc consts  --      1.5384                 1.5312                 1.4353
 IR Inten    --     17.4321                30.6370                 8.1493

                     76                     77                     78
                      A                      A                      A
 Frequencies --   1515.5370              1521.6181              1530.2877
 Red. masses --      1.0418                 1.0463                 1.9618
 Frc consts  --      1.4098                 1.4273                 2.7067
 IR Inten    --      7.3003                 6.5292                35.2036

                     79                     80                     81
                      A                      A                      A
 Frequencies --   1545.4704              1545.6048              1576.9184
 Red. masses --      1.0605                 1.0776                 2.9182
 Frc consts  --      1.4924                 1.5167                 4.2755
 IR Inten    --      5.3158                 9.9031               132.4809

                     82                     83                     84
                      A                      A                      A
 Frequencies --   1621.8013              1665.0699              3020.9394
 Red. masses --      2.4731                 4.5090                 1.0410
 Frc consts  --      3.8326                 7.3654                 5.5976
 IR Inten    --     15.9022               234.0354                78.3728

                     85                     86                     87
                      A                      A                      A
 Frequencies --   3056.5252              3069.4441              3100.1110
 Red. masses --      1.0390                 1.1024                 1.0633
 Frc consts  --      5.7193                 6.1191                 6.0210
 IR Inten    --     46.5361                36.3403                 3.8331

                     88                     89                     90
                      A                      A                      A
 Frequencies --   3104.5409              3136.1355              3153.4363
 Red. masses --      1.0616                 1.0980                 1.1058
 Frc consts  --      6.0284                 6.3625                 6.4788
 IR Inten    --      9.5826                12.1819                 3.5623

                     91                     92                     93
                      A                      A                      A
 Frequencies --   3156.7424              3168.8169              3177.3225
 Red. masses --      1.0972                 1.1050                 1.1018
 Frc consts  --      6.4419                 6.5375                 6.5535
 IR Inten    --     12.9896                 6.4266                 1.6943

                     94                     95                     96
                      A                      A                      A
 Frequencies --   3197.7568              3213.1442              3231.9809
 Red. masses --      1.0874                 1.0936                 1.0934
 Frc consts  --      6.5514                 6.6521                 6.7295
 IR Inten    --      2.0451                24.3035                 9.0404

                     97                     98                     99
                      A                      A                      A
 Frequencies --   3446.2107              3457.2438              3554.3872
 Red. masses --      1.0732                 1.0758                 1.0787
 Frc consts  --      7.5097                 7.5758                 8.0292
 IR Inten    --     68.8733               101.6853               178.6079

 - Thermochemistry -
 -------------------
 Temperature   298.150 Kelvin.  Pressure   1.00000 Atm.
 Atom     1 has atomic number  6 and mass  12.00000

 Molecular mass:   308.06130 amu.
 Principal axes and moments of inertia in atomic units:
                           1         2         3
     Eigenvalues --  2599.21417********************
           X            0.99996  -0.00451  -0.00804
           Y            0.00449   0.99999  -0.00274
           Z            0.00806   0.00271   0.99996
 This molecule is an asymmetric top.
 Rotational symmetry number  1.
 Warning -- assumption of classical behavior for rotation
           may cause significant error
 Rotational temperatures (Kelvin)      0.03332     0.00861     0.00763
 Rotational constants (GHZ):           0.69434     0.17940     0.15909
 Zero-point vibrational energy     724501.1 (Joules/Mol)
                                  173.15993 (Kcal/Mol)
 Warning -- explicit consideration of  33 degrees of freedom as
           vibrations may cause significant error
 Vibrational temperatures:     22.05    26.54    63.65    93.51   120.78
          (Kelvin)            133.80   154.05   189.03   210.25   268.95
                              273.61   287.99   310.98   337.35   353.59
                              387.24   390.60   448.91   460.11   490.72
                              496.94   587.30   619.75   633.90   685.16
                              716.25   735.50   758.97   770.11   787.24
                              811.45   858.55   867.21   923.40   965.74
                             1014.82  1043.85  1092.26  1164.84  1171.82
                             1217.28  1256.88  1288.69  1302.26  1416.34
                             1417.35  1489.71  1525.63  1536.57  1560.13
                             1584.93  1600.20  1608.21  1627.44  1668.94
                             1672.35  1675.70  1681.15  1738.40  1759.20
                             1822.83  1841.09  1845.21  1890.15  1935.79
                             1968.23  2000.23  2024.63  2058.57  2094.92
                             2114.67  2130.05  2135.99  2147.62  2162.26
                             2180.52  2189.27  2201.74  2223.59  2223.78
                             2268.83  2333.41  2395.66  4346.46  4397.66
                             4416.25  4460.37  4466.74  4512.20  4537.09
                             4541.85  4559.22  4571.46  4600.86  4623.00
                             4650.10  4958.33  4974.20  5113.97

 Zero-point correction=                           0.275948 (Hartree/Particle)
 Thermal correction to Energy=                    0.295649
 Thermal correction to Enthalpy=                  0.296593
 Thermal correction to Gibbs Free Energy=         0.225834
 Sum of electronic and zero-point Energies=          -1668.535844
 Sum of electronic and thermal Energies=             -1668.516143
 Sum of electronic and thermal Enthalpies=           -1668.515199
 Sum of electronic and thermal Free Energies=        -1668.585957

                     E (Thermal)             CV                S
                      KCal/Mol        Cal/Mol-Kelvin    Cal/Mol-Kelvin
 Total                  185.522             73.208            148.924
 Electronic               0.000              0.000              0.000
 Translational            0.889              2.981             43.072
 Rotational               0.889              2.981             34.050
 Vibrational            183.745             67.246             71.803
 Vibration     1          0.593              1.986              7.163
 Vibration     2          0.593              1.986              6.795
 Vibration     3          0.595              1.980              5.060
 Vibration     4          0.597              1.971              4.299
 Vibration     5          0.601              1.960              3.796
 Vibration     6          0.602              1.954              3.596
 Vibration     7          0.606              1.944              3.321
 Vibration     8          0.612              1.922              2.926
 Vibration     9          0.617              1.907              2.722
 Vibration    10          0.632              1.858              2.258
 Vibration    11          0.633              1.853              2.226
 Vibration    12          0.638              1.840              2.132
 Vibration    13          0.645              1.816              1.991
 Vibration    14          0.654              1.788              1.844
 Vibration    15          0.660              1.770              1.761
 Vibration    16          0.674              1.730              1.602
 Vibration    17          0.675              1.726              1.587
 Vibration    18          0.700              1.651              1.352
 Vibration    19          0.706              1.636              1.311
 Vibration    20          0.721              1.593              1.207
 Vibration    21          0.724              1.585              1.187
 Vibration    22          0.773              1.452              0.933
 Vibration    23          0.792              1.403              0.856
 Vibration    24          0.800              1.382              0.825
 Vibration    25          0.833              1.303              0.720
 Vibration    26          0.853              1.255              0.664
 Vibration    27          0.866              1.225              0.631
 Vibration    28          0.882              1.189              0.593
 Vibration    29          0.890              1.172              0.576
 Vibration    30          0.902              1.146              0.550
 Vibration    31          0.920              1.109              0.516
 Vibration    32          0.955              1.039              0.455
 Vibration    33          0.961              1.026              0.445

 Optimization completed.
    -- Stationary point found.
 Normal termination of Gaussian 16 at Mon Dec 14 14:11:58 2020.

 ----------------------------------------------------------------------
 # B3LYP/6-311++G(d,p) empiricaldispersion=gd3bj scf=xqc pop=npa geom=c
 heck
 ----------------------------------------------------------------------

 ---------------------------------------
 CID_106342280_JID_9536_Energie_neutraal
 ---------------------------------------
 Structure from the checkpoint file:  "JID_9536.chk"
 Charge =  0 Multiplicity = 1

 SCF Done:  E(RB3LYP) =  -1669.12104890     A.U. after   16 cycles
 Normal termination of Gaussian 16 at Mon Dec 14 14:20:17 2020.

 ----------------------------------------------------------------------
 # B3LYP/6-311++G(d,p) empiricaldispersion=gd3bj scf=xqc pop=npa geom=c
 heck
 ----------------------------------------------------------------------

 -------------------------------------
 CID_106342280_JID_9536_Energie_kation
 -------------------------------------
 Structure from the checkpoint file:  "JID_9536.chk"
 Charge =  1 Multiplicity = 2

 SCF Done:  E(UB3LYP) =  -1668.82061713     A.U. after   26 cycles
 Normal termination of Gaussian 16 at Mon Dec 14 14:39:39 2020.
 Gaussian 16:  ES64L-G16RevA.03 25-Dec-2016

 ----------------------------------------------------------------------
 # B3LYP/6-311++G(d,p) empiricaldispersion=gd3bj scf=xqc pop=npa geom=c
 heck
 ----------------------------------------------------------------------

 ------------------------------------
 CID_106342280_JID_9536_Energie_anion
 ------------------------------------
 Structure from the checkpoint file:  "JID_9536.chk"
 Charge = -1 Multiplicity = 2

                         Standard orientation:
 ---------------------------------------------------------------------
 Center     Atomic      Atomic             Coordinates (Angstroms)
 Number     Number       Type             X           Y           Z
 ---------------------------------------------------------------------
      1          6           0        4.728957    1.977957   -0.791631
      2          7           0        3.433775    1.463271   -0.405632
      3          6           0        3.207379    0.161804   -0.094736
      4          6           0        1.948719   -0.338909    0.342115
      5          7           0        1.688418   -1.609983    0.622891
      6          6           0        2.663587   -2.510176    0.514267
      7          6           0        3.952854   -2.142097    0.113988
      8          6           0        4.226248   -0.819523   -0.188196
      9         16           0        0.502796    0.716796    0.514413
     10          8           0       -0.291235    0.249050    1.663341
     11          8           0        0.904916    2.136063    0.488933
     12          7           0       -0.277573    0.462639   -0.963410
     13          6           0       -0.827658   -0.871997   -1.258615
     14          6           0       -1.872303   -1.436117   -0.290878
     15         16           0       -3.424558   -0.510067   -0.250145
     16          8           0       -3.871984   -0.256160   -1.626113
     17          8           0       -4.325472   -1.182526    0.695067
     18          7           0       -2.881057    0.990220    0.350139
     19          6           0       -3.961001    1.981546    0.497738
     20          1           0        5.091903    1.507613   -1.714843
     21          1           0        5.486261    1.830352   -0.008439
     22          1           0        4.630327    3.049392   -0.974314
     23          1           0        2.678058    2.112143   -0.218119
     24          1           0        2.410154   -3.539053    0.752247
     25          1           0        4.735840   -2.890796    0.040883
     26          1           0        5.221988   -0.526821   -0.499966
     27          1           0       -1.011401    1.176125   -1.009031
     28          1           0       -1.259971   -0.796163   -2.259591
     29          1           0        0.004339   -1.577695   -1.300633
     30          1           0       -2.183219   -2.433021   -0.619002
     31          1           0       -1.496795   -1.503623    0.730923
     32          1           0       -2.376162    0.825475    1.225185
     33          1           0       -4.425335    2.134309   -0.478452
     34          1           0       -4.727759    1.675322    1.219167
     35          1           0       -3.505467    2.919421    0.823633
 ---------------------------------------------------------------------

 SCF Done:  E(UB3LYP) =  -1669.13168279     A.U. after   33 cycles
 SCF Done:  E(UB3LYP) =  -1669.13168279     a.u. after    1 cycles

 The electronic state is 2-A.
 Alpha  occ. eigenvalues --  -88.96959 -88.92786 -19.02759 -19.02752 -18.99111
 Alpha  occ. eigenvalues --  -18.99071 -14.25399 -14.22302 -14.19748 -14.14199
 Alpha  occ. eigenvalues --  -10.12747 -10.11882 -10.11513 -10.09550 -10.08663
 Alpha  occ. eigenvalues --  -10.05919 -10.04760 -10.01680 -10.01433  -8.03254
 Alpha  occ. eigenvalues --   -7.98994  -5.99533  -5.99480  -5.99323  -5.95299
 Alpha  occ. eigenvalues --   -5.95281  -5.94999  -1.02812  -0.99074  -0.91768
 Alpha  occ. eigenvalues --   -0.88157  -0.83826  -0.81922  -0.81444  -0.78643
 Alpha  occ. eigenvalues --   -0.69975  -0.64647  -0.63402  -0.62580  -0.58466
 Alpha  occ. eigenvalues --   -0.56801  -0.53411  -0.51828  -0.47728  -0.47013
 Alpha  occ. eigenvalues --   -0.44271  -0.42131  -0.41395  -0.40543  -0.39473
 Alpha  occ. eigenvalues --   -0.38660  -0.37520  -0.36965  -0.36062  -0.35414
 Alpha  occ. eigenvalues --   -0.34511  -0.33639  -0.33351  -0.32787  -0.32088
 Alpha  occ. eigenvalues --   -0.30828  -0.30260  -0.29653  -0.29404  -0.26334
 Alpha  occ. eigenvalues --   -0.26013  -0.25195  -0.24860  -0.24414  -0.23088
 Alpha  occ. eigenvalues --   -0.22392  -0.21441  -0.21207  -0.19213  -0.18840
 Alpha  occ. eigenvalues --   -0.18654  -0.17972  -0.15701  -0.14114  -0.11391
 Alpha  occ. eigenvalues --   -0.07715   0.04968
 Alpha virt. eigenvalues --    0.06887   0.07491   0.08612   0.09494   0.10203
 Alpha virt. eigenvalues --    0.10416   0.10865   0.11235   0.11447   0.11865
 Alpha virt. eigenvalues --    0.12347   0.12937   0.13265   0.13939   0.14300

  Beta  occ. eigenvalues --  -88.96959 -88.92774 -19.02759 -19.02752 -18.99069
  Beta  occ. eigenvalues --  -18.99031 -14.25396 -14.22242 -14.19761 -14.13577
  Beta  occ. eigenvalues --  -10.12747 -10.11882 -10.11512 -10.09542 -10.08720
  Beta  occ. eigenvalues --  -10.05571 -10.04902 -10.01398 -10.01074  -8.03254
  Beta  occ. eigenvalues --   -7.98981  -5.99533  -5.99480  -5.99323  -5.95292
  Beta  occ. eigenvalues --   -5.95225  -5.95000  -1.02811  -0.98938  -0.91768
  Beta  occ. eigenvalues --   -0.88067  -0.83817  -0.81778  -0.81350  -0.77867
  Beta  occ. eigenvalues --   -0.69944  -0.64019  -0.63020  -0.62460  -0.58316
  Beta  occ. eigenvalues --   -0.56674  -0.53036  -0.51733  -0.47537  -0.46600
  Beta  occ. eigenvalues --   -0.44232  -0.42023  -0.41336  -0.40436  -0.39238
  Beta  occ. eigenvalues --   -0.38520  -0.37401  -0.36902  -0.35986  -0.35346
  Beta  occ. eigenvalues --   -0.34443  -0.33594  -0.33302  -0.32780  -0.31976
  Beta  occ. eigenvalues --   -0.30673  -0.30132  -0.29600  -0.29317  -0.26024
  Beta  occ. eigenvalues --   -0.25144  -0.24787  -0.24544  -0.24338  -0.23036
  Beta  occ. eigenvalues --   -0.22347  -0.21393  -0.21031  -0.19131  -0.18588
  Beta  occ. eigenvalues --   -0.17987  -0.17762  -0.15498  -0.11545  -0.10701
  Beta  occ. eigenvalues --   -0.06675
  Beta virt. eigenvalues --    0.06870   0.07423   0.08590   0.09440   0.10153
  Beta virt. eigenvalues --    0.10385   0.10832   0.11174   0.11334   0.11816
  Beta virt. eigenvalues --    0.11950   0.12302   0.12969   0.13549   0.13963

 Mulliken charges and spin densities:
               1          2
     1  C   -0.252776  -0.071326
     2  N   -0.286121   0.014320
     3  C    0.043849  -0.010781
     4  C   -1.312899   0.233282
     5  N    0.006794   0.287681
     6  C   -0.058024  -0.108657
     7  C   -0.699998   0.335882
     8  C    0.588787   0.259144
     9  S    0.193039   0.003974
    10  O   -0.125980  -0.040102
    11  O   -0.160640   0.010392
    12  N   -0.101274  -0.004894
    13  C   -0.305470  -0.024331
    14  C   -0.834213   0.015670
    15  S    0.273370  -0.001616
    16  O   -0.236017  -0.000461
    17  O   -0.112249  -0.000108
    18  N   -0.371979   0.000700
    19  C   -0.370406   0.000964
    20  H    0.079626   0.060979
    21  H    0.140868  -0.004375
    22  H    0.097221   0.022642
    23  H    0.358019   0.009152
    24  H    0.124552   0.004130
    25  H    0.087315  -0.017829
    26  H    0.107822  -0.010309
    27  H    0.331329   0.016682
    28  H    0.216720  -0.000864
    29  H    0.216416   0.005822
    30  H    0.235842  -0.000437
    31  H    0.319474   0.009242
    32  H    0.313855   0.005048
    33  H    0.170805   0.000177
    34  H    0.154504  -0.000005
    35  H    0.167838   0.000214
 Sum of Mulliken charges =  -1.00000   1.00000

 Dipole moment (field-independent basis, Debye):
    X=             -3.3069    Y=              3.0164    Z=             -2.0144  Tot=              4.9084
 Quadrupole moment (field-independent basis, Debye-Ang):
   XX=           -188.5361   YY=           -142.0090   ZZ=           -147.5788
   XY=             -0.7253   XZ=             -6.7256   YZ=              3.4254

 Summary of Natural Population Analysis:

                                       Natural Population
                Natural  -----------------------------------------------
    Atom  No    Charge         Core      Valence    Rydberg      Total
 -----------------------------------------------------------------------
      C    1   -0.17533      0.99967     2.16913    0.00653     3.17533
      N    2   -0.31803      0.99965     2.80925    0.00912     3.81803
      C    3    0.07802      0.99947     1.91131    0.01120     2.92198
      C    4    0.01395      0.99940     1.96769    0.01896     2.98605
      N    5   -0.15753      0.99965     2.64406    0.01382     3.65753
      C    6   -0.03483      0.99960     2.02026    0.01497     3.03483
      C    7   -0.04509      0.99957     2.03655    0.00896     3.04509
      C    8   -0.08348      0.99955     2.07535    0.00858     3.08348
      S    9    1.10226      4.99922     1.80140    0.09711     6.89774
      O   10   -0.47825      0.99990     3.47141    0.00695     4.47825
      O   11   -0.48595      0.99990     3.47876    0.00729     4.48595
      N   12   -0.42850      0.99976     2.91359    0.01515     3.92850
      C   13   -0.10847      0.99961     2.09660    0.01226     3.10847
      C   14   -0.30176      0.99956     2.29121    0.01099     3.30176
      S   15    1.08040      4.99933     1.82078    0.09949     6.91960
      O   16   -0.47056      0.99991     3.46460    0.00605     4.47056
      O   17   -0.46556      0.99991     3.46009    0.00557     4.46556
      N   18   -0.44152      0.99977     2.93028    0.01147     3.94152
      C   19   -0.18941      0.99967     2.18197    0.00777     3.18941
      H   20    0.08721      0.00000     0.41059    0.00220     0.41279
      H   21    0.08513      0.00000     0.41313    0.00174     0.41487
      H   22    0.09249      0.00000     0.40651    0.00100     0.40751
      H   23    0.20876      0.00000     0.28874    0.00251     0.29124
      H   24    0.07956      0.00000     0.41916    0.00128     0.42044
      H   25    0.08634      0.00000     0.41246    0.00120     0.41366
      H   26    0.08976      0.00000     0.40874    0.00150     0.41024
      H   27    0.19720      0.00000     0.30105    0.00175     0.30280
      H   28    0.10376      0.00000     0.39504    0.00120     0.39624
      H   29    0.12124      0.00000     0.37743    0.00133     0.37876
      H   30    0.11691      0.00000     0.38198    0.00111     0.38309
      H   31    0.13812      0.00000     0.36052    0.00135     0.36188
      H   32    0.20843      0.00000     0.28903    0.00254     0.29157
      H   33    0.10252      0.00000     0.39639    0.00109     0.39748
      H   34    0.09108      0.00000     0.40753    0.00139     0.40892
      H   35    0.10113      0.00000     0.39818    0.00069     0.39887
 =======================================================================
   * Total *    0.00000     26.99310    53.61080    0.39610    81.00000

 Normal termination of Gaussian 16 at Mon Dec 14 15:01:56 2020.
