 Gaussian 16, Revision A.03,

 -----------------------------------------------------------
 # opt freq B3LYP/6-31G(d) empiricaldispersion=gd3bj scf=xqc
 -----------------------------------------------------------

 -------------------------------
 CID_101282408_JID_4219_neutraal
 -------------------------------
 Symbolic Z-matrix:
 Charge =  0 Multiplicity = 1

 SCF Done:  E(RB3LYP) =  -561.545283131     A.U. after   16 cycles
 SCF Done:  E(RB3LYP) =  -561.566585358     A.U. after   13 cycles
 SCF Done:  E(RB3LYP) =  -561.567095368     A.U. after   12 cycles
 SCF Done:  E(RB3LYP) =  -561.567161578     A.U. after   11 cycles
 SCF Done:  E(RB3LYP) =  -561.567170041     A.U. after   10 cycles
 SCF Done:  E(RB3LYP) =  -561.567172352     A.U. after    9 cycles
 SCF Done:  E(RB3LYP) =  -561.567172779     A.U. after    9 cycles
 SCF Done:  E(RB3LYP) =  -561.567172776     A.U. after    9 cycles
 SCF Done:  E(RB3LYP) =  -561.567172674     A.U. after    8 cycles
 Optimization completed.
    -- Stationary point found.
 Normal termination of Gaussian 16 at Thu Dec 10 09:17:20 2020.

 --------------------------------------------------------------------
 #N Geom=AllCheck Guess=TCheck SCRF=Check GenChk RB3LYP/6-31G(d) Freq
 --------------------------------------------------------------------

 Structure from the checkpoint file:  "JID_4219.chk"
 -------------------------------
 CID_101282408_JID_4219_neutraal
 -------------------------------
 Charge =  0 Multiplicity = 1

 SCF Done:  E(RB3LYP) =  -561.567172674     A.U. after    1 cycles

  Exact polarizability: 253.222   0.239 110.133   5.126  -6.050 102.129
 Approx polarizability: 312.462  -8.106 163.295  16.917  -6.776 155.753

                      1                      2                      3
                      A                      A                      A
 Frequencies --     16.1086                21.3996                38.5897
 Red. masses --      5.5000                 4.1415                 4.0526
 Frc consts  --      0.0008                 0.0011                 0.0036
 IR Inten    --      2.1532                 0.2700                 1.2021

                      4                      5                      6
                      A                      A                      A
 Frequencies --     57.3740                63.1561                76.8958
 Red. masses --      2.9991                 3.8760                 2.5486
 Frc consts  --      0.0058                 0.0091                 0.0089
 IR Inten    --      1.8483                 3.4738                 0.0738

                      7                      8                      9
                      A                      A                      A
 Frequencies --    112.6717               142.0750               159.2937
 Red. masses --      3.0956                 2.0923                 3.1403
 Frc consts  --      0.0232                 0.0249                 0.0469
 IR Inten    --      2.7305                 0.1667                 2.3214

                     10                     11                     12
                      A                      A                      A
 Frequencies --    187.3796               210.9258               223.4005
 Red. masses --      2.4682                 1.4436                 2.3536
 Frc consts  --      0.0511                 0.0378                 0.0692
 IR Inten    --      1.6892                 1.0879                 0.6342

                     13                     14                     15
                      A                      A                      A
 Frequencies --    267.3759               300.4127               306.7656
 Red. masses --      2.2777                 2.5830                 2.5433
 Frc consts  --      0.0959                 0.1373                 0.1410
 IR Inten    --      1.5039                 0.8165                 0.1375

                     16                     17                     18
                      A                      A                      A
 Frequencies --    331.7095               371.3411               382.5953
 Red. masses --      2.6156                 2.8649                 3.0865
 Frc consts  --      0.1696                 0.2328                 0.2662
 IR Inten    --      1.1739                 0.8137                 0.6651

                     19                     20                     21
                      A                      A                      A
 Frequencies --    398.5857               463.8365               501.1168
 Red. masses --      3.3096                 2.3665                 2.4691
 Frc consts  --      0.3098                 0.3000                 0.3653
 IR Inten    --      0.4253                 0.5318                 0.1403

                     22                     23                     24
                      A                      A                      A
 Frequencies --    528.0760               553.5274               582.5173
 Red. masses --      2.7500                 2.5880                 4.1438
 Frc consts  --      0.4518                 0.4672                 0.8284
 IR Inten    --      0.3512                 0.5382                 2.0063

                     25                     26                     27
                      A                      A                      A
 Frequencies --    735.5638               789.7027               803.7436
 Red. masses --      1.3089                 1.6738                 1.6415
 Frc consts  --      0.4173                 0.6150                 0.6248
 IR Inten    --     20.5088                 0.1008                 4.6268

                     28                     29                     30
                      A                      A                      A
 Frequencies --    819.0634               863.6487               884.5162
 Red. masses --      2.0179                 1.9499                 1.9388
 Frc consts  --      0.7976                 0.8569                 0.8937
 IR Inten    --      1.4971                 3.3427                 0.1544

                     31                     32                     33
                      A                      A                      A
 Frequencies --    929.6611               942.4690               945.4592
 Red. masses --      2.1446                 1.8669                 3.2751
 Frc consts  --      1.0920                 0.9770                 1.7249
 IR Inten    --      1.1330                 1.0277                 7.8912

                     34                     35                     36
                      A                      A                      A
 Frequencies --    951.5425               979.8036              1007.7784
 Red. masses --      1.9737                 1.1302                 1.3821
 Frc consts  --      1.0529                 0.6393                 0.8270
 IR Inten    --     10.4459                 0.4007                 6.4016

                     37                     38                     39
                      A                      A                      A
 Frequencies --   1017.4116              1022.9605              1040.0109
 Red. masses --      1.2225                 1.7030                 1.0965
 Frc consts  --      0.7456                 1.0500                 0.6988
 IR Inten    --     25.2610                 3.2331                45.6351

                     40                     41                     42
                      A                      A                      A
 Frequencies --   1077.9069              1079.8046              1099.1734
 Red. masses --      2.3192                 1.6781                 2.3716
 Frc consts  --      1.5876                 1.1528                 1.6882
 IR Inten    --      0.1395                 0.1117                 2.2352

                     43                     44                     45
                      A                      A                      A
 Frequencies --   1103.5922              1114.7878              1144.6927
 Red. masses --      2.2446                 2.5260                 2.1205
 Frc consts  --      1.6106                 1.8495                 1.6371
 IR Inten    --      3.0545                 1.1649                 0.8361

                     46                     47                     48
                      A                      A                      A
 Frequencies --   1182.0961              1199.1649              1204.7640
 Red. masses --      2.3409                 1.1538                 1.3068
 Frc consts  --      1.9272                 0.9775                 1.1175
 IR Inten    --      3.6336                 0.0680                 0.4983

                     49                     50                     51
                      A                      A                      A
 Frequencies --   1235.0480              1259.9401              1296.3852
 Red. masses --      1.3119                 1.2248                 1.2134
 Frc consts  --      1.1790                 1.1455                 1.2015
 IR Inten    --      2.9095                 2.6675                 6.4224

                     52                     53                     54
                      A                      A                      A
 Frequencies --   1320.9358              1334.0618              1342.1357
 Red. masses --      1.2534                 1.2964                 1.3603
 Frc consts  --      1.2886                 1.3593                 1.4437
 IR Inten    --      7.5183                 0.9713                 0.5480

                     55                     56                     57
                      A                      A                      A
 Frequencies --   1346.0222              1350.2764              1357.8418
 Red. masses --      1.2693                 1.2810                 1.2198
 Frc consts  --      1.3549                 1.3761                 1.3251
 IR Inten    --      6.2222                 1.7646                 8.3088

                     58                     59                     60
                      A                      A                      A
 Frequencies --   1362.9322              1381.0441              1400.2881
 Red. masses --      1.3925                 1.4196                 1.3363
 Frc consts  --      1.5240                 1.5952                 1.5437
 IR Inten    --      3.3217                14.5474                20.1603

                     61                     62                     63
                      A                      A                      A
 Frequencies --   1401.6594              1420.7598              1442.9058
 Red. masses --      1.4375                 1.4323                 1.2650
 Frc consts  --      1.6640                 1.7035                 1.5517
 IR Inten    --      0.4372                 1.7003                 2.6341

                     64                     65                     66
                      A                      A                      A
 Frequencies --   1485.8861              1506.7099              1509.8377
 Red. masses --      1.0830                 1.0982                 1.0452
 Frc consts  --      1.4089                 1.4689                 1.4038
 IR Inten    --      7.3929                11.5418                 5.7246

                     67                     68                     69
                      A                      A                      A
 Frequencies --   1519.1967              1523.1485              1523.8458
 Red. masses --      1.0817                 1.0575                 1.0858
 Frc consts  --      1.4709                 1.4455                 1.4855
 IR Inten    --      9.6578                13.6856                 6.1785

                     70                     71                     72
                      A                      A                      A
 Frequencies --   1528.3508              1707.3227              1743.5325
 Red. masses --      1.1037                 5.8496                 5.5145
 Frc consts  --      1.5190                10.0464                 9.8767
 IR Inten    --      0.5651                 0.7137                11.7831

                     73                     74                     75
                      A                      A                      A
 Frequencies --   1761.7136              2370.5295              3020.4526
 Red. masses --      5.8093                12.5973                 1.0662
 Frc consts  --     10.6230                41.7080                 5.7311
 IR Inten    --      2.6599                10.3494                41.6308

                     76                     77                     78
                      A                      A                      A
 Frequencies --   3029.3886              3031.0051              3033.2048
 Red. masses --      1.0638                 1.0374                 1.0652
 Frc consts  --      5.7523                 5.6150                 5.7740
 IR Inten    --     29.8086                45.1718                12.2268

                     79                     80                     81
                      A                      A                      A
 Frequencies --   3039.4171              3044.5117              3070.4977
 Red. masses --      1.0610                 1.0636                 1.0957
 Frc consts  --      5.7750                 5.8085                 6.0863
 IR Inten    --     17.9308                16.3474                18.2243

                     82                     83                     84
                      A                      A                      A
 Frequencies --   3074.5876              3077.1138              3081.7941
 Red. masses --      1.0963                 1.1001                 1.0995
 Frc consts  --      6.1062                 6.1373                 6.1524
 IR Inten    --     37.4030                25.8146                44.0652

                     85                     86                     87
                      A                      A                      A
 Frequencies --   3088.3319              3089.8226              3113.1930
 Red. masses --      1.1051                 1.0955                 1.0980
 Frc consts  --      6.2099                 6.1622                 6.2699
 IR Inten    --     90.2071                 3.1745                 7.9236

                     88                     89                     90
                      A                      A                      A
 Frequencies --   3132.9038              3139.8959              3142.2760
 Red. masses --      1.0916                 1.0871                 1.0889
 Frc consts  --      6.3126                 6.3149                 6.3345
 IR Inten    --      0.2635                66.4580                 1.1188

                     91                     92                     93
                      A                      A                      A
 Frequencies --   3144.7985              3153.4765              3177.6648
 Red. masses --      1.0906                 1.0871                 1.0887
 Frc consts  --      6.3549                 6.3694                 6.4770
 IR Inten    --      5.1331                42.1498                16.8483

 - Thermochemistry -
 -------------------
 Temperature   298.150 Kelvin.  Pressure   1.00000 Atm.
 Atom     1 has atomic number  6 and mass  12.00000

 Molecular mass:   189.15175 amu.
 Principal axes and moments of inertia in atomic units:
                           1         2         3
     Eigenvalues --   728.46155********************
           X            0.99998  -0.00451  -0.00424
           Y            0.00380   0.98795  -0.15474
           Z            0.00489   0.15472   0.98795
 This molecule is an asymmetric top.
 Rotational symmetry number  1.
 Warning -- assumption of classical behavior for rotation
           may cause significant error
 Rotational temperatures (Kelvin)      0.11890     0.00700     0.00692
 Rotational constants (GHZ):           2.47747     0.14577     0.14429
 Zero-point vibrational energy     761740.7 (Joules/Mol)
                                  182.06039 (Kcal/Mol)
 Warning -- explicit consideration of  24 degrees of freedom as
           vibrations may cause significant error
 Vibrational temperatures:     23.18    30.79    55.52    82.55    90.87
          (Kelvin)            110.64   162.11   204.41   229.19   269.60
                              303.48   321.42   384.69   432.23   441.37
                              477.26   534.28   550.47   573.48   667.36
                              721.00   759.78   796.40   838.11  1058.31
                             1136.21  1156.41  1178.45  1242.60  1272.62
                             1337.58  1356.00  1360.30  1369.06  1409.72
                             1449.97  1463.83  1471.81  1496.34  1550.87
                             1553.60  1581.47  1587.82  1603.93  1646.96
                             1700.77  1725.33  1733.39  1776.96  1812.77
                             1865.21  1900.53  1919.42  1931.03  1936.63
                             1942.75  1953.63  1960.96  1987.01  2014.70
                             2016.68  2044.16  2076.02  2137.86  2167.82
                             2172.32  2185.79  2191.47  2192.47  2198.96
                             2456.46  2508.55  2534.71  3410.66  4345.76
                             4358.61  4360.94  4364.11  4373.04  4380.37
                             4417.76  4423.65  4427.28  4434.01  4443.42
                             4445.57  4479.19  4507.55  4517.61  4521.03
                             4524.66  4537.15  4571.95

 Zero-point correction=                           0.290132 (Hartree/Particle)
 Thermal correction to Energy=                    0.306555
 Thermal correction to Enthalpy=                  0.307499
 Thermal correction to Gibbs Free Energy=         0.242866
 Sum of electronic and zero-point Energies=           -561.277041
 Sum of electronic and thermal Energies=              -561.260618
 Sum of electronic and thermal Enthalpies=            -561.259673
 Sum of electronic and thermal Free Energies=         -561.324307

                     E (Thermal)             CV                S
                      KCal/Mol        Cal/Mol-Kelvin    Cal/Mol-Kelvin
 Total                  192.366             58.376            136.032
 Electronic               0.000              0.000              0.000
 Translational            0.889              2.981             41.618
 Rotational               0.889              2.981             33.089
 Vibrational            190.589             52.414             61.325
 Vibration     1          0.593              1.986              7.064
 Vibration     2          0.593              1.985              6.500
 Vibration     3          0.594              1.981              5.330
 Vibration     4          0.596              1.975              4.546
 Vibration     5          0.597              1.972              4.356
 Vibration     6          0.599              1.965              3.969
 Vibration     7          0.607              1.939              3.222
 Vibration     8          0.616              1.911              2.776
 Vibration     9          0.621              1.892              2.558
 Vibration    10          0.632              1.857              2.254
 Vibration    11          0.643              1.824              2.036
 Vibration    12          0.649              1.805              1.931
 Vibration    13          0.672              1.733              1.613
 Vibration    14          0.693              1.673              1.415
 Vibration    15          0.697              1.661              1.380
 Vibration    16          0.714              1.612              1.252
 Vibration    17          0.743              1.531              1.074
 Vibration    18          0.752              1.507              1.029
 Vibration    19          0.765              1.473              0.968
 Vibration    20          0.821              1.330              0.755
 Vibration    21          0.856              1.248              0.655
 Vibration    22          0.883              1.188              0.592
 Vibration    23          0.909              1.132              0.537
 Vibration    24          0.939              1.069              0.481

                           ! Non-Optimized Parameters !
 Normal termination of Gaussian 16 at Thu Dec 10 09:23:47 2020.

 ----------------------------------------------------------------------
 # B3LYP/6-311++G(d,p) empiricaldispersion=gd3bj scf=xqc pop=npa geom=c
 heck
 ----------------------------------------------------------------------

 ---------------------------------------
 CID_101282408_JID_4219_Energie_neutraal
 ---------------------------------------
 Structure from the checkpoint file:  "JID_4219.chk"
 Charge =  0 Multiplicity = 1

 SCF Done:  E(RB3LYP) =  -561.724194405     A.U. after   15 cycles
 Normal termination of Gaussian 16 at Thu Dec 10 09:27:27 2020.

 ----------------------------------------------------------------------
 # B3LYP/6-311++G(d,p) empiricaldispersion=gd3bj scf=xqc pop=npa geom=c
 heck
 ----------------------------------------------------------------------

 -------------------------------------
 CID_101282408_JID_4219_Energie_kation
 -------------------------------------
 Structure from the checkpoint file:  "JID_4219.chk"
 Charge =  1 Multiplicity = 2

 SCF Done:  E(UB3LYP) =  -561.426179556     A.U. after   22 cycles
 Normal termination of Gaussian 16 at Thu Dec 10 09:35:00 2020.
 Gaussian 16:  ES64L-G16RevA.03 25-Dec-2016

 ----------------------------------------------------------------------
 # B3LYP/6-311++G(d,p) empiricaldispersion=gd3bj scf=xqc pop=npa geom=c
 heck
 ----------------------------------------------------------------------

 ------------------------------------
 CID_101282408_JID_4219_Energie_anion
 ------------------------------------
 Structure from the checkpoint file:  "JID_4219.chk"
 Charge = -1 Multiplicity = 2

                         Standard orientation:
 ---------------------------------------------------------------------
 Center     Atomic      Atomic             Coordinates (Angstroms)
 Number     Number       Type             X           Y           Z
 ---------------------------------------------------------------------
      1          6           0       -6.693394   -0.214304   -0.106190
      2          6           0       -5.447117    0.590112   -0.335121
      3          6           0       -4.206498    0.097524   -0.358863
      4          6           0       -2.961099    0.913902   -0.567675
      5          6           0       -2.078477    1.028841    0.693086
      6          6           0       -1.624444   -0.309294    1.293838
      7          6           0       -0.857960   -1.236143    0.323896
      8          6           0        0.363317   -0.600329   -0.269738
      9          6           0        1.628056   -0.950215    0.015919
     10          6           0        2.796304   -0.301242   -0.553258
     11          6           0        4.063796   -0.643501   -0.279310
     12          6           0        5.263984    0.036463   -0.892564
     13          6           0        6.140235    0.635864    0.124220
     14          7           0        6.821545    1.095045    0.943828
     15          1           0       -6.463519   -1.274622    0.043983
     16          1           0       -7.383136   -0.133452   -0.957143
     17          1           0       -7.241356    0.142456    0.776362
     18          1           0       -5.587623    1.661028   -0.495109
     19          1           0       -4.068490   -0.973502   -0.200497
     20          1           0       -2.369012    0.477409   -1.385377
     21          1           0       -3.237693    1.923874   -0.894514
     22          1           0       -1.198464    1.639498    0.452485
     23          1           0       -2.638438    1.579569    1.459121
     24          1           0       -0.981703   -0.105107    2.159119
     25          1           0       -2.497458   -0.854325    1.674318
     26          1           0       -0.572152   -2.149178    0.860105
     27          1           0       -1.534526   -1.547787   -0.484655
     28          1           0        0.197997    0.219499   -0.969900
     29          1           0        1.811472   -1.767491    0.714383
     30          1           0        2.606396    0.517275   -1.249227
     31          1           0        4.274343   -1.449887    0.420746
     32          1           0        5.865833   -0.678469   -1.471952
     33          1           0        4.946509    0.821828   -1.588488
 ---------------------------------------------------------------------

 SCF Done:  E(UB3LYP) =  -561.719550813     A.U. after   33 cycles
 SCF Done:  E(UB3LYP) =  -561.719550813     a.u. after    1 cycles

 The electronic state is 2-A.
 Alpha  occ. eigenvalues --  -14.21242 -10.11877 -10.11380 -10.07864 -10.07828
 Alpha  occ. eigenvalues --  -10.07517 -10.07420 -10.07093 -10.06540 -10.06520
 Alpha  occ. eigenvalues --  -10.05759 -10.05662 -10.05110 -10.04624  -0.81116
 Alpha  occ. eigenvalues --   -0.72495  -0.71514  -0.69730  -0.67206  -0.64151
 Alpha  occ. eigenvalues --   -0.60705  -0.57588  -0.53819  -0.49040  -0.46032
 Alpha  occ. eigenvalues --   -0.45176  -0.44014  -0.41146  -0.38288  -0.37308
 Alpha  occ. eigenvalues --   -0.36851  -0.35583  -0.34222  -0.32900  -0.32308
 Alpha  occ. eigenvalues --   -0.31738  -0.30244  -0.29356  -0.28992  -0.27238
 Alpha  occ. eigenvalues --   -0.27217  -0.26242  -0.25781  -0.24332  -0.24149
 Alpha  occ. eigenvalues --   -0.23404  -0.23242  -0.22564  -0.21606  -0.20626
 Alpha  occ. eigenvalues --   -0.15650  -0.11838   0.04111
 Alpha virt. eigenvalues --    0.05508   0.06767   0.07302   0.07736   0.08156
 Alpha virt. eigenvalues --    0.08476   0.09496   0.09543   0.09875   0.10034
 Alpha virt. eigenvalues --    0.10660   0.11201   0.11414   0.11596   0.12139

  Beta  occ. eigenvalues --  -14.21204 -10.11891 -10.11356 -10.07852 -10.07825
  Beta  occ. eigenvalues --  -10.07482 -10.07410 -10.07084 -10.06551 -10.06489
  Beta  occ. eigenvalues --  -10.05646 -10.05416 -10.05076 -10.04359  -0.81053
  Beta  occ. eigenvalues --   -0.72424  -0.71218  -0.69577  -0.67032  -0.64022
  Beta  occ. eigenvalues --   -0.60528  -0.57462  -0.53728  -0.48801  -0.45786
  Beta  occ. eigenvalues --   -0.44998  -0.43829  -0.40995  -0.38166  -0.37246
  Beta  occ. eigenvalues --   -0.36774  -0.35456  -0.34147  -0.32784  -0.32258
  Beta  occ. eigenvalues --   -0.31661  -0.30134  -0.29247  -0.28925  -0.27160
  Beta  occ. eigenvalues --   -0.27130  -0.26179  -0.25696  -0.24231  -0.23984
  Beta  occ. eigenvalues --   -0.23328  -0.23147  -0.22477  -0.21496  -0.19732
  Beta  occ. eigenvalues --   -0.15610  -0.10455
  Beta virt. eigenvalues --    0.06150   0.06751   0.07353   0.07743   0.08274
  Beta virt. eigenvalues --    0.08535   0.08958   0.09564   0.09684   0.09963
  Beta virt. eigenvalues --    0.10219   0.10749   0.11157   0.11534   0.11615

 Mulliken charges and spin densities:
               1          2
     1  C    1.358177  -2.113203
     2  C   -0.887082   0.569038
     3  C    0.141496   0.078771
     4  C   -0.336887   0.288771
     5  C   -0.154436  -0.240713
     6  C    0.179590  -0.525565
     7  C   -0.191067   0.321236
     8  C   -0.090015   0.158977
     9  C   -0.357849  -0.112506
    10  C   -0.308692  -0.046623
    11  C   -0.041348   0.342317
    12  C    0.273222  -0.323100
    13  C   -0.050210  -0.097852
    14  N   -0.367050   0.030063
    15  H   -0.309772   0.448866
    16  H   -0.170860   0.303922
    17  H   -0.253197   0.397541
    18  H   -0.143082   0.261424
    19  H    0.018252   0.129299
    20  H    0.103215   0.029742
    21  H    0.109690   0.056938
    22  H    0.138529  -0.003554
    23  H    0.009482   0.128243
    24  H    0.080514   0.054968
    25  H   -0.035067   0.174122
    26  H    0.005120   0.169098
    27  H    0.036128   0.088641
    28  H    0.032540   0.057425
    29  H    0.059685  -0.008578
    30  H    0.080436  -0.010818
    31  H    0.108505   0.031472
    32  H   -0.079977   0.253724
    33  H    0.042009   0.107914
 Sum of Mulliken charges =  -1.00000   1.00000

 Dipole moment (field-independent basis, Debye):
    X=             -0.1592    Y=              0.4963    Z=             -2.2465  Tot=              2.3062
 Quadrupole moment (field-independent basis, Debye-Ang):
   XX=           -262.6957   YY=           -107.6651   ZZ=           -110.7210
   XY=            -14.6878   XZ=             -6.0834   YZ=             -5.0113

 Summary of Natural Population Analysis:

                                       Natural Population
                Natural  -----------------------------------------------
    Atom  No    Charge         Core      Valence    Rydberg      Total
 -----------------------------------------------------------------------
      C    1   -0.29730      0.99965     2.29259    0.00506     3.29730
      C    2   -0.09090      0.99952     2.08155    0.00982     3.09090
      C    3   -0.09412      0.99951     2.08409    0.01052     3.09412
      C    4   -0.20541      0.99961     2.19757    0.00823     3.20541
      C    5   -0.18806      0.99962     2.17935    0.00908     3.18806
      C    6   -0.18483      0.99962     2.17700    0.00821     3.18483
      C    7   -0.20966      0.99962     2.20025    0.00979     3.20966
      C    8   -0.03241      0.99954     2.02461    0.00826     3.03241
      C    9   -0.11179      0.99951     2.10366    0.00862     3.11179
      C   10   -0.08374      0.99951     2.07549    0.00874     3.08374
      C   11   -0.05514      0.99952     2.04525    0.01037     3.05514
      C   12   -0.25628      0.99954     2.24953    0.00722     3.25628
      C   13    0.16550      0.99966     1.81618    0.01866     2.83450
      N   14   -0.19428      0.99979     2.68355    0.01095     3.69428
      H   15    0.10093      0.00000     0.39757    0.00150     0.39907
      H   16    0.09973      0.00000     0.39882    0.00145     0.40027
      H   17    0.10213      0.00000     0.39598    0.00189     0.39787
      H   18    0.08662      0.00000     0.41219    0.00119     0.41338
      H   19    0.09211      0.00000     0.40657    0.00131     0.40789
      H   20    0.09941      0.00000     0.39934    0.00125     0.40059
      H   21    0.09693      0.00000     0.40196    0.00111     0.40307
      H   22    0.09793      0.00000     0.40112    0.00095     0.40207
      H   23    0.09598      0.00000     0.40300    0.00102     0.40402
      H   24    0.09695      0.00000     0.40205    0.00101     0.40305
      H   25    0.09651      0.00000     0.40221    0.00128     0.40349
      H   26    0.09832      0.00000     0.40067    0.00101     0.40168
      H   27    0.09789      0.00000     0.40087    0.00124     0.40211
      H   28    0.08121      0.00000     0.41704    0.00175     0.41879
      H   29    0.08695      0.00000     0.41151    0.00154     0.41305
      H   30    0.08526      0.00000     0.41314    0.00159     0.41474
      H   31    0.08643      0.00000     0.41194    0.00163     0.41357
      H   32    0.11985      0.00000     0.37777    0.00237     0.38015
      H   33    0.11729      0.00000     0.38135    0.00136     0.38271
 =======================================================================
   * Total *    0.00000     13.99422    37.84575    0.16003    52.00000

 Normal termination of Gaussian 16 at Thu Dec 10 09:46:10 2020.
