 Gaussian 16, Revision A.03,

 -----------------------------------------------------------
 # opt freq B3LYP/6-31G(d) empiricaldispersion=gd3bj scf=xqc
 -----------------------------------------------------------

 -------------------------------
 CID_146748801_JID_2920_neutraal
 -------------------------------
 Symbolic Z-matrix:
 Charge =  0 Multiplicity = 1

 SCF Done:  E(RB3LYP) =  -556.015671403     A.U. after   15 cycles
 SCF Done:  E(RB3LYP) =  -556.021425723     A.U. after   13 cycles
 SCF Done:  E(RB3LYP) =  -556.022380423     A.U. after   12 cycles
 SCF Done:  E(RB3LYP) =  -556.023105046     A.U. after   12 cycles
 SCF Done:  E(RB3LYP) =  -556.023828346     A.U. after   12 cycles
 SCF Done:  E(RB3LYP) =  -556.022428240     A.U. after   14 cycles
 SCF Done:  E(RB3LYP) =  -556.025108652     A.U. after   13 cycles
 SCF Done:  E(RB3LYP) =  -556.025715854     A.U. after   12 cycles
 SCF Done:  E(RB3LYP) =  -556.026016337     A.U. after   12 cycles
 SCF Done:  E(RB3LYP) =  -556.026119918     A.U. after   11 cycles
 SCF Done:  E(RB3LYP) =  -556.026291000     A.U. after    9 cycles
 SCF Done:  E(RB3LYP) =  -556.026293110     A.U. after    9 cycles
 SCF Done:  E(RB3LYP) =  -556.026294507     A.U. after    8 cycles
 SCF Done:  E(RB3LYP) =  -556.026294858     A.U. after    8 cycles
 SCF Done:  E(RB3LYP) =  -556.026294904     A.U. after    7 cycles
 SCF Done:  E(RB3LYP) =  -556.026294919     A.U. after    6 cycles
 Optimization completed.
    -- Stationary point found.
 Normal termination of Gaussian 16 at Wed Dec  9 18:19:27 2020.

 --------------------------------------------------------------------
 #N Geom=AllCheck Guess=TCheck SCRF=Check GenChk RB3LYP/6-31G(d) Freq
 --------------------------------------------------------------------

 Structure from the checkpoint file:  "JID_2920.chk"
 -------------------------------
 CID_146748801_JID_2920_neutraal
 -------------------------------
 Charge =  0 Multiplicity = 1

 SCF Done:  E(RB3LYP) =  -556.026294919     A.U. after    1 cycles

  Exact polarizability: 132.984   7.832 114.633 -10.594   9.128  71.538
 Approx polarizability: 203.724  18.040 168.223 -26.038  22.372 112.070

                      1                      2                      3
                      A                      A                      A
 Frequencies --     38.8225                45.9904                71.4460
 Red. masses --      3.3079                 2.7312                 4.1625
 Frc consts  --      0.0029                 0.0034                 0.0125
 IR Inten    --      0.4014                 2.4036                 1.0271

                      4                      5                      6
                      A                      A                      A
 Frequencies --    117.4723               136.2415               147.8877
 Red. masses --      2.2130                 3.3709                 1.1285
 Frc consts  --      0.0180                 0.0369                 0.0145
 IR Inten    --      0.7706                 1.7378                 0.1757

                      7                      8                      9
                      A                      A                      A
 Frequencies --    174.6117               243.2731               271.7143
 Red. masses --      2.9211                 1.6699                 2.3898
 Frc consts  --      0.0525                 0.0582                 0.1040
 IR Inten    --      1.5286                 0.4587                 1.5176

                     10                     11                     12
                      A                      A                      A
 Frequencies --    315.2643               342.9146               361.0241
 Red. masses --      3.9316                 2.4637                 5.2774
 Frc consts  --      0.2302                 0.1707                 0.4053
 IR Inten    --      7.5547                 0.4359                 7.3799

                     13                     14                     15
                      A                      A                      A
 Frequencies --    410.0101               454.9132               529.4258
 Red. masses --      2.8234                 3.8634                 5.7913
 Frc consts  --      0.2796                 0.4711                 0.9564
 IR Inten    --      1.3786                10.6951                 3.4530

                     16                     17                     18
                      A                      A                      A
 Frequencies --    545.2873               572.2970               654.2739
 Red. masses --      2.8695                 4.3793                 1.4535
 Frc consts  --      0.5027                 0.8451                 0.3666
 IR Inten    --     10.1380                 5.2373                46.8775

                     19                     20                     21
                      A                      A                      A
 Frequencies --    715.9741               734.8113               749.2331
 Red. masses --      2.4846                 3.5197                 3.1215
 Frc consts  --      0.7504                 1.1197                 1.0324
 IR Inten    --     13.1823                15.4500                 5.3043

                     22                     23                     24
                      A                      A                      A
 Frequencies --    762.8951               818.5996               846.1220
 Red. masses --      4.3399                 1.7657                 1.7978
 Frc consts  --      1.4882                 0.6971                 0.7583
 IR Inten    --     12.0734                15.8662                28.2849

                     25                     26                     27
                      A                      A                      A
 Frequencies --    878.6000               900.8804               937.3552
 Red. masses --      2.2354                 1.5101                 3.6353
 Frc consts  --      1.0167                 0.7221                 1.8819
 IR Inten    --      0.3190                 2.4427                11.8009

                     28                     29                     30
                      A                      A                      A
 Frequencies --    996.6224              1033.0140              1054.4146
 Red. masses --      1.2904                 4.7247                 2.0204
 Frc consts  --      0.7551                 2.9706                 1.3235
 IR Inten    --      0.2859                68.7162                 8.5266

                     31                     32                     33
                      A                      A                      A
 Frequencies --   1079.8724              1112.9457              1156.0384
 Red. masses --      1.6947                 1.8998                 1.5228
 Frc consts  --      1.1644                 1.3865                 1.1991
 IR Inten    --     18.2137                 7.4990                48.2403

                     34                     35                     36
                      A                      A                      A
 Frequencies --   1182.8597              1206.1698              1213.0903
 Red. masses --      1.2580                 1.9256                 2.1988
 Frc consts  --      1.0371                 1.6506                 1.9064
 IR Inten    --      1.8769                13.1821                 8.6796

                     37                     38                     39
                      A                      A                      A
 Frequencies --   1245.5251              1251.7862              1272.4924
 Red. masses --      1.8362                 1.8481                 2.3205
 Frc consts  --      1.6783                 1.7062                 2.2139
 IR Inten    --     22.4774                12.0130                75.8012

                     40                     41                     42
                      A                      A                      A
 Frequencies --   1308.2694              1332.2303              1386.1350
 Red. masses --      1.2465                 1.5133                 1.3608
 Frc consts  --      1.2571                 1.5825                 1.5405
 IR Inten    --      0.8934                 8.6374                 4.8698

                     43                     44                     45
                      A                      A                      A
 Frequencies --   1395.5943              1443.9140              1463.6760
 Red. masses --      1.3776                 1.2740                 2.8482
 Frc consts  --      1.5809                 1.5650                 3.5951
 IR Inten    --      5.9802                 5.5129                 9.3823

                     46                     47                     48
                      A                      A                      A
 Frequencies --   1467.8818              1501.4418              1513.0042
 Red. masses --      2.0364                 1.4132                 1.0959
 Frc consts  --      2.5852                 1.8770                 1.4781
 IR Inten    --     10.6371                17.8816                 2.9426

                     49                     50                     51
                      A                      A                      A
 Frequencies --   1516.8221              1521.2022              1531.3024
 Red. masses --      1.0705                 1.0746                 1.0508
 Frc consts  --      1.4511                 1.4651                 1.4518
 IR Inten    --      4.1769                 3.0925                 9.7794

                     52                     53                     54
                      A                      A                      A
 Frequencies --   1533.1596              1539.4041              1600.8733
 Red. masses --      1.0549                 1.0651                 4.7029
 Frc consts  --      1.4610                 1.4871                 7.1012
 IR Inten    --     10.7808                 6.3966               194.7204

                     55                     56                     57
                      A                      A                      A
 Frequencies --   1687.9579              1793.1410              3039.5931
 Red. masses --      6.9151                 8.9276                 1.0617
 Frc consts  --     11.6084                16.9127                 5.7796
 IR Inten    --     98.9240               639.6840                18.5585

                     58                     59                     60
                      A                      A                      A
 Frequencies --   3042.9452              3044.1631              3045.6608
 Red. masses --      1.0360                 1.0443                 1.0538
 Frc consts  --      5.6519                 5.7019                 5.7593
 IR Inten    --     33.2710                53.2612                24.0546

                     61                     62                     63
                      A                      A                      A
 Frequencies --   3078.1973              3088.3414              3109.3388
 Red. masses --      1.0987                 1.1016                 1.1071
 Frc consts  --      6.1340                 6.1908                 6.3060
 IR Inten    --     20.3439                27.3989                30.9777

                     64                     65                     66
                      A                      A                      A
 Frequencies --   3111.0455              3122.7481              3171.8835
 Red. masses --      1.1007                 1.1024                 1.1027
 Frc consts  --      6.2765                 6.3338                 6.5366
 IR Inten    --     46.5738                47.9299                21.8862

                     67                     68                     69
                      A                      A                      A
 Frequencies --   3181.8293              3237.9665              3595.0554
 Red. masses --      1.0894                 1.0934                 1.0771
 Frc consts  --      6.4983                 6.7541                 8.2022
 IR Inten    --     13.6824                 3.3085                50.8561

 - Thermochemistry -
 -------------------
 Temperature   298.150 Kelvin.  Pressure   1.00000 Atm.
 Atom     1 has atomic number  6 and mass  12.00000

 Molecular mass:   167.09463 amu.
 Principal axes and moments of inertia in atomic units:
                           1         2         3
     Eigenvalues --  1470.401352480.711613498.18355
           X            0.99871  -0.05017   0.00838
           Y            0.05028   0.99864  -0.01385
           Z           -0.00767   0.01426   0.99987
 This molecule is an asymmetric top.
 Rotational symmetry number  1.
 Warning -- assumption of classical behavior for rotation
           may cause significant error
 Rotational temperatures (Kelvin)      0.05890     0.03491     0.02476
 Rotational constants (GHZ):           1.22738     0.72751     0.51591
 Zero-point vibrational energy     556185.5 (Joules/Mol)
                                  132.93152 (Kcal/Mol)
 Warning -- explicit consideration of  17 degrees of freedom as
           vibrations may cause significant error
 Vibrational temperatures:     55.86    66.17   102.79   169.02   196.02
          (Kelvin)            212.78   251.23   350.02   390.94   453.60
                              493.38   519.43   589.91   654.52   761.73
                              784.55   823.41   941.35  1030.13  1057.23
                             1077.98  1097.64  1177.78  1217.38  1264.11
                             1296.17  1348.65  1433.92  1486.28  1517.07
                             1553.70  1601.28  1663.28  1701.87  1735.41
                             1745.37  1792.03  1801.04  1830.83  1882.31
                             1916.78  1994.34  2007.95  2077.47  2105.90
                             2111.95  2160.24  2176.88  2182.37  2188.67
                             2203.20  2205.87  2214.86  2303.30  2428.59
                             2579.93  4373.30  4378.12  4379.87  4382.03
                             4428.84  4443.43  4473.65  4476.10  4492.94
                             4563.63  4577.94  4658.71  5172.48

 Zero-point correction=                           0.211840 (Hartree/Particle)
 Thermal correction to Energy=                    0.224160
 Thermal correction to Enthalpy=                  0.225104
 Thermal correction to Gibbs Free Energy=         0.172320
 Sum of electronic and zero-point Energies=           -555.814455
 Sum of electronic and thermal Energies=              -555.802135
 Sum of electronic and thermal Enthalpies=            -555.801191
 Sum of electronic and thermal Free Energies=         -555.853975

                     E (Thermal)             CV                S
                      KCal/Mol        Cal/Mol-Kelvin    Cal/Mol-Kelvin
 Total                  140.663             44.975            111.094
 Electronic               0.000              0.000              0.000
 Translational            0.889              2.981             41.248
 Rotational               0.889              2.981             30.924
 Vibrational            138.885             39.013             38.922
 Vibration     1          0.594              1.981              5.318
 Vibration     2          0.595              1.979              4.983
 Vibration     3          0.598              1.968              4.113
 Vibration     4          0.608              1.935              3.142
 Vibration     5          0.614              1.917              2.856
 Vibration     6          0.617              1.905              2.699
 Vibration     7          0.627              1.874              2.385
 Vibration     8          0.659              1.774              1.779
 Vibration     9          0.675              1.725              1.585
 Vibration    10          0.703              1.645              1.335
 Vibration    11          0.722              1.590              1.199
 Vibration    12          0.735              1.553              1.118
 Vibration    13          0.774              1.448              0.927
 Vibration    14          0.813              1.350              0.781
 Vibration    15          0.884              1.185              0.588
 Vibration    16          0.900              1.150              0.554
 Vibration    17          0.928              1.091              0.500

 Optimization completed.
    -- Stationary point found.
 Normal termination of Gaussian 16 at Wed Dec  9 18:25:31 2020.

 ----------------------------------------------------------------------
 # B3LYP/6-311++G(d,p) empiricaldispersion=gd3bj scf=xqc pop=npa geom=c
 heck
 ----------------------------------------------------------------------

 ---------------------------------------
 CID_146748801_JID_2920_Energie_neutraal
 ---------------------------------------
 Structure from the checkpoint file:  "JID_2920.chk"
 Charge =  0 Multiplicity = 1

 SCF Done:  E(RB3LYP) =  -556.187061632     A.U. after   15 cycles
 Normal termination of Gaussian 16 at Wed Dec  9 18:28:00 2020.

 ----------------------------------------------------------------------
 # B3LYP/6-311++G(d,p) empiricaldispersion=gd3bj scf=xqc pop=npa geom=c
 heck
 ----------------------------------------------------------------------

 -------------------------------------
 CID_146748801_JID_2920_Energie_kation
 -------------------------------------
 Structure from the checkpoint file:  "JID_2920.chk"
 Charge =  1 Multiplicity = 2

 SCF Done:  E(UB3LYP) =  -555.897493184     A.U. after   21 cycles
 Normal termination of Gaussian 16 at Wed Dec  9 18:33:24 2020.
 Gaussian 16:  ES64L-G16RevA.03 25-Dec-2016

 ----------------------------------------------------------------------
 # B3LYP/6-311++G(d,p) empiricaldispersion=gd3bj scf=xqc pop=npa geom=c
 heck
 ----------------------------------------------------------------------

 ------------------------------------
 CID_146748801_JID_2920_Energie_anion
 ------------------------------------
 Structure from the checkpoint file:  "JID_2920.chk"
 Charge = -1 Multiplicity = 2

                         Standard orientation:
 ---------------------------------------------------------------------
 Center     Atomic      Atomic             Coordinates (Angstroms)
 Number     Number       Type             X           Y           Z
 ---------------------------------------------------------------------
      1          6           0        2.862816   -1.604823    0.876808
      2          6           0        2.868923   -0.168052    0.351785
      3          6           0        1.928108    0.050705   -0.849869
      4          6           0        0.475759   -0.213243   -0.533766
      5          6           0       -0.296150    0.709439    0.119644
      6          7           0       -1.601344    0.447987    0.431905
      7          6           0       -2.297654   -0.752166    0.155016
      8          8           0       -3.467548   -0.876357    0.502499
      9          6           0       -1.470033   -1.719342   -0.537151
     10          6           0       -0.166830   -1.451339   -0.846610
     11          8           0        0.173464    1.923679    0.526294
     12          6           0       -0.150250    3.009877   -0.355686
     13          1           0        1.865183   -1.898111    1.221042
     14          1           0        3.554484   -1.720754    1.718250
     15          1           0        3.166915   -2.312587    0.095203
     16          1           0        2.576466    0.523073    1.151622
     17          1           0        3.887560    0.110853    0.051220
     18          1           0        2.053907    1.078164   -1.210205
     19          1           0        2.233863   -0.607759   -1.673208
     20          1           0       -2.119422    1.136985    0.965291
     21          1           0       -1.936616   -2.665040   -0.786096
     22          1           0        0.422170   -2.206731   -1.362005
     23          1           0        0.286227    3.903889    0.091494
     24          1           0        0.278938    2.841247   -1.349798
     25          1           0       -1.235731    3.135961   -0.447520
 ---------------------------------------------------------------------

 SCF Done:  E(UB3LYP) =  -556.183080001     A.U. after   32 cycles

 The electronic state is 2-A.
 Alpha  occ. eigenvalues --  -19.03636 -18.95121 -14.22739 -10.13941 -10.13281
 Alpha  occ. eigenvalues --  -10.10815 -10.06138 -10.05944 -10.05525 -10.05387
 Alpha  occ. eigenvalues --  -10.05027 -10.03342  -0.95961  -0.90376  -0.81455
 Alpha  occ. eigenvalues --   -0.70754  -0.66678  -0.63385  -0.59555  -0.56137
 Alpha  occ. eigenvalues --   -0.51772  -0.50178  -0.47098  -0.42646  -0.39328
 Alpha  occ. eigenvalues --   -0.37843  -0.36270  -0.34711  -0.33674  -0.33290
 Alpha  occ. eigenvalues --   -0.32534  -0.30210  -0.29889  -0.28525  -0.27043
 Alpha  occ. eigenvalues --   -0.26193  -0.24776  -0.24341  -0.22829  -0.22350
 Alpha  occ. eigenvalues --   -0.20044  -0.18281  -0.17246  -0.13172  -0.08816
 Alpha  occ. eigenvalues --    0.04601
 Alpha virt. eigenvalues --    0.07108   0.07417   0.08869   0.09092   0.10253
 Alpha virt. eigenvalues --    0.10648   0.10817   0.11562   0.12317   0.13418
 Alpha virt. eigenvalues --    0.13602   0.13719   0.14345   0.14769   0.15339

  Beta  occ. eigenvalues --  -19.03655 -18.95103 -14.22553 -10.13940 -10.12960
  Beta  occ. eigenvalues --  -10.10691 -10.06125 -10.05941 -10.05508 -10.05195
  Beta  occ. eigenvalues --  -10.05113 -10.03209  -0.95809  -0.90297  -0.81168
  Beta  occ. eigenvalues --   -0.70616  -0.66485  -0.63095  -0.59413  -0.55989
  Beta  occ. eigenvalues --   -0.51388  -0.50073  -0.46973  -0.42501  -0.39191
  Beta  occ. eigenvalues --   -0.37715  -0.35897  -0.34634  -0.33573  -0.33233
  Beta  occ. eigenvalues --   -0.32412  -0.30145  -0.29426  -0.28480  -0.26987
  Beta  occ. eigenvalues --   -0.26036  -0.24638  -0.24304  -0.22802  -0.22298
  Beta  occ. eigenvalues --   -0.19580  -0.18121  -0.16209  -0.13100  -0.08084
  Beta virt. eigenvalues --    0.07101   0.08145   0.08858   0.09112   0.09728
  Beta virt. eigenvalues --    0.10526   0.11015   0.11322   0.11703   0.12359
  Beta virt. eigenvalues --    0.13537   0.13688   0.13986   0.14490   0.14981

 Mulliken charges and spin densities:
               1          2
     1  C   -0.348832  -0.282182
     2  C    0.297715  -0.484986
     3  C   -0.834383   0.383659
     4  C    1.322811  -0.115699
     5  C   -1.012300   0.394061
     6  N   -0.341469   0.074783
     7  C   -0.207547   0.027476
     8  O   -0.422690   0.008046
     9  C   -0.117627  -0.051339
    10  C    0.072233  -0.007078
    11  O   -0.188962   0.068743
    12  C    1.232841  -1.486037
    13  H    0.119400   0.054833
    14  H   -0.014605   0.137286
    15  H    0.082998   0.033702
    16  H    0.160637   0.005458
    17  H   -0.213510   0.332970
    18  H   -0.039656   0.180051
    19  H    0.038588   0.110156
    20  H    0.238668   0.076890
    21  H    0.149059  -0.001675
    22  H    0.123216  -0.001765
    23  H   -0.741361   0.914061
    24  H   -0.278249   0.419800
    25  H   -0.076974   0.208784
 Sum of Mulliken charges =  -1.00000   1.00000

 Dipole moment (field-independent basis, Debye):
    X=              2.2371    Y=             -4.0018    Z=             -0.4465  Tot=              4.6063
 Quadrupole moment (field-independent basis, Debye-Ang):
   XX=           -125.6722   YY=           -120.4229   ZZ=            -90.6283
   XY=            -10.8501   XZ=              0.9341   YZ=              3.6465

 Summary of Natural Population Analysis:

                                       Natural Population
                Natural  -----------------------------------------------
    Atom  No    Charge         Core      Valence    Rydberg      Total
 -----------------------------------------------------------------------
      C    1   -0.28757      0.99967     2.28363    0.00427     3.28757
      C    2   -0.18831      0.99964     2.18066    0.00801     3.18831
      C    3   -0.18994      0.99961     2.17995    0.01039     3.18994
      C    4   -0.10844      0.99944     2.09822    0.01077     3.10844
      C    5    0.32984      0.99935     1.65568    0.01514     2.67016
      N    6   -0.27489      0.99964     2.76697    0.00828     3.77489
      C    7    0.30970      0.99964     1.66845    0.02222     2.69030
      O    8   -0.34523      0.99988     3.33935    0.00600     4.34523
      C    9   -0.14414      0.99952     2.13557    0.00905     3.14414
      C   10   -0.03649      0.99955     2.02834    0.00861     3.03649
      O   11   -0.29503      0.99987     3.28471    0.01046     4.29503
      C   12   -0.08984      0.99959     2.08157    0.00868     3.08984
      H   13    0.10297      0.00000     0.39597    0.00107     0.39703
      H   14    0.09473      0.00000     0.40436    0.00090     0.40527
      H   15    0.09117      0.00000     0.40773    0.00110     0.40883
      H   16    0.09940      0.00000     0.39928    0.00132     0.40060
      H   17    0.08988      0.00000     0.40877    0.00135     0.41012
      H   18    0.10400      0.00000     0.39465    0.00134     0.39600
      H   19    0.09303      0.00000     0.40584    0.00112     0.40697
      H   20    0.19632      0.00000     0.30101    0.00267     0.30368
      H   21    0.09810      0.00000     0.40057    0.00133     0.40190
      H   22    0.09185      0.00000     0.40719    0.00096     0.40815
      H   23    0.09494      0.00000     0.40113    0.00394     0.40506
      H   24    0.08440      0.00000     0.41392    0.00169     0.41560
      H   25    0.07955      0.00000     0.41880    0.00165     0.42045
 =======================================================================
   * Total *    0.00000     11.99537    32.86230    0.14233    45.00000

 Normal termination of Gaussian 16 at Wed Dec  9 18:39:15 2020.
