 Gaussian 16, Revision A.03,

 -----------------------------------------------------------
 # opt freq B3LYP/6-31G(d) empiricaldispersion=gd3bj scf=xqc
 -----------------------------------------------------------

 ------------------------------
 CID_64292554_JID_4232_neutraal
 ------------------------------
 Symbolic Z-matrix:
 Charge =  0 Multiplicity = 1

 SCF Done:  E(RB3LYP) =  -602.314708277     A.U. after   13 cycles
 SCF Done:  E(RB3LYP) =  -602.317892828     A.U. after   11 cycles
 SCF Done:  E(RB3LYP) =  -602.318515310     A.U. after   11 cycles
 SCF Done:  E(RB3LYP) =  -602.318936396     A.U. after   11 cycles
 SCF Done:  E(RB3LYP) =  -602.319551198     A.U. after   11 cycles
 SCF Done:  E(RB3LYP) =  -602.320390742     A.U. after   13 cycles
 SCF Done:  E(RB3LYP) =  -602.322822392     A.U. after   11 cycles
 SCF Done:  E(RB3LYP) =  -602.324712027     A.U. after   12 cycles
 SCF Done:  E(RB3LYP) =  -602.318158043     A.U. after   13 cycles
 SCF Done:  E(RB3LYP) =  -602.318536459     A.U. after   12 cycles
 SCF Done:  E(RB3LYP) =  -602.327477789     A.U. after    9 cycles
 SCF Done:  E(RB3LYP) =  -602.327479316     A.U. after    8 cycles
 SCF Done:  E(RB3LYP) =  -602.327480566     A.U. after    8 cycles
 SCF Done:  E(RB3LYP) =  -602.327480602     A.U. after    7 cycles
 SCF Done:  E(RB3LYP) =  -602.327480535     A.U. after    7 cycles
 Optimization completed.
    -- Stationary point found.
 Normal termination of Gaussian 16 at Thu Dec 10 09:34:55 2020.

 --------------------------------------------------------------------
 #N Geom=AllCheck Guess=TCheck SCRF=Check GenChk RB3LYP/6-31G(d) Freq
 --------------------------------------------------------------------

 Structure from the checkpoint file:  "JID_4232.chk"
 ------------------------------
 CID_64292554_JID_4232_neutraal
 ------------------------------
 Charge =  0 Multiplicity = 1

 SCF Done:  E(RB3LYP) =  -602.327480535     A.U. after    1 cycles

  Exact polarizability: 136.660   5.609 152.841   2.939  -2.419 120.611
 Approx polarizability: 171.478   1.817 208.380   3.801  -3.822 182.689

                      1                      2                      3
                      A                      A                      A
 Frequencies --     24.3623                29.8397                44.2558
 Red. masses --      3.2316                 3.4454                 4.3511
 Frc consts  --      0.0011                 0.0018                 0.0050
 IR Inten    --      0.0297                 0.1543                 0.1073

                      4                      5                      6
                      A                      A                      A
 Frequencies --     47.8255                60.2145                79.4937
 Red. masses --      2.7374                 3.3378                 2.5469
 Frc consts  --      0.0037                 0.0071                 0.0095
 IR Inten    --      0.0714                 1.9306                 0.0405

                      7                      8                      9
                      A                      A                      A
 Frequencies --     98.4616               118.3633               133.9205
 Red. masses --      2.0317                 2.9353                 2.8710
 Frc consts  --      0.0116                 0.0242                 0.0303
 IR Inten    --      0.6015                 1.3701                 0.1232

                     10                     11                     12
                      A                      A                      A
 Frequencies --    171.9919               201.8611               226.0209
 Red. masses --      3.1296                 2.2579                 2.6327
 Frc consts  --      0.0545                 0.0542                 0.0792
 IR Inten    --      1.6662                 0.4667                 0.5978

                     13                     14                     15
                      A                      A                      A
 Frequencies --    252.5407               265.0530               275.6754
 Red. masses --      1.7980                 1.6152                 1.7893
 Frc consts  --      0.0676                 0.0669                 0.0801
 IR Inten    --      0.6398                 0.2472                 1.6316

                     16                     17                     18
                      A                      A                      A
 Frequencies --    308.5278               313.5712               358.1107
 Red. masses --      2.1123                 1.8785                 2.5694
 Frc consts  --      0.1185                 0.1088                 0.1941
 IR Inten    --      2.5048                 2.9398                 3.5433

                     19                     20                     21
                      A                      A                      A
 Frequencies --    383.5231               426.9236               439.6323
 Red. masses --      2.1235                 1.8347                 2.1203
 Frc consts  --      0.1840                 0.1970                 0.2415
 IR Inten    --      3.6159                 2.4119                 1.0750

                     22                     23                     24
                      A                      A                      A
 Frequencies --    491.2217               540.4322               588.4080
 Red. masses --      2.0950                 2.4802                 2.3838
 Frc consts  --      0.2978                 0.4268                 0.4863
 IR Inten    --      0.3293                 1.0007                 1.3243

                     25                     26                     27
                      A                      A                      A
 Frequencies --    681.7467               720.4421               748.7049
 Red. masses --      1.6374                 1.2560                 1.3467
 Frc consts  --      0.4484                 0.3841                 0.4448
 IR Inten    --     17.0462                15.5336                98.6448

                     28                     29                     30
                      A                      A                      A
 Frequencies --    791.6935               814.5225               826.4828
 Red. masses --      1.5366                 2.2672                 1.1751
 Frc consts  --      0.5675                 0.8862                 0.4729
 IR Inten    --      9.9774                 3.7774                 0.9698

                     31                     32                     33
                      A                      A                      A
 Frequencies --    830.3161               869.8531               880.2301
 Red. masses --      2.1109                 2.0556                 1.9235
 Frc consts  --      0.8574                 0.9164                 0.8781
 IR Inten    --      5.0482                 1.0283                 2.8643

                     34                     35                     36
                      A                      A                      A
 Frequencies --    887.5079               927.6226               938.5156
 Red. masses --      1.9227                 1.7146                 1.3586
 Frc consts  --      0.8923                 0.8693                 0.7051
 IR Inten    --     10.3111                11.8143                46.8914

                     37                     38                     39
                      A                      A                      A
 Frequencies --    959.3541               981.8461               997.3128
 Red. masses --      1.8774                 1.7114                 1.7276
 Frc consts  --      1.0180                 0.9720                 1.0124
 IR Inten    --      2.4142                11.5395                 0.3645

                     40                     41                     42
                      A                      A                      A
 Frequencies --   1033.8888              1039.2787              1040.1227
 Red. masses --      2.1291                 1.2515                 1.4234
 Frc consts  --      1.3409                 0.7964                 0.9073
 IR Inten    --      9.2843                 6.6065                15.6694

                     43                     44                     45
                      A                      A                      A
 Frequencies --   1054.8018              1078.3278              1097.8550
 Red. masses --      2.6862                 1.7751                 1.9669
 Frc consts  --      1.7609                 1.2161                 1.3967
 IR Inten    --      5.6570                11.6548                 9.7677

                     46                     47                     48
                      A                      A                      A
 Frequencies --   1114.9998              1119.7243              1139.5736
 Red. masses --      1.7141                 2.2351                 2.3802
 Frc consts  --      1.2556                 1.6511                 1.8212
 IR Inten    --      2.2473                 3.1546                61.3045

                     49                     50                     51
                      A                      A                      A
 Frequencies --   1146.7418              1163.5994              1180.1574
 Red. masses --      1.9931                 2.1975                 2.2334
 Frc consts  --      1.5442                 1.7530                 1.8327
 IR Inten    --     20.3828                64.9218                23.3068

                     52                     53                     54
                      A                      A                      A
 Frequencies --   1192.0089              1213.5408              1245.6105
 Red. masses --      2.4324                 1.5063                 1.3836
 Frc consts  --      2.0363                 1.3070                 1.2648
 IR Inten    --     36.2219                24.0015                 9.4790

                     55                     56                     57
                      A                      A                      A
 Frequencies --   1276.7140              1289.1100              1296.3951
 Red. masses --      1.3150                 1.2767                 1.2477
 Frc consts  --      1.2629                 1.2500                 1.2355
 IR Inten    --      5.6527                 2.6940                 6.3594

                     58                     59                     60
                      A                      A                      A
 Frequencies --   1321.1666              1326.8848              1329.0694
 Red. masses --      1.2593                 1.2682                 1.1851
 Frc consts  --      1.2951                 1.3155                 1.2334
 IR Inten    --      6.3426                 1.2923                 5.9069

                     61                     62                     63
                      A                      A                      A
 Frequencies --   1342.2686              1349.1779              1363.8844
 Red. masses --      1.2016                 1.1508                 1.2042
 Frc consts  --      1.2755                 1.2342                 1.3198
 IR Inten    --      4.6423                 2.0485                 7.8193

                     64                     65                     66
                      A                      A                      A
 Frequencies --   1375.6483              1400.1372              1400.6501
 Red. masses --      1.2687                 1.3131                 1.3229
 Frc consts  --      1.4145                 1.5167                 1.5291
 IR Inten    --      8.7530                 1.7556                25.3488

                     67                     68                     69
                      A                      A                      A
 Frequencies --   1407.2921              1413.2883              1421.6971
 Red. masses --      1.4079                 1.3135                 1.2785
 Frc consts  --      1.6428                 1.5457                 1.5225
 IR Inten    --      2.0768                12.3460                17.9477

                     70                     71                     72
                      A                      A                      A
 Frequencies --   1431.8860              1441.6226              1452.6157
 Red. masses --      1.4540                 1.3362                 1.3178
 Frc consts  --      1.7564                 1.6362                 1.6383
 IR Inten    --      1.4483                 6.6069                 3.1665

                     73                     74                     75
                      A                      A                      A
 Frequencies --   1473.7166              1504.1872              1505.4376
 Red. masses --      1.1653                 1.0992                 1.1333
 Frc consts  --      1.4912                 1.4653                 1.5133
 IR Inten    --      1.7993                 0.5792                 9.2776

                     76                     77                     78
                      A                      A                      A
 Frequencies --   1506.5895              1510.4136              1515.8887
 Red. masses --      1.0856                 1.0934                 1.0855
 Frc consts  --      1.4518                 1.4697                 1.4696
 IR Inten    --      5.1193                 5.6275                 3.0387

                     79                     80                     81
                      A                      A                      A
 Frequencies --   1519.3201              1521.5181              1525.3539
 Red. masses --      1.0823                 1.0975                 1.0482
 Frc consts  --      1.4719                 1.4969                 1.4370
 IR Inten    --      4.3081                 3.0226                 7.6526

                     82                     83                     84
                      A                      A                      A
 Frequencies --   1531.0715              1532.4842              1549.2245
 Red. masses --      1.1440                 1.0941                 1.0902
 Frc consts  --      1.5801                 1.5140                 1.5417
 IR Inten    --     16.7671                 3.4349                 7.3450

                     85                     86                     87
                      A                      A                      A
 Frequencies --   1556.0496              1729.1057              2955.7030
 Red. masses --      1.0900                 4.3800                 1.0718
 Frc consts  --      1.5549                 7.7156                 5.5167
 IR Inten    --      2.5602                 6.6024                92.5130

                     88                     89                     90
                      A                      A                      A
 Frequencies --   2989.8472              3010.2064              3025.0642
 Red. masses --      1.0682                 1.0618                 1.0613
 Frc consts  --      5.6261                 5.6685                 5.7223
 IR Inten    --     55.1251                41.0720                 8.1000

                     91                     92                     93
                      A                      A                      A
 Frequencies --   3029.4199              3035.8603              3036.7176
 Red. masses --      1.0663                 1.0671                 1.0599
 Frc consts  --      5.7656                 5.7944                 5.7587
 IR Inten    --     40.7647                22.3376                21.3835

                     94                     95                     96
                      A                      A                      A
 Frequencies --   3037.2552              3043.0322              3047.6066
 Red. masses --      1.0636                 1.0558                 1.0726
 Frc consts  --      5.7807                 5.7603                 5.8695
 IR Inten    --     34.1202                 8.9660                28.4881

                     97                     98                     99
                      A                      A                      A
 Frequencies --   3049.5939              3052.6298              3060.8656
 Red. masses --      1.0696                 1.0915                 1.0904
 Frc consts  --      5.8608                 5.9925                 6.0191
 IR Inten    --     40.7476                37.5416                30.8742

                    100                    101                    102
                      A                      A                      A
 Frequencies --   3069.1477              3079.1372              3081.7300
 Red. masses --      1.1007                 1.1010                 1.1024
 Frc consts  --      6.1090                 6.1504                 6.1684
 IR Inten    --     44.2372                43.5494                27.6778

                    103                    104                    105
                      A                      A                      A
 Frequencies --   3087.8688              3091.0568              3097.2119
 Red. masses --      1.1013                 1.0956                 1.0993
 Frc consts  --      6.1867                 6.1677                 6.2133
 IR Inten    --     84.8448                67.2002                56.9948

                    106                    107                    108
                      A                      A                      A
 Frequencies --   3110.5078              3135.8277              3154.5607
 Red. masses --      1.0967                 1.1035                 1.0589
 Frc consts  --      6.2516                 6.3934                 6.2085
 IR Inten    --     42.4481                36.8877                12.5863

                    109                    110                    111
                      A                      A                      A
 Frequencies --   3168.4644              3235.8982              3490.0611
 Red. masses --      1.0911                 1.1155                 1.0733
 Frc consts  --      6.4536                 6.8816                 7.7027
 IR Inten    --     10.9437                17.7447                 2.1162

 - Thermochemistry -
 -------------------
 Temperature   298.150 Kelvin.  Pressure   1.00000 Atm.
 Atom     1 has atomic number  6 and mass  12.00000

 Molecular mass:   199.19361 amu.
 Principal axes and moments of inertia in atomic units:
                           1         2         3
     Eigenvalues --  2842.124203684.408475772.45486
           X            0.99873   0.05018   0.00323
           Y           -0.05019   0.99873   0.00367
           Z           -0.00304  -0.00383   0.99999
 This molecule is an asymmetric top.
 Rotational symmetry number  1.
 Warning -- assumption of classical behavior for rotation
           may cause significant error
 Rotational temperatures (Kelvin)      0.03048     0.02351     0.01500
 Rotational constants (GHZ):           0.63500     0.48983     0.31265
 Zero-point vibrational energy     950383.8 (Joules/Mol)
                                  227.14717 (Kcal/Mol)
 Warning -- explicit consideration of  24 degrees of freedom as
           vibrations may cause significant error
 Vibrational temperatures:     35.05    42.93    63.67    68.81    86.64
          (Kelvin)            114.37   141.66   170.30   192.68   247.46
                              290.43   325.19   363.35   381.35   396.64
                              443.90   451.16   515.24   551.80   614.25
                              632.53   706.76   777.56   846.59   980.88
                             1036.56  1077.22  1139.07  1171.92  1189.12
                             1194.64  1251.52  1266.45  1276.93  1334.64
                             1350.31  1380.30  1412.66  1434.91  1487.54
                             1495.29  1496.50  1517.62  1551.47  1579.57
                             1604.24  1611.03  1639.59  1649.91  1674.16
                             1697.98  1715.03  1746.01  1792.16  1836.91
                             1854.74  1865.22  1900.86  1909.09  1912.23
                             1931.23  1941.17  1962.33  1979.25  2014.49
                             2015.22  2024.78  2033.41  2045.51  2060.16
                             2074.17  2089.99  2120.35  2164.19  2165.99
                             2167.65  2173.15  2181.03  2185.96  2189.13
                             2194.64  2202.87  2204.90  2228.99  2238.81
                             2487.80  4252.60  4301.72  4331.02  4352.39
                             4358.66  4367.93  4369.16  4369.93  4378.24
                             4384.83  4387.69  4392.05  4403.90  4415.82
                             4430.19  4433.92  4442.75  4447.34  4456.20
                             4475.33  4511.76  4538.71  4558.71  4655.74
                             5021.42

 Zero-point correction=                           0.361982 (Hartree/Particle)
 Thermal correction to Energy=                    0.379266
 Thermal correction to Enthalpy=                  0.380210
 Thermal correction to Gibbs Free Energy=         0.314730
 Sum of electronic and zero-point Energies=           -601.965498
 Sum of electronic and thermal Energies=              -601.948215
 Sum of electronic and thermal Enthalpies=            -601.947270
 Sum of electronic and thermal Free Energies=         -602.012751

                     E (Thermal)             CV                S
                      KCal/Mol        Cal/Mol-Kelvin    Cal/Mol-Kelvin
 Total                  237.993             62.672            137.815
 Electronic               0.000              0.000              0.000
 Translational            0.889              2.981             41.772
 Rotational               0.889              2.981             32.469
 Vibrational            236.216             56.710             63.574
 Vibration     1          0.593              1.985              6.242
 Vibration     2          0.594              1.984              5.840
 Vibration     3          0.595              1.980              5.059
 Vibration     4          0.595              1.978              4.905
 Vibration     5          0.597              1.973              4.450
 Vibration     6          0.600              1.963              3.903
 Vibration     7          0.604              1.950              3.485
 Vibration     8          0.609              1.934              3.127
 Vibration     9          0.613              1.919              2.889
 Vibration    10          0.626              1.877              2.414
 Vibration    11          0.639              1.837              2.116
 Vibration    12          0.650              1.801              1.910
 Vibration    13          0.664              1.758              1.713
 Vibration    14          0.671              1.737              1.628
 Vibration    15          0.677              1.718              1.560
 Vibration    16          0.698              1.657              1.370
 Vibration    17          0.701              1.648              1.343
 Vibration    18          0.733              1.559              1.130
 Vibration    19          0.753              1.505              1.025
 Vibration    20          0.789              1.412              0.869
 Vibration    21          0.800              1.384              0.828
 Vibration    22          0.847              1.269              0.680
 Vibration    23          0.895              1.161              0.564
 Vibration    24          0.946              1.057              0.470

                           ! Non-Optimized Parameters !
 Normal termination of Gaussian 16 at Thu Dec 10 09:47:13 2020.

 ----------------------------------------------------------------------
 # B3LYP/6-311++G(d,p) empiricaldispersion=gd3bj scf=xqc pop=npa geom=c
 heck
 ----------------------------------------------------------------------

 --------------------------------------
 CID_64292554_JID_4232_Energie_neutraal
 --------------------------------------
 Structure from the checkpoint file:  "JID_4232.chk"
 Charge =  0 Multiplicity = 1

 SCF Done:  E(RB3LYP) =  -602.504076390     A.U. after   13 cycles
 Normal termination of Gaussian 16 at Thu Dec 10 09:53:10 2020.

 ----------------------------------------------------------------------
 # B3LYP/6-311++G(d,p) empiricaldispersion=gd3bj scf=xqc pop=npa geom=c
 heck
 ----------------------------------------------------------------------

 ------------------------------------
 CID_64292554_JID_4232_Energie_kation
 ------------------------------------
 Structure from the checkpoint file:  "JID_4232.chk"
 Charge =  1 Multiplicity = 2

 SCF Done:  E(UB3LYP) =  -602.210335703     A.U. after   22 cycles
 Normal termination of Gaussian 16 at Thu Dec 10 10:07:28 2020.
 Gaussian 16:  ES64L-G16RevA.03 25-Dec-2016

 ----------------------------------------------------------------------
 # B3LYP/6-311++G(d,p) empiricaldispersion=gd3bj scf=xqc pop=npa geom=c
 heck
 ----------------------------------------------------------------------

 -----------------------------------
 CID_64292554_JID_4232_Energie_anion
 -----------------------------------
 Structure from the checkpoint file:  "JID_4232.chk"
 Charge = -1 Multiplicity = 2

                         Standard orientation:
 ---------------------------------------------------------------------
 Center     Atomic      Atomic             Coordinates (Angstroms)
 Number     Number       Type             X           Y           Z
 ---------------------------------------------------------------------
      1          6           0       -0.242105    3.293881    0.303752
      2          6           0       -1.148846    2.273750   -0.377450
      3          7           0       -2.218655    1.857429    0.524872
      4          6           0       -3.179202    0.909549   -0.037693
      5          6           0       -2.628740   -0.454309   -0.499927
      6          6           0       -1.935171   -1.229462    0.623678
      7          6           0       -1.384125   -2.605250    0.223128
      8          6           0       -0.369797   -2.591205   -0.931551
      9          6           0        0.770990   -1.597852   -0.740753
     10          8           0        1.441662   -1.878080    0.482076
     11          6           0        1.940826   -0.757162    1.184311
     12          6           0        3.238436   -0.146853    0.618102
     13          6           0        3.072488    0.613569   -0.669696
     14          6           0        3.023243    1.943579   -0.759449
     15          1           0       -0.824271    4.152017    0.654081
     16          1           0        0.535982    3.643884   -0.382228
     17          1           0        0.262583    2.848006    1.170647
     18          1           0       -1.621568    2.725102   -1.260338
     19          1           0       -0.527206    1.439905   -0.751542
     20          1           0       -1.810456    1.469479    1.373530
     21          1           0       -3.953493    0.742509    0.723004
     22          1           0       -3.673316    1.405576   -0.883716
     23          1           0       -3.462174   -1.050304   -0.898306
     24          1           0       -1.936630   -0.303698   -1.337633
     25          1           0       -1.113776   -0.624256    1.028813
     26          1           0       -2.643921   -1.363272    1.453406
     27          1           0       -0.903450   -3.053678    1.099457
     28          1           0       -2.217442   -3.265600   -0.052529
     29          1           0        0.050768   -3.597780   -1.047644
     30          1           0       -0.865606   -2.349536   -1.880912
     31          1           0        1.472290   -1.668701   -1.585430
     32          1           0        0.386690   -0.568861   -0.728037
     33          1           0        1.170926    0.029498    1.248528
     34          1           0        2.139167   -1.119937    2.198762
     35          1           0        3.636520    0.529669    1.386331
     36          1           0        3.964461   -0.960522    0.492491
     37          1           0        2.973887    0.021106   -1.577942
     38          1           0        2.884181    2.450060   -1.710588
     39          1           0        3.125165    2.578551    0.118365
 ---------------------------------------------------------------------

 SCF Done:  E(UB3LYP) =  -602.487826234     A.U. after   33 cycles
 SCF Done:  E(UB3LYP) =  -602.487826234     a.u. after    1 cycles

 The electronic state is 2-A.
 Alpha  occ. eigenvalues --  -19.02727 -14.20069 -10.12280 -10.11725 -10.09640
 Alpha  occ. eigenvalues --  -10.09545 -10.08072 -10.07708 -10.06944 -10.06860
 Alpha  occ. eigenvalues --  -10.06858 -10.06660 -10.06650 -10.06499  -0.94019
 Alpha  occ. eigenvalues --   -0.81077  -0.71493  -0.70320  -0.67304  -0.64696
 Alpha  occ. eigenvalues --   -0.62586  -0.59685  -0.55615  -0.52895  -0.51709
 Alpha  occ. eigenvalues --   -0.49301  -0.46325  -0.45695  -0.40771  -0.39726
 Alpha  occ. eigenvalues --   -0.39091  -0.38127  -0.37027  -0.36347  -0.35753
 Alpha  occ. eigenvalues --   -0.34194  -0.32980  -0.32746  -0.31306  -0.30887
 Alpha  occ. eigenvalues --   -0.29432  -0.28936  -0.28067  -0.27199  -0.26970
 Alpha  occ. eigenvalues --   -0.26409  -0.25449  -0.25177  -0.24469  -0.23271
 Alpha  occ. eigenvalues --   -0.22770  -0.22121  -0.21392  -0.18004  -0.15513
 Alpha  occ. eigenvalues --   -0.13037   0.04421
 Alpha virt. eigenvalues --    0.06101   0.06604   0.07050   0.08016   0.08438
 Alpha virt. eigenvalues --    0.08536   0.08993   0.09203   0.09527   0.10597
 Alpha virt. eigenvalues --    0.10903   0.11091   0.11397   0.11759   0.11929

  Beta  occ. eigenvalues --  -19.02723 -14.20064 -10.12262 -10.11712 -10.09629
  Beta  occ. eigenvalues --  -10.09532 -10.08057 -10.07689 -10.06931 -10.06849
  Beta  occ. eigenvalues --  -10.06825 -10.06648 -10.06634 -10.06484  -0.94011
  Beta  occ. eigenvalues --   -0.81062  -0.71463  -0.70283  -0.67277  -0.64669
  Beta  occ. eigenvalues --   -0.62547  -0.59650  -0.55575  -0.52848  -0.51662
  Beta  occ. eigenvalues --   -0.49258  -0.46254  -0.45648  -0.40736  -0.39701
  Beta  occ. eigenvalues --   -0.39068  -0.38094  -0.36994  -0.36312  -0.35727
  Beta  occ. eigenvalues --   -0.34173  -0.32945  -0.32704  -0.31267  -0.30846
  Beta  occ. eigenvalues --   -0.29405  -0.28908  -0.28044  -0.27166  -0.26939
  Beta  occ. eigenvalues --   -0.26385  -0.25421  -0.25146  -0.24437  -0.23242
  Beta  occ. eigenvalues --   -0.22746  -0.22093  -0.21365  -0.17954  -0.15474
  Beta  occ. eigenvalues --   -0.13027
  Beta virt. eigenvalues --    0.06446   0.07012   0.07214   0.07418   0.08325
  Beta virt. eigenvalues --    0.08830   0.09006   0.09327   0.09496   0.09776
  Beta virt. eigenvalues --    0.10917   0.11308   0.11445   0.11675   0.12040

 Mulliken charges and spin densities:
               1          2
     1  C    0.124460  -0.681332
     2  C   -0.049792  -0.231249
     3  N   -0.042700   0.029309
     4  C    0.214564  -0.810749
     5  C   -0.068144   0.059313
     6  C    0.539985  -0.638767
     7  C   -0.563284   0.032756
     8  C    0.370541  -0.735321
     9  C   -0.303347   0.024856
    10  O   -0.073505   0.035760
    11  C   -0.324542   0.240234
    12  C    1.251662  -1.996039
    13  C   -1.635087   2.224123
    14  C    1.341149  -1.978435
    15  H    0.003600   0.149726
    16  H    0.100210   0.037935
    17  H   -0.178264   0.301837
    18  H   -0.064469   0.233082
    19  H   -0.230182   0.293909
    20  H    0.126593   0.092558
    21  H   -0.058230   0.220607
    22  H   -0.061867   0.205698
    23  H   -0.434967   0.605480
    24  H    0.070537   0.064383
    25  H   -0.231819   0.318843
    26  H   -0.112657   0.293588
    27  H    0.070234   0.101330
    28  H   -0.136769   0.275557
    29  H   -0.078844   0.264402
    30  H   -0.228610   0.386729
    31  H    0.035093   0.123701
    32  H    0.613112  -0.544255
    33  H    0.609877  -0.506395
    34  H   -0.364467   0.543228
    35  H   -0.600835   0.764084
    36  H    0.069142   0.092981
    37  H   -0.364583   0.511367
    38  H   -0.146025   0.273577
    39  H   -0.187768   0.321592
 Sum of Mulliken charges =  -1.00000   1.00000

 Dipole moment (field-independent basis, Debye):
    X=             -1.1710    Y=             -0.0915    Z=             -0.3238  Tot=              1.2184
 Quadrupole moment (field-independent basis, Debye-Ang):
   XX=           -166.0748   YY=           -147.3892   ZZ=           -132.2898
   XY=             -7.1435   XZ=             -5.6002   YZ=             -1.6976

 Summary of Natural Population Analysis:

                                       Natural Population
                Natural  -----------------------------------------------
    Atom  No    Charge         Core      Valence    Rydberg      Total
 -----------------------------------------------------------------------
      C    1   -0.28485      0.99967     2.28055    0.00463     3.28485
      C    2   -0.08991      0.99964     2.08053    0.00974     3.08991
      N    3   -0.34052      0.99975     2.82948    0.01129     3.84052
      C    4   -0.08307      0.99963     2.07157    0.01187     3.08307
      C    5   -0.20187      0.99962     2.19467    0.00758     3.20187
      C    6   -0.19590      0.99962     2.18744    0.00884     3.19590
      C    7   -0.18809      0.99962     2.17956    0.00891     3.18809
      C    8   -0.19819      0.99962     2.18981    0.00875     3.19819
      C    9   -0.01357      0.99956     2.00197    0.01203     3.01357
      O   10   -0.30426      0.99988     3.29507    0.00931     4.30426
      C   11   -0.00121      0.99957     1.98824    0.01340     3.00121
      C   12   -0.22309      0.99960     2.21337    0.01011     3.22309
      C   13   -0.08814      0.99956     2.07786    0.01072     3.08814
      C   14   -0.18965      0.99955     2.18216    0.00794     3.18965
      H   15    0.09771      0.00000     0.40102    0.00127     0.40229
      H   16    0.10109      0.00000     0.39799    0.00093     0.39891
      H   17    0.09535      0.00000     0.40324    0.00140     0.40465
      H   18    0.08752      0.00000     0.41118    0.00130     0.41248
      H   19    0.07891      0.00000     0.41838    0.00271     0.42109
      H   20    0.16902      0.00000     0.32774    0.00324     0.33098
      H   21    0.09087      0.00000     0.40811    0.00103     0.40913
      H   22    0.09022      0.00000     0.40868    0.00110     0.40978
      H   23    0.09841      0.00000     0.40011    0.00148     0.40159
      H   24    0.09382      0.00000     0.40437    0.00181     0.40618
      H   25    0.09217      0.00000     0.40571    0.00211     0.40783
      H   26    0.09645      0.00000     0.40233    0.00122     0.40355
      H   27    0.10097      0.00000     0.39774    0.00129     0.39903
      H   28    0.09555      0.00000     0.40334    0.00111     0.40445
      H   29    0.09946      0.00000     0.39942    0.00113     0.40054
      H   30    0.09842      0.00000     0.40038    0.00120     0.40158
      H   31    0.08199      0.00000     0.41653    0.00148     0.41801
      H   32    0.08170      0.00000     0.41570    0.00260     0.41830
      H   33    0.07633      0.00000     0.42154    0.00213     0.42367
      H   34    0.09096      0.00000     0.40745    0.00159     0.40904
      H   35    0.10362      0.00000     0.39454    0.00184     0.39638
      H   36    0.10359      0.00000     0.39506    0.00135     0.39641
      H   37    0.09274      0.00000     0.40589    0.00137     0.40726
      H   38    0.09430      0.00000     0.40454    0.00116     0.40570
      H   39    0.09113      0.00000     0.40742    0.00145     0.40887
 =======================================================================
   * Total *   -0.00000     13.99490    41.83067    0.17443    56.00000

 Normal termination of Gaussian 16 at Thu Dec 10 10:28:51 2020.
