 Gaussian 16, Revision A.03,

 -----------------------------------------------------------
 # opt freq B3LYP/6-31G(d) empiricaldispersion=gd3bj scf=xqc
 -----------------------------------------------------------

 -------------------------------
 CID_116979311_JID_9838_neutraal
 -------------------------------
 Symbolic Z-matrix:
 Charge =  0 Multiplicity = 1

 SCF Done:  E(RB3LYP) =  -823.821717735     A.U. after   14 cycles
 SCF Done:  E(RB3LYP) =  -823.828307680     A.U. after   12 cycles
 SCF Done:  E(RB3LYP) =  -823.829419230     A.U. after   11 cycles
 SCF Done:  E(RB3LYP) =  -823.829977590     A.U. after   12 cycles
 SCF Done:  E(RB3LYP) =  -823.830824263     A.U. after   12 cycles
 SCF Done:  E(RB3LYP) =  -823.831503936     A.U. after   12 cycles
 SCF Done:  E(RB3LYP) =  -823.831877330     A.U. after   12 cycles
 SCF Done:  E(RB3LYP) =  -823.832102102     A.U. after   11 cycles
 SCF Done:  E(RB3LYP) =  -823.832215096     A.U. after   11 cycles
 SCF Done:  E(RB3LYP) =  -823.832290620     A.U. after   11 cycles
 SCF Done:  E(RB3LYP) =  -823.832343269     A.U. after   10 cycles
 SCF Done:  E(RB3LYP) =  -823.832347075     A.U. after   10 cycles
 SCF Done:  E(RB3LYP) =  -823.832347220     A.U. after    7 cycles
 SCF Done:  E(RB3LYP) =  -823.832347413     A.U. after    7 cycles
 SCF Done:  E(RB3LYP) =  -823.832347481     A.U. after    6 cycles
 Optimization completed.
    -- Stationary point found.
 Normal termination of Gaussian 16 at Sat Dec 12 10:10:43 2020.

 --------------------------------------------------------------------
 #N Geom=AllCheck Guess=TCheck SCRF=Check GenChk RB3LYP/6-31G(d) Freq
 --------------------------------------------------------------------

 Structure from the checkpoint file:  "JID_9838.chk"
 -------------------------------
 CID_116979311_JID_9838_neutraal
 -------------------------------
 Charge =  0 Multiplicity = 1

 SCF Done:  E(RB3LYP) =  -823.832347481     A.U. after    1 cycles

  Exact polarizability: 174.381 -15.060 161.995 -12.917 -11.022 155.369
 Approx polarizability: 246.312 -27.060 243.913 -33.003 -17.100 264.792

                      1                      2                      3
                      A                      A                      A
 Frequencies --     24.2046                37.5491                66.8768
 Red. masses --      4.6570                 4.0870                 4.1457
 Frc consts  --      0.0016                 0.0034                 0.0109
 IR Inten    --      0.0449                 0.7601                 0.2437

                      4                      5                      6
                      A                      A                      A
 Frequencies --     80.0954                93.6705               146.3042
 Red. masses --      4.5119                 8.2978                 3.9415
 Frc consts  --      0.0171                 0.0429                 0.0497
 IR Inten    --      0.0367                 2.9923                 1.4163

                      7                      8                      9
                      A                      A                      A
 Frequencies --    168.6268               226.0173               248.6654
 Red. masses --      2.8891                 3.3699                 4.6998
 Frc consts  --      0.0484                 0.1014                 0.1712
 IR Inten    --      1.9167                 1.3147                 3.8772

                     10                     11                     12
                      A                      A                      A
 Frequencies --    259.5745               271.0290               304.5682
 Red. masses --      5.1529                 4.1435                 1.1242
 Frc consts  --      0.2046                 0.1793                 0.0614
 IR Inten    --      8.2827                 4.6921                34.9068

                     13                     14                     15
                      A                      A                      A
 Frequencies --    331.6511               342.4155               367.2211
 Red. masses --      2.4401                 2.4126                 3.5141
 Frc consts  --      0.1581                 0.1667                 0.2792
 IR Inten    --     11.4740                 6.7099                 6.2866

                     16                     17                     18
                      A                      A                      A
 Frequencies --    392.8092               402.8593               420.1500
 Red. masses --      2.9176                 2.5092                 3.0445
 Frc consts  --      0.2652                 0.2399                 0.3167
 IR Inten    --      0.8402                 0.2601                 0.0772

                     19                     20                     21
                      A                      A                      A
 Frequencies --    441.6503               462.8345               490.0254
 Red. masses --      1.9991                 3.3453                 3.4962
 Frc consts  --      0.2297                 0.4222                 0.4946
 IR Inten    --      2.8826                 6.2145                 8.6700

                     22                     23                     24
                      A                      A                      A
 Frequencies --    523.0437               561.8730               571.1367
 Red. masses --      2.9125                 2.3535                 2.5316
 Frc consts  --      0.4695                 0.4378                 0.4865
 IR Inten    --      2.2227                47.3708                14.4891

                     25                     26                     27
                      A                      A                      A
 Frequencies --    599.0787               635.4851               654.2919
 Red. masses --      3.6901                 6.3404                 2.1779
 Frc consts  --      0.7803                 1.5086                 0.5493
 IR Inten    --     28.8989                 0.5445                92.1091

                     28                     29                     30
                      A                      A                      A
 Frequencies --    716.4072               724.1650               759.6353
 Red. masses --      2.4737                 2.5070                 5.0455
 Frc consts  --      0.7480                 0.7746                 1.7154
 IR Inten    --     15.5263                14.2616                63.2773

                     31                     32                     33
                      A                      A                      A
 Frequencies --    769.6619               776.0644               793.5417
 Red. masses --      2.3370                 2.8871                 3.4071
 Frc consts  --      0.8157                 1.0245                 1.2641
 IR Inten    --      8.4771                24.9560                14.4253

                     34                     35                     36
                      A                      A                      A
 Frequencies --    798.0664               816.5214               855.7235
 Red. masses --      1.5236                 2.8359                 3.7038
 Frc consts  --      0.5717                 1.1140                 1.5980
 IR Inten    --      0.4309                 7.4982                10.7921

                     37                     38                     39
                      A                      A                      A
 Frequencies --    865.8897               884.1735               896.1029
 Red. masses --      1.2494                 2.7024                 2.0402
 Frc consts  --      0.5519                 1.2447                 0.9652
 IR Inten    --      0.8040                25.7438                33.7326

                     40                     41                     42
                      A                      A                      A
 Frequencies --    932.5247               942.8462               957.7911
 Red. masses --      1.4428                 1.5859                 1.5201
 Frc consts  --      0.7392                 0.8306                 0.8216
 IR Inten    --      8.4024                72.3438                 4.6790

                     43                     44                     45
                      A                      A                      A
 Frequencies --    976.7986               978.7864               999.7581
 Red. masses --      1.5001                 1.9844                 1.2874
 Frc consts  --      0.8433                 1.1201                 0.7581
 IR Inten    --      2.4786                 7.4638                 2.1322

                     46                     47                     48
                      A                      A                      A
 Frequencies --   1000.1921              1021.6181              1041.3373
 Red. masses --      2.0835                 6.0526                 1.9226
 Frc consts  --      1.2280                 3.7219                 1.2283
 IR Inten    --      6.5908                 1.4541                 2.5585

                     49                     50                     51
                      A                      A                      A
 Frequencies --   1047.9972              1060.5553              1064.8204
 Red. masses --      2.0003                 2.1973                 1.6286
 Frc consts  --      1.2944                 1.4561                 1.0879
 IR Inten    --      3.0028                 2.1110                 0.2169

                     52                     53                     54
                      A                      A                      A
 Frequencies --   1087.0849              1099.5628              1103.0459
 Red. masses --      2.0654                 2.1896                 1.5495
 Frc consts  --      1.4381                 1.5598                 1.1108
 IR Inten    --     13.9023                23.5093                 8.1036

                     55                     56                     57
                      A                      A                      A
 Frequencies --   1120.6540              1132.2014              1135.3969
 Red. masses --      1.8612                 1.8371                 1.8114
 Frc consts  --      1.3771                 1.3875                 1.3759
 IR Inten    --     12.5344                 5.1202                 1.7652

                     58                     59                     60
                      A                      A                      A
 Frequencies --   1165.2518              1194.7231              1197.3129
 Red. masses --      1.6655                 1.1527                 1.6489
 Frc consts  --      1.3324                 0.9694                 1.3927
 IR Inten    --      3.2236                 3.1458                20.6373

                     61                     62                     63
                      A                      A                      A
 Frequencies --   1209.7230              1219.8149              1229.0494
 Red. masses --      2.0457                 1.1435                 1.4876
 Frc consts  --      1.7639                 1.0025                 1.3240
 IR Inten    --      5.0299                 2.8526                16.4510

                     64                     65                     66
                      A                      A                      A
 Frequencies --   1242.1418              1262.9439              1285.2909
 Red. masses --      1.5772                 1.8429                 1.7608
 Frc consts  --      1.4338                 1.7319                 1.7138
 IR Inten    --     13.1277                18.8298                95.6359

                     67                     68                     69
                      A                      A                      A
 Frequencies --   1292.4739              1309.1343              1319.2100
 Red. masses --      1.5999                 1.3440                 1.5397
 Frc consts  --      1.5746                 1.3571                 1.5788
 IR Inten    --     11.1754                 4.1020                45.0140

                     70                     71                     72
                      A                      A                      A
 Frequencies --   1336.8844              1354.5785              1364.8558
 Red. masses --      2.2839                 1.3227                 1.7536
 Frc consts  --      2.4050                 1.4299                 1.9247
 IR Inten    --     16.3072                 6.6935                 1.2425

                     73                     74                     75
                      A                      A                      A
 Frequencies --   1371.9313              1375.9809              1392.3873
 Red. masses --      1.9734                 1.4371                 1.3652
 Frc consts  --      2.1884                 1.6031                 1.5594
 IR Inten    --      7.5718                33.2865                10.8715

                     76                     77                     78
                      A                      A                      A
 Frequencies --   1396.8543              1398.7232              1409.2167
 Red. masses --      1.3766                 1.4096                 1.4505
 Frc consts  --      1.5826                 1.6249                 1.6971
 IR Inten    --      3.6386                14.6227                 6.9956

                     79                     80                     81
                      A                      A                      A
 Frequencies --   1413.7226              1421.9915              1444.7127
 Red. masses --      1.5445                 1.5655                 1.5223
 Frc consts  --      1.8187                 1.8651                 1.8720
 IR Inten    --     49.9523                12.8879                 3.4738

                     82                     83                     84
                      A                      A                      A
 Frequencies --   1457.5124              1502.4154              1508.8638
 Red. masses --      2.1185                 2.1730                 1.0853
 Frc consts  --      2.6515                 2.8899                 1.4558
 IR Inten    --     89.1914                12.7277                 2.4790

                     85                     86                     87
                      A                      A                      A
 Frequencies --   1515.6930              1524.2605              1536.3824
 Red. masses --      1.0966                 1.0942                 1.0919
 Frc consts  --      1.4843                 1.4978                 1.5185
 IR Inten    --     18.8496                 3.9518                14.1243

                     88                     89                     90
                      A                      A                      A
 Frequencies --   1546.8509              1551.6822              1647.5662
 Red. masses --      1.7200                 1.2875                 5.4682
 Frc consts  --      2.4248                 1.8264                 8.7455
 IR Inten    --      5.3672                 9.1497                 0.2583

                     91                     92                     93
                      A                      A                      A
 Frequencies --   1666.5424              1699.7499              1821.6169
 Red. masses --      5.4676                 1.0885                 9.9508
 Frc consts  --      8.9471                 1.8530                19.4547
 IR Inten    --      2.1626                18.0955               395.4289

                     94                     95                     96
                      A                      A                      A
 Frequencies --   2996.3978              3008.4547              3009.4566
 Red. masses --      1.0835                 1.0737                 1.0836
 Frc consts  --      5.7318                 5.7257                 5.7821
 IR Inten    --     48.8405                64.6426                24.8269

                     97                     98                     99
                      A                      A                      A
 Frequencies --   3039.3111              3042.5250              3048.0338
 Red. masses --      1.0725                 1.0647                 1.0652
 Frc consts  --      5.8369                 5.8070                 5.8307
 IR Inten    --     23.7230                49.9694                 7.8287

                    100                    101                    102
                      A                      A                      A
 Frequencies --   3054.3130              3081.0021              3084.0161
 Red. masses --      1.0636                 1.0865                 1.1008
 Frc consts  --      5.8462                 6.0768                 6.1689
 IR Inten    --     56.2721                38.6494                33.8165

                    103                    104                    105
                      A                      A                      A
 Frequencies --   3092.1476              3098.6738              3160.0638
 Red. masses --      1.0969                 1.1002                 1.0906
 Frc consts  --      6.1794                 6.2238                 6.4168
 IR Inten    --     42.7917                74.2359                15.7933

                    106                    107                    108
                      A                      A                      A
 Frequencies --   3168.8915              3170.7362              3186.7519
 Red. masses --      1.0906                 1.0878                 1.0865
 Frc consts  --      6.4524                 6.4433                 6.5007
 IR Inten    --      2.4063                10.4246                 0.3323

                    109                    110                    111
                      A                      A                      A
 Frequencies --   3197.6768              3210.8860              3217.2959
 Red. masses --      1.0911                 1.0943                 1.0949
 Frc consts  --      6.5736                 6.6471                 6.6773
 IR Inten    --     19.2502                25.1148                 6.1815

                    112                    113                    114
                      A                      A                      A
 Frequencies --   3436.8834              3523.3475              3607.3002
 Red. masses --      1.0496                 1.0915                 1.0769
 Frc consts  --      7.3045                 7.9831                 8.2565
 IR Inten    --      3.9274                 0.6240                21.7742

 - Thermochemistry -
 -------------------
 Temperature   298.150 Kelvin.  Pressure   1.00000 Atm.
 Atom     1 has atomic number  6 and mass  12.00000

 Molecular mass:   259.16846 amu.
 Principal axes and moments of inertia in atomic units:
                           1         2         3
     Eigenvalues --  3629.430814812.624296421.52682
           X            0.99966   0.02602   0.00206
           Y           -0.02595   0.99931  -0.02672
           Z           -0.00276   0.02666   0.99964
 This molecule is an asymmetric top.
 Rotational symmetry number  1.
 Warning -- assumption of classical behavior for rotation
           may cause significant error
 Rotational temperatures (Kelvin)      0.02386     0.01800     0.01349
 Rotational constants (GHZ):           0.49725     0.37500     0.28105
 Zero-point vibrational energy     924144.2 (Joules/Mol)
                                  220.87576 (Kcal/Mol)
 Warning -- explicit consideration of  25 degrees of freedom as
           vibrations may cause significant error
 Vibrational temperatures:     34.83    54.02    96.22   115.24   134.77
          (Kelvin)            210.50   242.62   325.19   357.77   373.47
                              389.95   438.21   477.17   492.66   528.35
                              565.16   579.62   604.50   635.44   665.92
                              705.04   752.54   808.41   821.74   861.94
                              914.32   941.38  1030.75  1041.91  1092.95
                             1107.37  1116.58  1141.73  1148.24  1174.79
                             1231.20  1245.82  1272.13  1289.29  1341.70
                             1356.55  1378.05  1405.40  1408.26  1438.43
                             1439.05  1469.88  1498.25  1507.83  1525.90
                             1532.04  1564.07  1582.03  1587.04  1612.37
                             1628.99  1633.58  1676.54  1718.94  1722.67
                             1740.52  1755.04  1768.33  1787.16  1817.09
                             1849.25  1859.58  1883.55  1898.05  1923.48
                             1948.94  1963.72  1973.90  1979.73  2003.33
                             2009.76  2012.45  2027.55  2034.03  2045.93
                             2078.62  2097.04  2161.64  2170.92  2180.74
                             2193.07  2210.51  2225.57  2232.52  2370.48
                             2397.78  2445.56  2620.90  4311.15  4328.50
                             4329.94  4372.89  4377.51  4385.44  4394.48
                             4432.87  4437.21  4448.91  4458.30  4546.63
                             4559.33  4561.98  4585.03  4600.74  4619.75
                             4628.97  4944.91  5069.31  5190.10

 Zero-point correction=                           0.351988 (Hartree/Particle)
 Thermal correction to Energy=                    0.368114
 Thermal correction to Enthalpy=                  0.369058
 Thermal correction to Gibbs Free Energy=         0.307918
 Sum of electronic and zero-point Energies=           -823.480360
 Sum of electronic and thermal Energies=              -823.464234
 Sum of electronic and thermal Enthalpies=            -823.463290
 Sum of electronic and thermal Free Energies=         -823.524429

                     E (Thermal)             CV                S
                      KCal/Mol        Cal/Mol-Kelvin    Cal/Mol-Kelvin
 Total                  230.995             65.834            128.678
 Electronic               0.000              0.000              0.000
 Translational            0.889              2.981             42.557
 Rotational               0.889              2.981             33.083
 Vibrational            229.217             59.872             53.038
 Vibration     1          0.593              1.985              6.255
 Vibration     2          0.594              1.982              5.384
 Vibration     3          0.598              1.970              4.243
 Vibration     4          0.600              1.963              3.889
 Vibration     5          0.603              1.954              3.582
 Vibration     6          0.617              1.907              2.720
 Vibration     7          0.625              1.881              2.451
 Vibration     8          0.650              1.801              1.910
 Vibration     9          0.662              1.765              1.740
 Vibration    10          0.668              1.747              1.665
 Vibration    11          0.675              1.727              1.590
 Vibration    12          0.695              1.665              1.392
 Vibration    13          0.714              1.612              1.252
 Vibration    14          0.722              1.591              1.201
 Vibration    15          0.740              1.540              1.091
 Vibration    16          0.760              1.486              0.989
 Vibration    17          0.768              1.464              0.952
 Vibration    18          0.783              1.426              0.891
 Vibration    19          0.801              1.379              0.821
 Vibration    20          0.820              1.332              0.758
 Vibration    21          0.846              1.272              0.684
 Vibration    22          0.878              1.199              0.603
 Vibration    23          0.918              1.114              0.520
 Vibration    24          0.927              1.094              0.502
 Vibration    25          0.957              1.034              0.451

 Optimization completed.
    -- Stationary point found.
 Normal termination of Gaussian 16 at Sat Dec 12 10:33:34 2020.

 ----------------------------------------------------------------------
 # B3LYP/6-311++G(d,p) empiricaldispersion=gd3bj scf=xqc pop=npa geom=c
 heck
 ----------------------------------------------------------------------

 ---------------------------------------
 CID_116979311_JID_9838_Energie_neutraal
 ---------------------------------------
 Structure from the checkpoint file:  "JID_9838.chk"
 Charge =  0 Multiplicity = 1

 SCF Done:  E(RB3LYP) =  -824.063067889     A.U. after   15 cycles
 Normal termination of Gaussian 16 at Sat Dec 12 10:42:16 2020.

 ----------------------------------------------------------------------
 # B3LYP/6-311++G(d,p) empiricaldispersion=gd3bj scf=xqc pop=npa geom=c
 heck
 ----------------------------------------------------------------------

 -------------------------------------
 CID_116979311_JID_9838_Energie_kation
 -------------------------------------
 Structure from the checkpoint file:  "JID_9838.chk"
 Charge =  1 Multiplicity = 2

 SCF Done:  E(UB3LYP) =  -823.763795141     A.U. after   30 cycles
 Normal termination of Gaussian 16 at Sat Dec 12 11:05:38 2020.
 Gaussian 16:  ES64L-G16RevA.03 25-Dec-2016

 ----------------------------------------------------------------------
 # B3LYP/6-311++G(d,p) empiricaldispersion=gd3bj scf=xqc pop=npa geom=c
 heck
 ----------------------------------------------------------------------

 ------------------------------------
 CID_116979311_JID_9838_Energie_anion
 ------------------------------------
 Structure from the checkpoint file:  "JID_9838.chk"
 Charge = -1 Multiplicity = 2

                         Standard orientation:
 ---------------------------------------------------------------------
 Center     Atomic      Atomic             Coordinates (Angstroms)
 Number     Number       Type             X           Y           Z
 ---------------------------------------------------------------------
      1          6           0        1.143639    1.636299    1.289055
      2          6           0        2.102516    0.528872    1.747726
      3          6           0        2.322999   -0.537764    0.660062
      4          6           0        2.876314    0.165587   -0.593754
      5          6           0        1.921967    1.258208   -1.089846
      6          6           0        1.606789    2.307928   -0.009319
      7          7           0        0.603535    3.306195   -0.403268
      8          7           0        1.059535   -1.234356    0.379183
      9          6           0        0.083185   -1.558794    1.412897
     10          6           0       -1.121181   -2.015634    0.558490
     11          7           0       -0.399976   -2.673272   -0.520514
     12          6           0        0.825013   -2.026768   -0.732196
     13          8           0        1.513485   -2.157466   -1.732878
     14          6           0       -1.965017   -0.819233    0.136554
     15          6           0       -2.925217   -0.317170    1.022809
     16          6           0       -3.640914    0.839931    0.720424
     17          6           0       -3.407335    1.511557   -0.481392
     18          6           0       -2.462785    1.010286   -1.377516
     19          6           0       -1.746946   -0.149043   -1.071065
     20          1           0        1.036851    2.398524    2.068373
     21          1           0        0.142295    1.218733    1.118374
     22          1           0        1.754272    0.076355    2.683501
     23          1           0        3.084907    0.963292    1.972032
     24          1           0        3.065674   -1.267283    1.019064
     25          1           0        3.068091   -0.561855   -1.381194
     26          1           0        3.837632    0.613577   -0.306720
     27          1           0        0.982672    0.796723   -1.417181
     28          1           0        2.351667    1.755784   -1.969541
     29          1           0        2.534334    2.858810    0.209127
     30          1           0        0.891188    3.744482   -1.278539
     31          1           0       -0.271027    2.820485   -0.611176
     32          1           0       -0.171246   -0.697885    2.029334
     33          1           0        0.434272   -2.374970    2.063104
     34          1           0       -1.737201   -2.729237    1.114955
     35          1           0       -0.889129   -2.943228   -1.364586
     36          1           0       -3.106368   -0.833965    1.963191
     37          1           0       -4.380650    1.217103    1.420807
     38          1           0       -3.961825    2.414623   -0.719063
     39          1           0       -2.281583    1.518821   -2.320556
     40          1           0       -1.012534   -0.524705   -1.775665
 ---------------------------------------------------------------------

 SCF Done:  E(UB3LYP) =  -824.053423368     A.U. after   33 cycles
 SCF Done:  E(UB3LYP) =  -824.053423368     a.u. after    1 cycles

 The electronic state is 2-A.
 Alpha  occ. eigenvalues --  -18.99274 -14.24369 -14.23625 -14.20096 -10.19858
 Alpha  occ. eigenvalues --  -10.12850 -10.12268 -10.11668 -10.10511 -10.09045
 Alpha  occ. eigenvalues --  -10.08697 -10.08426 -10.08405 -10.08303 -10.08249
 Alpha  occ. eigenvalues --  -10.08087 -10.07211 -10.07164 -10.07050  -0.96017
 Alpha  occ. eigenvalues --   -0.87844  -0.81411  -0.79796  -0.76725  -0.72104
 Alpha  occ. eigenvalues --   -0.68520  -0.65796  -0.65671  -0.64136  -0.62470
 Alpha  occ. eigenvalues --   -0.55398  -0.54012  -0.52357  -0.51861  -0.49959
 Alpha  occ. eigenvalues --   -0.49398  -0.44670  -0.43995  -0.42186  -0.40594
 Alpha  occ. eigenvalues --   -0.39767  -0.38820  -0.38152  -0.37131  -0.36189
 Alpha  occ. eigenvalues --   -0.35399  -0.34960  -0.33576  -0.33408  -0.32705
 Alpha  occ. eigenvalues --   -0.31681  -0.31326  -0.30215  -0.29643  -0.29542
 Alpha  occ. eigenvalues --   -0.29068  -0.27961  -0.27112  -0.26131  -0.25645
 Alpha  occ. eigenvalues --   -0.25300  -0.24172  -0.23363  -0.21966  -0.18191
 Alpha  occ. eigenvalues --   -0.16903  -0.16890  -0.15955  -0.15174  -0.14801
 Alpha  occ. eigenvalues --    0.03998
 Alpha virt. eigenvalues --    0.05988   0.06068   0.06969   0.07193   0.07463
 Alpha virt. eigenvalues --    0.07798   0.08198   0.08696   0.09076   0.09604
 Alpha virt. eigenvalues --    0.10169   0.10890   0.11259   0.11584   0.12265

  Beta  occ. eigenvalues --  -18.99269 -14.24370 -14.23618 -14.20087 -10.19856
  Beta  occ. eigenvalues --  -10.12838 -10.12262 -10.11632 -10.10508 -10.08999
  Beta  occ. eigenvalues --  -10.08695 -10.08410 -10.08383 -10.08260 -10.08230
  Beta  occ. eigenvalues --  -10.08072 -10.07208 -10.07158 -10.07047  -0.96008
  Beta  occ. eigenvalues --   -0.87831  -0.81396  -0.79781  -0.76663  -0.72087
  Beta  occ. eigenvalues --   -0.68446  -0.65745  -0.65646  -0.64099  -0.62425
  Beta  occ. eigenvalues --   -0.55344  -0.53997  -0.52324  -0.51816  -0.49893
  Beta  occ. eigenvalues --   -0.49371  -0.44651  -0.43948  -0.42134  -0.40558
  Beta  occ. eigenvalues --   -0.39747  -0.38771  -0.38110  -0.37098  -0.36149
  Beta  occ. eigenvalues --   -0.35365  -0.34945  -0.33548  -0.33369  -0.32686
  Beta  occ. eigenvalues --   -0.31646  -0.31285  -0.30184  -0.29619  -0.29496
  Beta  occ. eigenvalues --   -0.29042  -0.27918  -0.27042  -0.26092  -0.25612
  Beta  occ. eigenvalues --   -0.25270  -0.24146  -0.23348  -0.21949  -0.18163
  Beta  occ. eigenvalues --   -0.16863  -0.16812  -0.15782  -0.15156  -0.14775
  Beta virt. eigenvalues --    0.05933   0.06583   0.06840   0.07154   0.07509
  Beta virt. eigenvalues --    0.07914   0.08261   0.08640   0.08910   0.09476
  Beta virt. eigenvalues --    0.10085   0.10468   0.11081   0.11426   0.11963

 Mulliken charges and spin densities:
               1          2
     1  C    0.004039  -0.081322
     2  C   -0.321993  -0.508660
     3  C    0.248522   0.318206
     4  C   -0.328070  -0.466116
     5  C   -0.483270   0.395272
     6  C    0.014482  -0.513207
     7  N   -0.393340   0.045428
     8  N   -0.001590   0.018750
     9  C    0.452075  -0.807792
    10  C    2.395591  -2.485453
    11  N   -0.200606   0.055796
    12  C    0.018402  -0.177612
    13  O   -0.340582   0.007932
    14  C   -0.706904   0.947083
    15  C   -0.674464   0.284991
    16  C    0.700209  -0.991049
    17  C    0.822626  -1.142641
    18  C   -0.803467   0.462934
    19  C   -0.459892   0.617718
    20  H    0.043275   0.165644
    21  H    0.419973  -0.247780
    22  H   -0.311329   0.499759
    23  H   -0.008113   0.153663
    24  H   -0.020801   0.253437
    25  H    0.259444  -0.037156
    26  H    0.019769   0.104279
    27  H    0.073961   0.042923
    28  H    0.059071   0.112615
    29  H    0.106850   0.055763
    30  H    0.119190   0.097826
    31  H    0.300360  -0.020282
    32  H    0.232495  -0.110852
    33  H   -0.487551   0.701289
    34  H   -0.436095   0.723090
    35  H    0.189499   0.113631
    36  H   -0.872751   1.052185
    37  H   -0.487877   0.672948
    38  H   -0.141469   0.299588
    39  H   -0.198478   0.374549
    40  H    0.198810   0.012623
 Sum of Mulliken charges =  -1.00000   1.00000

 Dipole moment (field-independent basis, Debye):
    X=              3.8885    Y=              2.3183    Z=             -4.2773  Tot=              6.2282
 Quadrupole moment (field-independent basis, Debye-Ang):
   XX=           -177.6235   YY=           -172.5665   ZZ=           -164.5392
   XY=              4.4843   XZ=             10.7436   YZ=              4.7145

 Summary of Natural Population Analysis:

                                       Natural Population
                Natural  -----------------------------------------------
    Atom  No    Charge         Core      Valence    Rydberg      Total
 -----------------------------------------------------------------------
      C    1   -0.19713      0.99960     2.18813    0.00940     3.19713
      C    2   -0.19450      0.99961     2.18567    0.00922     3.19450
      C    3    0.00481      0.99958     1.98274    0.01287     2.99519
      C    4   -0.19708      0.99961     2.18961    0.00787     3.19708
      C    5   -0.20036      0.99960     2.19150    0.00926     3.20036
      C    6   -0.00973      0.99959     1.99934    0.01081     3.00973
      N    7   -0.42041      0.99977     2.91061    0.01003     3.92041
      N    8   -0.27861      0.99962     2.76725    0.01173     3.77861
      C    9   -0.07314      0.99960     2.06211    0.01143     3.07314
      C   10   -0.01876      0.99955     2.00360    0.01561     3.01876
      N   11   -0.33059      0.99969     2.82195    0.00896     3.83059
      C   12    0.41173      0.99967     1.56322    0.02538     2.58827
      O   13   -0.33584      0.99987     3.33136    0.00461     4.33584
      C   14   -0.01886      0.99948     2.00717    0.01220     3.01886
      C   15   -0.09728      0.99950     2.08725    0.01054     3.09728
      C   16   -0.09447      0.99956     2.08476    0.01015     3.09447
      C   17   -0.09810      0.99956     2.08869    0.00986     3.09810
      C   18   -0.10644      0.99956     2.09636    0.01053     3.10644
      C   19   -0.10541      0.99950     2.09640    0.00951     3.10541
      H   20    0.10447      0.00000     0.39452    0.00101     0.39553
      H   21    0.09977      0.00000     0.39772    0.00251     0.40023
      H   22    0.10420      0.00000     0.39476    0.00103     0.39580
      H   23    0.09995      0.00000     0.39892    0.00114     0.40005
      H   24    0.09518      0.00000     0.40385    0.00097     0.40482
      H   25    0.12038      0.00000     0.37862    0.00100     0.37962
      H   26    0.09335      0.00000     0.40562    0.00103     0.40665
      H   27    0.10107      0.00000     0.39707    0.00186     0.39893
      H   28    0.09559      0.00000     0.40344    0.00097     0.40441
      H   29    0.08325      0.00000     0.41517    0.00158     0.41675
      H   30    0.17012      0.00000     0.32841    0.00146     0.32988
      H   31    0.17555      0.00000     0.32234    0.00211     0.32445
      H   32    0.10360      0.00000     0.39441    0.00198     0.39640
      H   33    0.09700      0.00000     0.40037    0.00263     0.40300
      H   34    0.10800      0.00000     0.38880    0.00319     0.39200
      H   35    0.19402      0.00000     0.30382    0.00216     0.30598
      H   36    0.10567      0.00000     0.39170    0.00263     0.39433
      H   37    0.10303      0.00000     0.39565    0.00132     0.39697
      H   38    0.10098      0.00000     0.39807    0.00095     0.39902
      H   39    0.10046      0.00000     0.39854    0.00101     0.39954
      H   40    0.10454      0.00000     0.39377    0.00169     0.39546
 =======================================================================
   * Total *   -0.00000     18.99251    50.76330    0.24419    70.00000

 Normal termination of Gaussian 16 at Sat Dec 12 11:32:07 2020.
