 Gaussian 16, Revision A.03,

 -----------------------------------------------------------
 # opt freq B3LYP/6-31G(d) empiricaldispersion=gd3bj scf=xqc
 -----------------------------------------------------------

 --------------------------------
 CID_105847086_JID_10963_neutraal
 --------------------------------
 Symbolic Z-matrix:
 Charge =  0 Multiplicity = 1

 SCF Done:  E(RB3LYP) =  -863.085729323     A.U. after   15 cycles
 SCF Done:  E(RB3LYP) =  -863.098660151     A.U. after   12 cycles
 SCF Done:  E(RB3LYP) =  -863.099736198     A.U. after   14 cycles
 SCF Done:  E(RB3LYP) =  -863.103513673     A.U. after   12 cycles
 SCF Done:  E(RB3LYP) =  -863.105522320     A.U. after   12 cycles
 SCF Done:  E(RB3LYP) =  -863.107577467     A.U. after   12 cycles
 SCF Done:  E(RB3LYP) =  -863.108359483     A.U. after   12 cycles
 SCF Done:  E(RB3LYP) =  -863.109896637     A.U. after   13 cycles
 SCF Done:  E(RB3LYP) =  -863.105941398     A.U. after   14 cycles
 SCF Done:  E(RB3LYP) =  -863.110839548     A.U. after   12 cycles
 SCF Done:  E(RB3LYP) =  -863.111650150     A.U. after    9 cycles
 SCF Done:  E(RB3LYP) =  -863.111650271     A.U. after    8 cycles
 SCF Done:  E(RB3LYP) =  -863.111650287     A.U. after    6 cycles
 SCF Done:  E(RB3LYP) =  -863.111650300     A.U. after    6 cycles
 SCF Done:  E(RB3LYP) =  -863.111650306     A.U. after    6 cycles
 Optimization completed on the basis of negligible forces.
    -- Stationary point found.
 Normal termination of Gaussian 16 at Sun Dec 13 14:03:48 2020.

 --------------------------------------------------------------------
 #N Geom=AllCheck Guess=TCheck SCRF=Check GenChk RB3LYP/6-31G(d) Freq
 --------------------------------------------------------------------

 Structure from the checkpoint file:  "JID_10963.chk"
 --------------------------------
 CID_105847086_JID_10963_neutraal
 --------------------------------
 Charge =  0 Multiplicity = 1

 SCF Done:  E(RB3LYP) =  -863.111650306     A.U. after    1 cycles

  Exact polarizability: 208.051  -3.465 236.990   3.036  -5.883 119.180
 Approx polarizability: 304.962  -3.763 353.344   5.971 -14.609 181.303

                      1                      2                      3
                      A                      A                      A
 Frequencies --      6.1004                40.3974                53.7418
 Red. masses --      1.1947                 3.7413                 2.8223
 Frc consts  --      0.0000                 0.0036                 0.0048
 IR Inten    --      0.2098                 0.2693                 0.5732

                      4                      5                      6
                      A                      A                      A
 Frequencies --     68.1817                79.9664               105.2281
 Red. masses --      3.2166                 2.3411                 3.2807
 Frc consts  --      0.0088                 0.0088                 0.0214
 IR Inten    --      0.1201                 0.0715                 1.1187

                      7                      8                      9
                      A                      A                      A
 Frequencies --    106.6243               132.5423               150.2890
 Red. masses --      2.5432                 3.0008                 3.4108
 Frc consts  --      0.0170                 0.0311                 0.0454
 IR Inten    --      3.9815                 0.5778                 1.2163

                     10                     11                     12
                      A                      A                      A
 Frequencies --    190.7653               205.0993               208.0629
 Red. masses --      1.8713                 2.1895                 2.5533
 Frc consts  --      0.0401                 0.0543                 0.0651
 IR Inten    --      0.8727                 1.7515                 1.3555

                     13                     14                     15
                      A                      A                      A
 Frequencies --    219.2565               255.3490               260.6952
 Red. masses --      2.1783                 1.4007                 1.6855
 Frc consts  --      0.0617                 0.0538                 0.0675
 IR Inten    --      1.1245                 0.1123                 0.7819

                     16                     17                     18
                      A                      A                      A
 Frequencies --    280.9573               289.8680               301.7290
 Red. masses --      1.9007                 2.4786                 2.1635
 Frc consts  --      0.0884                 0.1227                 0.1160
 IR Inten    --      0.5478                 3.3941                13.0530

                     19                     20                     21
                      A                      A                      A
 Frequencies --    316.5839               325.8464               341.8109
 Red. masses --      1.3792                 2.7973                 2.2748
 Frc consts  --      0.0814                 0.1750                 0.1566
 IR Inten    --     37.7904                 9.4121                 7.1425

                     22                     23                     24
                      A                      A                      A
 Frequencies --    367.4145               377.0493               411.7866
 Red. masses --      3.1802                 4.5271                 3.4410
 Frc consts  --      0.2529                 0.3792                 0.3438
 IR Inten    --      1.4439                 6.5237                 4.0671

                     25                     26                     27
                      A                      A                      A
 Frequencies --    424.2266               451.6899               458.9866
 Red. masses --      3.0909                 4.1344                 4.1265
 Frc consts  --      0.3277                 0.4970                 0.5122
 IR Inten    --      1.4480                 3.4741                 0.7112

                     28                     29                     30
                      A                      A                      A
 Frequencies --    512.8429               534.8138               564.5549
 Red. masses --      2.8985                 2.5765                 4.1102
 Frc consts  --      0.4491                 0.4342                 0.7718
 IR Inten    --      6.5610                 0.8393                 2.6096

                     31                     32                     33
                      A                      A                      A
 Frequencies --    612.2636               619.4445               634.9370
 Red. masses --      3.7587                 4.3908                 2.7683
 Frc consts  --      0.8302                 0.9926                 0.6575
 IR Inten    --      3.1963                13.3179                 3.1370

                     34                     35                     36
                      A                      A                      A
 Frequencies --    662.4648               679.7983               731.5471
 Red. masses --      4.2267                 3.7215                 5.3586
 Frc consts  --      1.0929                 1.0133                 1.6896
 IR Inten    --     37.3829                34.2596                 7.0412

                     37                     38                     39
                      A                      A                      A
 Frequencies --    761.4581               800.8621               815.0366
 Red. masses --      4.8889                 2.7390                 1.9357
 Frc consts  --      1.6701                 1.0351                 0.7576
 IR Inten    --      0.5386                72.1386               169.8115

                     40                     41                     42
                      A                      A                      A
 Frequencies --    829.0013               832.2748               841.4587
 Red. masses --      1.4719                 1.1024                 2.6627
 Frc consts  --      0.5960                 0.4499                 1.1108
 IR Inten    --     19.9488                 0.7152                 1.8765

                     43                     44                     45
                      A                      A                      A
 Frequencies --    883.1966               898.2127               909.2295
 Red. masses --      3.5835                 2.5384                 3.0179
 Frc consts  --      1.6469                 1.2066                 1.4699
 IR Inten    --      8.6292                 4.6158                 5.3801

                     46                     47                     48
                      A                      A                      A
 Frequencies --    921.5253               937.8903               946.0464
 Red. masses --      1.2971                 2.3455                 1.2766
 Frc consts  --      0.6490                 1.2156                 0.6732
 IR Inten    --      9.5287                 7.0584                 0.4948

                     49                     50                     51
                      A                      A                      A
 Frequencies --    965.6136               972.2597               993.8788
 Red. masses --      2.2262                 1.4402                 1.8348
 Frc consts  --      1.2230                 0.8021                 1.0678
 IR Inten    --      0.7952                 1.8046                 2.9639

                     52                     53                     54
                      A                      A                      A
 Frequencies --   1004.4981              1033.3899              1040.5196
 Red. masses --      2.2424                 1.4022                 1.8076
 Frc consts  --      1.3331                 0.8823                 1.1531
 IR Inten    --      5.1897                 0.1651                 3.5824

                     55                     56                     57
                      A                      A                      A
 Frequencies --   1058.8254              1073.1630              1078.4223
 Red. masses --      3.0188                 1.5046                 2.9805
 Frc consts  --      1.9940                 1.0209                 2.0423
 IR Inten    --      8.1136                 9.3747                29.1721

                     58                     59                     60
                      A                      A                      A
 Frequencies --   1128.6116              1135.7444              1155.2994
 Red. masses --      3.1313                 2.4047                 1.6682
 Frc consts  --      2.3499                 1.8276                 1.3119
 IR Inten    --     28.7754                27.8963                 9.6112

                     61                     62                     63
                      A                      A                      A
 Frequencies --   1159.3949              1164.5444              1196.3200
 Red. masses --      1.8920                 1.5746                 1.7609
 Frc consts  --      1.4984                 1.2581                 1.4849
 IR Inten    --     39.3066                64.5178                36.3760

                     64                     65                     66
                      A                      A                      A
 Frequencies --   1205.3232              1210.8557              1219.2047
 Red. masses --      1.8205                 1.9421                 2.2507
 Frc consts  --      1.5583                 1.6777                 1.9712
 IR Inten    --     35.3599                 4.5648                 9.1407

                     67                     68                     69
                      A                      A                      A
 Frequencies --   1241.1238              1255.0294              1283.5972
 Red. masses --      2.1996                 1.5198                 2.3231
 Frc consts  --      1.9963                 1.4104                 2.2552
 IR Inten    --      9.5106                 8.1744                 1.1053

                     70                     71                     72
                      A                      A                      A
 Frequencies --   1291.1381              1295.6717              1314.0771
 Red. masses --      4.9108                 1.7965                 1.1057
 Frc consts  --      4.8233                 1.7769                 1.1249
 IR Inten    --     37.8156                 1.2280                 0.4276

                     73                     74                     75
                      A                      A                      A
 Frequencies --   1327.6164              1331.2631              1357.7381
 Red. masses --      1.6757                 1.4952                 5.0407
 Frc consts  --      1.7401                 1.5612                 5.4749
 IR Inten    --      2.9030                13.6146                47.8609

                     76                     77                     78
                      A                      A                      A
 Frequencies --   1383.0607              1391.3815              1428.4557
 Red. masses --      3.7620                 1.3632                 1.2404
 Frc consts  --      4.2399                 1.5550                 1.4912
 IR Inten    --     13.3646                49.9061                 4.8246

                     79                     80                     81
                      A                      A                      A
 Frequencies --   1430.9051              1436.6883              1440.8132
 Red. masses --      1.2671                 1.4308                 1.2510
 Frc consts  --      1.5285                 1.7400                 1.5301
 IR Inten    --      0.9557                 1.2597                 2.9936

                     82                     83                     84
                      A                      A                      A
 Frequencies --   1451.1863              1462.6725              1478.7814
 Red. masses --      1.2949                 1.4215                 4.1720
 Frc consts  --      1.6067                 1.7918                 5.3753
 IR Inten    --     24.1198                 5.4922               178.1771

                     85                     86                     87
                      A                      A                      A
 Frequencies --   1496.0397              1505.1784              1511.9786
 Red. masses --      2.2431                 1.2167                 1.0576
 Frc consts  --      2.9579                 1.6240                 1.4246
 IR Inten    --     28.9935                12.2941                 0.8726

                     88                     89                     90
                      A                      A                      A
 Frequencies --   1512.4439              1516.5097              1517.2913
 Red. masses --      1.0436                 1.0798                 1.0548
 Frc consts  --      1.4065                 1.4632                 1.4307
 IR Inten    --      0.9223                13.0918                 0.6526

                     91                     92                     93
                      A                      A                      A
 Frequencies --   1522.2596              1529.7789              1530.5322
 Red. masses --      1.3069                 1.0646                 1.0616
 Frc consts  --      1.7843                 1.4679                 1.4652
 IR Inten    --     30.0218                 2.4098                 6.7975

                     94                     95                     96
                      A                      A                      A
 Frequencies --   1539.0367              1540.6621              1557.2962
 Red. masses --      1.0612                 2.1344                 1.0890
 Frc consts  --      1.4809                 2.9850                 1.5561
 IR Inten    --     15.8425                26.2947                 1.9564

                     97                     98                     99
                      A                      A                      A
 Frequencies --   1595.3361              1638.3108              1672.6628
 Red. masses --      3.6744                 4.5291                 2.5163
 Frc consts  --      5.5099                 7.1623                 4.1479
 IR Inten    --    136.0738                 5.1330                30.7214

                    100                    101                    102
                      A                      A                      A
 Frequencies --   1697.9016              2987.2911              3001.0357
 Red. masses --      2.2827                 1.0595                 1.0832
 Frc consts  --      3.8773                 5.5709                 5.7478
 IR Inten    --    152.0350                34.4016                90.2687

                    103                    104                    105
                      A                      A                      A
 Frequencies --   3020.0610              3033.4573              3036.4657
 Red. masses --      1.1043                 1.0358                 1.0398
 Frc consts  --      5.9345                 5.6154                 5.6485
 IR Inten    --     42.3876                33.2871                45.9835

                    106                    107                    108
                      A                      A                      A
 Frequencies --   3057.1487              3062.0335              3090.1554
 Red. masses --      1.0419                 1.0351                 1.0969
 Frc consts  --      5.7371                 5.7183                 6.1714
 IR Inten    --     26.3626                16.5404                23.4982

                    109                    110                    111
                      A                      A                      A
 Frequencies --   3095.1663              3096.6305              3107.1485
 Red. masses --      1.0771                 1.0905                 1.1001
 Frc consts  --      6.0796                 6.1609                 6.2578
 IR Inten    --      2.0553                50.6532                11.2973

                    112                    113                    114
                      A                      A                      A
 Frequencies --   3113.7368              3117.5027              3117.8428
 Red. masses --      1.0866                 1.1009                 1.1013
 Frc consts  --      6.2070                 6.3041                 6.3074
 IR Inten    --     18.8105                16.6734                56.2216

                    115                    116                    117
                      A                      A                      A
 Frequencies --   3133.5150              3138.1040              3162.0859
 Red. masses --      1.1023                 1.1034                 1.1024
 Frc consts  --      6.3771                 6.4022                 6.4945
 IR Inten    --     28.7536                27.5729                 8.8606

                    118                    119                    120
                      A                      A                      A
 Frequencies --   3177.8012              3178.2743              3211.4372
 Red. masses --      1.0883                 1.0960                 1.0933
 Frc consts  --      6.4753                 6.5229                 6.6433
 IR Inten    --     18.9624                 8.4595                18.3917

                    121                    122                    123
                      A                      A                      A
 Frequencies --   3221.5196              3519.7750              3620.7094
 Red. masses --      1.0910                 1.0496                 1.0947
 Frc consts  --      6.6710                 7.6617                 8.4553
 IR Inten    --      2.6710                11.9940                25.3238

 - Thermochemistry -
 -------------------
 Temperature   298.150 Kelvin.  Pressure   1.00000 Atm.
 Atom     1 has atomic number  6 and mass  12.00000

 Molecular mass:   273.18411 amu.
 Principal axes and moments of inertia in atomic units:
                           1         2         3
     Eigenvalues --  4448.419275437.679538934.52621
           X            0.99996   0.00874   0.00306
           Y           -0.00875   0.99995   0.00509
           Z           -0.00302  -0.00512   0.99998
 This molecule is an asymmetric top.
 Rotational symmetry number  1.
 Warning -- assumption of classical behavior for rotation
           may cause significant error
 Rotational temperatures (Kelvin)      0.01947     0.01593     0.00969
 Rotational constants (GHZ):           0.40570     0.33190     0.20200
 Zero-point vibrational energy     980568.7 (Joules/Mol)
                                  234.36155 (Kcal/Mol)
 Warning -- explicit consideration of  32 degrees of freedom as
           vibrations may cause significant error
 Vibrational temperatures:      8.78    58.12    77.32    98.10   115.05
          (Kelvin)            151.40   153.41   190.70   216.23   274.47
                              295.09   299.36   315.46   367.39   375.08
                              404.23   417.06   434.12   455.49   468.82
                              491.79   528.63   542.49   592.47   610.37
                              649.88   660.38   737.87   769.48   812.27
                              880.91   891.24   913.53   953.14   978.08
                             1052.53  1095.57  1152.26  1172.66  1192.75
                             1197.46  1210.67  1270.72  1292.33  1308.18
                             1325.87  1349.41  1361.15  1389.30  1398.86
                             1429.97  1445.25  1486.82  1497.08  1523.41
                             1544.04  1551.61  1623.82  1634.08  1662.22
                             1668.11  1675.52  1721.24  1734.19  1742.15
                             1754.16  1785.70  1805.71  1846.81  1857.66
                             1864.18  1890.66  1910.14  1915.39  1953.48
                             1989.92  2001.89  2055.23  2058.75  2067.07
                             2073.01  2087.93  2104.46  2127.64  2152.47
                             2165.62  2175.40  2176.07  2181.92  2183.04
                             2190.19  2201.01  2202.09  2214.33  2216.67
                             2240.60  2295.33  2357.16  2406.59  2442.90
                             4298.05  4317.82  4345.19  4364.47  4368.80
                             4398.56  4405.58  4446.04  4453.25  4455.36
                             4470.49  4479.97  4485.39  4485.88  4508.43
                             4515.03  4549.54  4572.15  4572.83  4620.54
                             4635.05  5064.17  5209.39

 Zero-point correction=                           0.373479 (Hartree/Particle)
 Thermal correction to Energy=                    0.393493
 Thermal correction to Enthalpy=                  0.394437
 Thermal correction to Gibbs Free Energy=         0.323766
 Sum of electronic and zero-point Energies=           -862.738171
 Sum of electronic and thermal Energies=              -862.718157
 Sum of electronic and thermal Enthalpies=            -862.717213
 Sum of electronic and thermal Free Energies=         -862.787885

                     E (Thermal)             CV                S
                      KCal/Mol        Cal/Mol-Kelvin    Cal/Mol-Kelvin
 Total                  246.921             76.962            148.740
 Electronic               0.000              0.000              0.000
 Translational            0.889              2.981             42.714
 Rotational               0.889              2.981             33.735
 Vibrational            245.143             71.001             72.292
 Vibration     1          0.593              1.987              8.993
 Vibration     2          0.594              1.981              5.240
 Vibration     3          0.596              1.976              4.675
 Vibration     4          0.598              1.969              4.205
 Vibration     5          0.600              1.963              3.892
 Vibration     6          0.605              1.945              3.355
 Vibration     7          0.605              1.944              3.329
 Vibration     8          0.613              1.921              2.909
 Vibration     9          0.618              1.902              2.669
 Vibration    10          0.634              1.853              2.220
 Vibration    11          0.640              1.833              2.087
 Vibration    12          0.641              1.828              2.061
 Vibration    13          0.647              1.812              1.965
 Vibration    14          0.666              1.754              1.693
 Vibration    15          0.669              1.745              1.657
 Vibration    16          0.681              1.709              1.528
 Vibration    17          0.686              1.693              1.475
 Vibration    18          0.694              1.670              1.407
 Vibration    19          0.703              1.642              1.328
 Vibration    20          0.710              1.624              1.281
 Vibration    21          0.721              1.592              1.204
 Vibration    22          0.740              1.539              1.091
 Vibration    23          0.748              1.519              1.051
 Vibration    24          0.776              1.445              0.920
 Vibration    25          0.786              1.418              0.878
 Vibration    26          0.810              1.357              0.791
 Vibration    27          0.817              1.341              0.769
 Vibration    28          0.868              1.222              0.627
 Vibration    29          0.890              1.173              0.577
 Vibration    30          0.920              1.108              0.515
 Vibration    31          0.971              1.006              0.429
 Vibration    32          0.979              0.991              0.417

 Optimization completed on the basis of negligible forces.
    -- Stationary point found.
 Normal termination of Gaussian 16 at Sun Dec 13 14:29:19 2020.

 ----------------------------------------------------------------------
 # B3LYP/6-311++G(d,p) empiricaldispersion=gd3bj scf=xqc pop=npa geom=c
 heck
 ----------------------------------------------------------------------

 ----------------------------------------
 CID_105847086_JID_10963_Energie_neutraal
 ----------------------------------------
 Structure from the checkpoint file:  "JID_10963.chk"
 Charge =  0 Multiplicity = 1

 SCF Done:  E(RB3LYP) =  -863.344690711     A.U. after   15 cycles
 Normal termination of Gaussian 16 at Sun Dec 13 14:41:04 2020.

 ----------------------------------------------------------------------
 # B3LYP/6-311++G(d,p) empiricaldispersion=gd3bj scf=xqc pop=npa geom=c
 heck
 ----------------------------------------------------------------------

 --------------------------------------
 CID_105847086_JID_10963_Energie_kation
 --------------------------------------
 Structure from the checkpoint file:  "JID_10963.chk"
 Charge =  1 Multiplicity = 2

 SCF Done:  E(UB3LYP) =  -863.079701370     A.U. after   25 cycles
 Normal termination of Gaussian 16 at Sun Dec 13 15:09:00 2020.
 Gaussian 16:  ES64L-G16RevA.03 25-Dec-2016

 ----------------------------------------------------------------------
 # B3LYP/6-311++G(d,p) empiricaldispersion=gd3bj scf=xqc pop=npa geom=c
 heck
 ----------------------------------------------------------------------

 -------------------------------------
 CID_105847086_JID_10963_Energie_anion
 -------------------------------------
 Structure from the checkpoint file:  "JID_10963.chk"
 Charge = -1 Multiplicity = 2

                         Standard orientation:
 ---------------------------------------------------------------------
 Center     Atomic      Atomic             Coordinates (Angstroms)
 Number     Number       Type             X           Y           Z
 ---------------------------------------------------------------------
      1          6           0        3.664393    2.562169   -0.014715
      2          6           0        3.411465    1.246347    0.699199
      3          8           0        2.621573    0.425994   -0.150689
      4          6           0        2.344721   -0.844907    0.395068
      5          6           0        1.256849   -0.874062    1.505285
      6          6           0        0.320436   -1.686018    0.572410
      7          6           0        1.437486   -1.709050   -0.538409
      8          6           0        1.999522   -3.118520   -0.732766
      9          6           0        1.067297   -1.085204   -1.878909
     10          7           0       -0.973242   -1.112505    0.258395
     11          6           0       -1.346381    0.231424    0.113442
     12          6           0       -2.759831    0.210952    0.037370
     13          6           0       -3.459198    1.411000   -0.106331
     14          6           0       -2.732470    2.596403   -0.176830
     15          6           0       -1.324225    2.614193   -0.124404
     16          6           0       -0.615935    1.415934    0.018613
     17          6           0       -0.578627    3.921769   -0.256200
     18          7           0       -3.236688   -1.095487    0.096548
     19          6           0       -2.160347   -1.831519    0.225281
     20          7           0       -2.160003   -3.211776    0.392075
     21          1           0        4.178481    2.387971   -0.965065
     22          1           0        4.284160    3.220177    0.603603
     23          1           0        2.719780    3.073409   -0.226385
     24          1           0        4.360830    0.734558    0.928363
     25          1           0        2.892777    1.416308    1.655771
     26          1           0        3.288954   -1.337305    0.674792
     27          1           0        0.876670    0.110765    1.778619
     28          1           0        1.533445   -1.406439    2.419241
     29          1           0        0.112099   -2.683853    0.963217
     30          1           0        2.903486   -3.095657   -1.352534
     31          1           0        2.260706   -3.586126    0.224677
     32          1           0        1.266699   -3.765225   -1.232188
     33          1           0        0.684776   -0.069910   -1.776127
     34          1           0        1.943955   -1.049924   -2.534210
     35          1           0        0.296343   -1.690472   -2.370272
     36          1           0       -4.543318    1.406240   -0.161401
     37          1           0       -3.262912    3.539427   -0.285437
     38          1           0        0.468017    1.418520    0.021994
     39          1           0        0.455074    3.828426    0.093198
     40          1           0       -0.542356    4.262238   -1.299731
     41          1           0       -1.058035    4.717873    0.325065
     42          1           0       -1.544063   -3.706032   -0.246431
     43          1           0       -3.109554   -3.560010    0.308995
 ---------------------------------------------------------------------

 SCF Done:  E(UB3LYP) =  -863.336365320     A.U. after   33 cycles
 SCF Done:  E(UB3LYP) =  -863.336365320     a.u. after    1 cycles

 The electronic state is 2-A.
 Alpha  occ. eigenvalues --  -19.03992 -14.27191 -14.23419 -14.19509 -10.17466
 Alpha  occ. eigenvalues --  -10.13194 -10.12969 -10.12422 -10.11491 -10.10060
 Alpha  occ. eigenvalues --  -10.09429 -10.08984 -10.08495 -10.08068 -10.08054
 Alpha  occ. eigenvalues --  -10.07988 -10.07964 -10.07815 -10.06657 -10.06311
 Alpha  occ. eigenvalues --   -0.95556  -0.93328  -0.82275  -0.80547  -0.75398
 Alpha  occ. eigenvalues --   -0.75229  -0.67395  -0.67107  -0.65986  -0.65132
 Alpha  occ. eigenvalues --   -0.59621  -0.59209  -0.58362  -0.54545  -0.52839
 Alpha  occ. eigenvalues --   -0.51608  -0.50403  -0.48794  -0.45994  -0.43914
 Alpha  occ. eigenvalues --   -0.42316  -0.41006  -0.39550  -0.39116  -0.38615
 Alpha  occ. eigenvalues --   -0.37871  -0.37085  -0.36329  -0.35132  -0.34137
 Alpha  occ. eigenvalues --   -0.33749  -0.33438  -0.32116  -0.31484  -0.30921
 Alpha  occ. eigenvalues --   -0.30614  -0.30262  -0.29867  -0.28865  -0.28447
 Alpha  occ. eigenvalues --   -0.27381  -0.26418  -0.26053  -0.25794  -0.25434
 Alpha  occ. eigenvalues --   -0.24153  -0.23571  -0.20992  -0.20170  -0.19525
 Alpha  occ. eigenvalues --   -0.18374  -0.17031  -0.13413  -0.11685   0.03828
 Alpha virt. eigenvalues --    0.05414   0.06412   0.07082   0.07167   0.07683
 Alpha virt. eigenvalues --    0.08176   0.08584   0.09025   0.09262   0.09296
 Alpha virt. eigenvalues --    0.09879   0.10578   0.10975   0.11261   0.11679

  Beta  occ. eigenvalues --  -19.03985 -14.27190 -14.23354 -14.19503 -10.17458
  Beta  occ. eigenvalues --  -10.13173 -10.12953 -10.12410 -10.11491 -10.10059
  Beta  occ. eigenvalues --  -10.09429 -10.08983 -10.08488 -10.08056 -10.08053
  Beta  occ. eigenvalues --  -10.07986 -10.07944 -10.07814 -10.06610 -10.06296
  Beta  occ. eigenvalues --   -0.95544  -0.93314  -0.82209  -0.80522  -0.75387
  Beta  occ. eigenvalues --   -0.75212  -0.67366  -0.67096  -0.65961  -0.65114
  Beta  occ. eigenvalues --   -0.59564  -0.59186  -0.58335  -0.54503  -0.52805
  Beta  occ. eigenvalues --   -0.51549  -0.50380  -0.48754  -0.45960  -0.43873
  Beta  occ. eigenvalues --   -0.42279  -0.40971  -0.39514  -0.39073  -0.38581
  Beta  occ. eigenvalues --   -0.37844  -0.37053  -0.36313  -0.35105  -0.34127
  Beta  occ. eigenvalues --   -0.33737  -0.33425  -0.32086  -0.31441  -0.30893
  Beta  occ. eigenvalues --   -0.30580  -0.30250  -0.29848  -0.28833  -0.28423
  Beta  occ. eigenvalues --   -0.27370  -0.26396  -0.26032  -0.25773  -0.25396
  Beta  occ. eigenvalues --   -0.24123  -0.23532  -0.20961  -0.20142  -0.19508
  Beta  occ. eigenvalues --   -0.18354  -0.17008  -0.13407  -0.11661
  Beta virt. eigenvalues --    0.05751   0.06632   0.06854   0.07180   0.07700
  Beta virt. eigenvalues --    0.08031   0.08332   0.08625   0.09343   0.09515
  Beta virt. eigenvalues --    0.09744   0.10208   0.10652   0.11116   0.11540

 Mulliken charges and spin densities:
               1          2
     1  C    0.395228  -0.929629
     2  C    0.165770  -0.211328
     3  O   -0.001963   0.013842
     4  C    0.250526  -0.424663
     5  C    0.632989  -1.068788
     6  C   -0.671026   0.070996
     7  C   -2.212836   2.586065
     8  C    2.071738  -2.734325
     9  C   -0.472873  -0.112617
    10  N    0.398269  -0.002211
    11  C    0.144461  -0.154923
    12  C    0.056594  -0.181372
    13  C   -0.386814   0.018649
    14  C   -0.416667   0.027297
    15  C    0.170240  -0.038000
    16  C   -0.307779   0.021576
    17  C    0.016959  -0.342400
    18  N   -0.158444  -0.008328
    19  C    0.625112  -0.148929
    20  N   -0.451877   0.079629
    21  H    0.035695   0.114740
    22  H   -0.212619   0.355036
    23  H    0.205981  -0.082152
    24  H   -0.318633   0.446194
    25  H   -0.035248   0.151304
    26  H   -0.090611   0.333818
    27  H    0.187974   0.026154
    28  H   -0.341166   0.500829
    29  H    0.122673   0.142871
    30  H   -0.078739   0.238897
    31  H   -0.360678   0.511978
    32  H   -0.395291   0.546646
    33  H    0.134917  -0.003704
    34  H    0.057518   0.110717
    35  H    0.019193   0.161121
    36  H    0.130640   0.023927
    37  H    0.112195   0.017238
    38  H    0.138243  -0.222244
    39  H   -0.037060   0.170643
    40  H    0.146142   0.020092
    41  H    0.083488   0.046188
    42  H   -0.259536   0.533280
    43  H   -0.092684   0.395887
 Sum of Mulliken charges =  -1.00000   1.00000

 Dipole moment (field-independent basis, Debye):
    X=             -2.0805    Y=              7.1594    Z=             -0.5602  Tot=              7.4766
 Quadrupole moment (field-independent basis, Debye-Ang):
   XX=           -195.7235   YY=           -194.5046   ZZ=           -155.1237
   XY=             -6.7603   XZ=             -5.0428   YZ=             -3.2687

 Summary of Natural Population Analysis:

                                       Natural Population
                Natural  -----------------------------------------------
    Atom  No    Charge         Core      Valence    Rydberg      Total
 -----------------------------------------------------------------------
      C    1   -0.29204      0.99966     2.28653    0.00585     3.29204
      C    2   -0.00933      0.99959     1.99832    0.01141     3.00933
      O    3   -0.30468      0.99987     3.29431    0.01050     4.30468
      C    4    0.07561      0.99949     1.90909    0.01581     2.92439
      C    5   -0.20948      0.99961     2.20163    0.00824     3.20948
      C    6   -0.00295      0.99954     1.98773    0.01568     3.00295
      C    7   -0.04613      0.99955     2.03270    0.01388     3.04613
      C    8   -0.28126      0.99962     2.27445    0.00719     3.28126
      C    9   -0.28728      0.99961     2.28064    0.00704     3.28728
      N   10   -0.22602      0.99958     2.71589    0.01055     3.72602
      C   11    0.07762      0.99945     1.91372    0.00922     2.92238
      C   12    0.05885      0.99946     1.92959    0.01210     2.94115
      C   13   -0.10275      0.99953     2.09468    0.00854     3.10275
      C   14   -0.11496      0.99953     2.10617    0.00925     3.11496
      C   15   -0.02517      0.99953     2.01790    0.00773     3.02517
      C   16   -0.12915      0.99948     2.12258    0.00710     3.12915
      C   17   -0.28950      0.99964     2.28485    0.00502     3.28950
      N   18   -0.28309      0.99967     2.77401    0.00942     3.78309
      C   19    0.30406      0.99960     1.67882    0.01752     2.69594
      N   20   -0.40324      0.99971     2.89401    0.00951     3.90324
      H   21    0.10105      0.00000     0.39797    0.00098     0.39895
      H   22    0.10044      0.00000     0.39868    0.00088     0.39956
      H   23    0.09810      0.00000     0.40059    0.00130     0.40190
      H   24    0.08160      0.00000     0.41667    0.00173     0.41840
      H   25    0.07814      0.00000     0.42047    0.00139     0.42186
      H   26    0.08437      0.00000     0.41360    0.00203     0.41563
      H   27    0.10933      0.00000     0.38928    0.00139     0.39067
      H   28    0.10620      0.00000     0.39277    0.00103     0.39380
      H   29    0.11138      0.00000     0.38624    0.00238     0.38862
      H   30    0.10170      0.00000     0.39718    0.00112     0.39830
      H   31    0.10137      0.00000     0.39688    0.00175     0.39863
      H   32    0.10326      0.00000     0.39467    0.00207     0.39674
      H   33    0.10847      0.00000     0.39020    0.00133     0.39153
      H   34    0.10372      0.00000     0.39541    0.00087     0.39628
      H   35    0.10180      0.00000     0.39725    0.00095     0.39820
      H   36    0.10144      0.00000     0.39717    0.00139     0.39856
      H   37    0.09516      0.00000     0.40395    0.00089     0.40484
      H   38    0.11288      0.00000     0.38453    0.00259     0.38712
      H   39    0.10130      0.00000     0.39770    0.00099     0.39870
      H   40    0.10029      0.00000     0.39845    0.00126     0.39971
      H   41    0.09910      0.00000     0.39979    0.00111     0.40090
      H   42    0.19484      0.00000     0.29932    0.00584     0.30516
      H   43    0.19492      0.00000     0.30268    0.00240     0.30508
 =======================================================================
   * Total *    0.00000     19.99169    53.76907    0.23923    74.00000

 Normal termination of Gaussian 16 at Sun Dec 13 15:44:59 2020.
