 Gaussian 16, Revision A.03,

 -----------------------------------------------------------
 # opt freq B3LYP/6-31G(d) empiricaldispersion=gd3bj scf=xqc
 -----------------------------------------------------------

 ------------------------------
 CID_147322969_JID_922_neutraal
 ------------------------------
 Symbolic Z-matrix:
 Charge =  0 Multiplicity = 1

 SCF Done:  E(RB3LYP) =  -425.145974649     A.U. after   12 cycles
 SCF Done:  E(RB3LYP) =  -425.149567518     A.U. after   11 cycles
 SCF Done:  E(RB3LYP) =  -425.150124323     A.U. after   11 cycles
 SCF Done:  E(RB3LYP) =  -425.150262108     A.U. after   10 cycles
 SCF Done:  E(RB3LYP) =  -425.150354821     A.U. after   10 cycles
 SCF Done:  E(RB3LYP) =  -425.150445788     A.U. after   10 cycles
 SCF Done:  E(RB3LYP) =  -425.150550744     A.U. after   11 cycles
 SCF Done:  E(RB3LYP) =  -425.150622122     A.U. after   10 cycles
 SCF Done:  E(RB3LYP) =  -425.150910595     A.U. after   10 cycles
 SCF Done:  E(RB3LYP) =  -425.154455035     A.U. after   13 cycles
 SCF Done:  E(RB3LYP) =  -425.158544154     A.U. after   11 cycles
 SCF Done:  E(RB3LYP) =  -425.158695713     A.U. after   10 cycles
 SCF Done:  E(RB3LYP) =  -425.158744489     A.U. after   10 cycles
 SCF Done:  E(RB3LYP) =  -425.158797431     A.U. after    9 cycles
 SCF Done:  E(RB3LYP) =  -425.158805714     A.U. after    9 cycles
 SCF Done:  E(RB3LYP) =  -425.158807485     A.U. after    7 cycles
 Optimization completed.
    -- Stationary point found.

 1\1\GINC-NODE125\FOpt\RB3LYP\6-31G(d)\C8H18N2\VSC10255\08-Dec-2020\0\\
 # opt freq B3LYP/6-31G(d) empiricaldispersion=gd3bj scf=xqc\\CID_14732
 2969_JID_922_neutraal\\0,1\C,1.6189239793,-0.9899404482,0.4713839212\C
 ,1.1935577426,-0.1248568992,1.6502382502\N,1.4870888282,1.2954316518,1
 .4192889687\C,0.8966753643,2.1322131237,2.4561254234\N,2.9035433547,1.
 4668550273,1.3211740315\C,3.3107320217,2.3108482005,0.2001201\C,2.8656
 07512,3.7828621143,0.2120698279\C,3.4323895929,4.5750418738,1.37260254
 17\C,4.838640087,5.120511536,1.2928848188\C,3.6571551915,6.0605699547,

 Normal termination of Gaussian 16 at Tue Dec  8 13:39:35 2020.

 --------------------------------------------------------------------
 #N Geom=AllCheck Guess=TCheck SCRF=Check GenChk RB3LYP/6-31G(d) Freq
 --------------------------------------------------------------------

 Structure from the checkpoint file:  "JID_922.chk"
 ------------------------------
 CID_147322969_JID_922_neutraal
 ------------------------------
 Charge =  0 Multiplicity = 1

 SCF Done:  E(RB3LYP) =  -425.158807485     A.U. after    1 cycles

  Exact polarizability: 117.882  -0.901  93.376   1.445   0.675  84.651
 Approx polarizability: 136.454  -3.927 130.275   2.451  -0.149 127.929

                      1                      2                      3
                      A                      A                      A
 Frequencies --     36.6681                62.3953                76.8611
 Red. masses --      3.2855                 2.8608                 2.8546
 Frc consts  --      0.0026                 0.0066                 0.0099
 IR Inten    --      0.0878                 0.0824                 0.0347

                      4                      5                      6
                      A                      A                      A
 Frequencies --    118.7117               147.1981               178.0224
 Red. masses --      2.3076                 2.3680                 2.8850
 Frc consts  --      0.0192                 0.0302                 0.0539
 IR Inten    --      0.1699                 0.4698                 0.5178

                      7                      8                      9
                      A                      A                      A
 Frequencies --    238.1972               250.3556               264.2839
 Red. masses --      1.1966                 1.5104                 1.5200
 Frc consts  --      0.0400                 0.0558                 0.0626
 IR Inten    --      0.9399                 0.1518                 2.1737

                     10                     11                     12
                      A                      A                      A
 Frequencies --    317.1087               339.6822               390.8689
 Red. masses --      2.4489                 2.0681                 1.8666
 Frc consts  --      0.1451                 0.1406                 0.1680
 IR Inten    --      0.8793                 7.0253                 0.2472

                     13                     14                     15
                      A                      A                      A
 Frequencies --    422.7054               463.3506               495.0636
 Red. masses --      2.3262                 2.3028                 2.6632
 Frc consts  --      0.2449                 0.2913                 0.3846
 IR Inten    --      0.5069                 0.6677                 5.0479

                     16                     17                     18
                      A                      A                      A
 Frequencies --    570.4828               710.3176               746.9549
 Red. masses --      2.3365                 2.5181                 2.1092
 Frc consts  --      0.4480                 0.7486                 0.6933
 IR Inten    --      4.4452                54.1882                 9.0425

                     19                     20                     21
                      A                      A                      A
 Frequencies --    786.4648               824.2692               830.1959
 Red. masses --      1.0675                 1.1856                 1.1995
 Frc consts  --      0.3890                 0.4746                 0.4871
 IR Inten    --      5.9357                11.2285                 9.2527

                     22                     23                     24
                      A                      A                      A
 Frequencies --    846.5193               871.6762               909.0132
 Red. masses --      1.9213                 1.7587                 2.2215
 Frc consts  --      0.8112                 0.7873                 1.0815
 IR Inten    --     12.6474                 1.3303                18.0223

                     25                     26                     27
                      A                      A                      A
 Frequencies --    943.3605               993.5784               999.7491
 Red. masses --      3.1043                 1.8276                 1.7744
 Frc consts  --      1.6277                 1.0630                 1.0449
 IR Inten    --      8.7130                22.6824                 5.5189

                     28                     29                     30
                      A                      A                      A
 Frequencies --   1053.8593              1063.8404              1070.7787
 Red. masses --      2.0208                 1.4879                 1.8940
 Frc consts  --      1.3223                 0.9921                 1.2795
 IR Inten    --      9.1901                18.8829                15.4831

                     31                     32                     33
                      A                      A                      A
 Frequencies --   1081.8197              1105.9636              1119.0179
 Red. masses --      1.3904                 2.0246                 1.5893
 Frc consts  --      0.9588                 1.4590                 1.1725
 IR Inten    --      2.1881                 9.3487                 3.9572

                     34                     35                     36
                      A                      A                      A
 Frequencies --   1139.8712              1148.2023              1169.1581
 Red. masses --      2.5038                 1.1435                 1.7757
 Frc consts  --      1.9168                 0.8883                 1.4301
 IR Inten    --     12.6553                 1.9009                 7.2804

                     37                     38                     39
                      A                      A                      A
 Frequencies --   1197.8418              1211.7610              1218.7028
 Red. masses --      1.8099                 1.4230                 2.1915
 Frc consts  --      1.5300                 1.2311                 1.9178
 IR Inten    --      3.4407                 0.4519                 3.8482

                     40                     41                     42
                      A                      A                      A
 Frequencies --   1238.9973              1263.7230              1283.0475
 Red. masses --      1.7643                 1.8850                 1.5644
 Frc consts  --      1.5957                 1.7736                 1.5174
 IR Inten    --      0.4053                 2.5014                 2.8791

                     43                     44                     45
                      A                      A                      A
 Frequencies --   1317.5553              1339.4448              1374.2487
 Red. masses --      1.3825                 1.1782                 1.2432
 Frc consts  --      1.4141                 1.2455                 1.3833
 IR Inten    --      1.5428                 4.9681                 7.2468

                     46                     47                     48
                      A                      A                      A
 Frequencies --   1403.5820              1410.3265              1436.5656
 Red. masses --      1.2944                 1.3003                 1.3774
 Frc consts  --      1.5024                 1.5239                 1.6747
 IR Inten    --     24.7179                 3.5635                28.3365

                     49                     50                     51
                      A                      A                      A
 Frequencies --   1443.1187              1476.8866              1495.1467
 Red. masses --      1.5515                 1.1918                 1.0908
 Frc consts  --      1.9038                 1.5317                 1.4367
 IR Inten    --      2.5506                 2.6274                 2.6883

                     52                     53                     54
                      A                      A                      A
 Frequencies --   1495.8597              1510.8300              1512.2871
 Red. masses --      1.0891                 1.1034                 1.0664
 Frc consts  --      1.4358                 1.4840                 1.4369
 IR Inten    --      2.0221                 1.4893                 2.0974

                     55                     56                     57
                      A                      A                      A
 Frequencies --   1515.7277              1519.6039              1532.3201
 Red. masses --      1.0787                 1.0652                 1.0815
 Frc consts  --      1.4602                 1.4492                 1.4962
 IR Inten    --      1.0918                15.7587                 1.6763

                     58                     59                     60
                      A                      A                      A
 Frequencies --   1537.5801              1540.4409              1551.0182
 Red. masses --      1.2857                 1.1248                 1.1181
 Frc consts  --      1.7909                 1.5726                 1.5848
 IR Inten    --      2.0277                10.0212                 3.5452

                     61                     62                     63
                      A                      A                      A
 Frequencies --   2926.2574              2949.3823              3029.7673
 Red. masses --      1.0635                 1.0721                 1.0649
 Frc consts  --      5.3656                 5.4946                 5.7591
 IR Inten    --     57.1451               107.7777                23.4778

                     64                     65                     66
                      A                      A                      A
 Frequencies --   3043.9992              3056.1006              3066.3024
 Red. masses --      1.0653                 1.0394                 1.0847
 Frc consts  --      5.8159                 5.7196                 6.0087
 IR Inten    --     28.0494                25.9583                26.4849

                     67                     68                     69
                      A                      A                      A
 Frequencies --   3075.7300              3094.8921              3102.9961
 Red. masses --      1.0956                 1.0721                 1.1009
 Frc consts  --      6.1065                 6.0504                 6.2455
 IR Inten    --     39.8884                39.7581                39.1890

                     70                     71                     72
                      A                      A                      A
 Frequencies --   3121.3331              3140.5560              3141.5715
 Red. masses --      1.1025                 1.0508                 1.0792
 Frc consts  --      6.3289                 6.1064                 6.2756
 IR Inten    --     38.4638                23.7249                50.2698

                     73                     74                     75
                      A                      A                      A
 Frequencies --   3146.2858              3146.7757              3152.1023
 Red. masses --      1.0740                 1.0952                 1.0983
 Frc consts  --      6.2643                 6.3897                 6.4293
 IR Inten    --      6.7709                18.4960                21.7044

                     76                     77                     78
                      A                      A                      A
 Frequencies --   3214.1964              3228.5922              3414.1841
 Red. masses --      1.1193                 1.1159                 1.0737
 Frc consts  --      6.8131                 6.8533                 7.3741
 IR Inten    --      0.3787                28.8054                10.2452

 - Thermochemistry -
 -------------------
 Temperature   298.150 Kelvin.  Pressure   1.00000 Atm.
 Atom     1 has atomic number  6 and mass  12.00000

 Molecular mass:   142.14700 amu.
 Principal axes and moments of inertia in atomic units:
                           1         2         3
     Eigenvalues --   596.214753101.035273393.94009
           X            1.00000   0.00137  -0.00035
           Y           -0.00136   0.99980   0.02018
           Z            0.00037  -0.02018   0.99980
 This molecule is an asymmetric top.
 Rotational symmetry number  1.
 Warning -- assumption of classical behavior for rotation
           may cause significant error
 Rotational temperatures (Kelvin)      0.14527     0.02793     0.02552
 Rotational constants (GHZ):           3.02700     0.58198     0.53175
 Zero-point vibrational energy     679862.9 (Joules/Mol)
                                  162.49114 (Kcal/Mol)
 Warning -- explicit consideration of  16 degrees of freedom as
           vibrations may cause significant error
 Vibrational temperatures:     52.76    89.77   110.59   170.80   211.79
          (Kelvin)            256.13   342.71   360.21   380.25   456.25
                              488.73   562.37   608.18   666.66   712.29
                              820.80  1021.99  1074.70  1131.55  1185.94
                             1194.47  1217.95  1254.15  1307.87  1357.29
                             1429.54  1438.42  1516.27  1530.63  1540.61
                             1556.50  1591.23  1610.02  1640.02  1652.01
                             1682.16  1723.43  1743.45  1753.44  1782.64
                             1818.22  1846.02  1895.67  1927.16  1977.24
                             2019.44  2029.15  2066.90  2076.33  2124.91
                             2151.18  2152.21  2173.75  2175.84  2180.79
                             2186.37  2204.67  2212.23  2216.35  2231.57
                             4210.23  4243.50  4359.16  4379.64  4397.05
                             4411.73  4425.29  4452.86  4464.52  4490.90
                             4518.56  4520.02  4526.80  4527.51  4535.17
                             4624.51  4645.22  4912.25

 Zero-point correction=                           0.258946 (Hartree/Particle)
 Thermal correction to Energy=                    0.270808
 Thermal correction to Enthalpy=                  0.271752
 Thermal correction to Gibbs Free Energy=         0.220720
 Sum of electronic and zero-point Energies=           -424.899861
 Sum of electronic and thermal Energies=              -424.887999
 Sum of electronic and thermal Enthalpies=            -424.887055
 Sum of electronic and thermal Free Energies=         -424.938087

                     E (Thermal)             CV                S
                      KCal/Mol        Cal/Mol-Kelvin    Cal/Mol-Kelvin
 Total                  169.935             44.103            107.406
 Electronic               0.000              0.000              0.000
 Translational            0.889              2.981             40.766
 Rotational               0.889              2.981             30.218
 Vibrational            168.157             38.142             36.421
 Vibration     1          0.594              1.982              5.431
 Vibration     2          0.597              1.972              4.380
 Vibration     3          0.599              1.965              3.969
 Vibration     4          0.609              1.934              3.121
 Vibration     5          0.617              1.906              2.708
 Vibration     6          0.628              1.869              2.349
 Vibration     7          0.656              1.782              1.816
 Vibration     8          0.663              1.762              1.728
 Vibration     9          0.671              1.738              1.633
 Vibration    10          0.704              1.641              1.325
 Vibration    11          0.720              1.596              1.214
 Vibration    12          0.759              1.490              0.997
 Vibration    13          0.785              1.421              0.883
 Vibration    14          0.821              1.331              0.756
 Vibration    15          0.851              1.261              0.671
 Vibration    16          0.927              1.095              0.503

                           ! Non-Optimized Parameters !

 1\1\GINC-NODE125\Freq\RB3LYP\6-31G(d)\C8H18N2\VSC10255\08-Dec-2020\0\\
 #N Geom=AllCheck Guess=TCheck SCRF=Check GenChk RB3LYP/6-31G(d) Freq\\
 CID_147322969_JID_922_neutraal\\0,1\C,1.6189239793,-0.9899404482,0.471
 3839212\C,1.1935577426,-0.1248568992,1.6502382502\N,1.4870888282,1.295
 4316518,1.4192889687\C,0.8966753643,2.1322131237,2.4561254234\N,2.9035
 433547,1.4668550273,1.3211740315\C,3.3107320217,2.3108482005,0.2001201
 \C,2.865607512,3.7828621143,0.2120698279\C,3.4323895929,4.5750418738,1
 .3726025417\C,4.838640087,5.120511536,1.2928848188\C,3.6571551915,6.06

 Normal termination of Gaussian 16 at Tue Dec  8 13:45:24 2020.

 ----------------------------------------------------------------------
 # B3LYP/6-311++G(d,p) empiricaldispersion=gd3bj scf=xqc pop=npa geom=c
 heck
 ----------------------------------------------------------------------

 --------------------------------------
 CID_147322969_JID_922_Energie_neutraal
 --------------------------------------
 Structure from the checkpoint file:  "JID_922.chk"
 Charge =  0 Multiplicity = 1

 SCF Done:  E(RB3LYP) =  -425.282364322     A.U. after   13 cycles
 Normal termination of Gaussian 16 at Tue Dec  8 13:50:00 2020.

 ----------------------------------------------------------------------
 # B3LYP/6-311++G(d,p) empiricaldispersion=gd3bj scf=xqc pop=npa geom=c
 heck
 ----------------------------------------------------------------------

 ------------------------------------
 CID_147322969_JID_922_Energie_kation
 ------------------------------------
 Structure from the checkpoint file:  "JID_922.chk"
 Charge =  1 Multiplicity = 2

 SCF Done:  E(UB3LYP) =  -424.990458090     A.U. after   19 cycles
 Normal termination of Gaussian 16 at Tue Dec  8 13:56:50 2020.
 Gaussian 16:  ES64L-G16RevA.03 25-Dec-2016

 -----------------------------------
 CID_147322969_JID_922_Energie_anion
 -----------------------------------
 Structure from the checkpoint file:  "JID_922.chk"
 Charge = -1 Multiplicity = 2

                         Standard orientation:
 ---------------------------------------------------------------------
 Center     Atomic      Atomic             Coordinates (Angstroms)
 Number     Number       Type             X           Y           Z
 ---------------------------------------------------------------------
      1          6           0       -3.562645   -0.994422   -0.103018
      2          6           0       -2.988132    0.381433    0.206756
      3          7           0       -1.575866    0.483812   -0.182785
      4          6           0       -1.095292    1.855113   -0.071419
      5          7           0       -0.808887   -0.428595    0.607539
      6          6           0        0.149524   -1.209121   -0.171638
      7          6           0        1.285459   -0.450875   -0.878617
      8          6           0        2.222135    0.260120    0.076762
      9          6           0        3.321815   -0.513995    0.764427
     10          6           0        3.661546    0.503137   -0.299289
     11          1           0       -3.481606   -1.210973   -1.173721
     12          1           0       -4.619144   -1.042901    0.183857
     13          1           0       -3.015015   -1.762881    0.448676
     14          1           0       -3.531814    1.148965   -0.357901
     15          1           0       -3.119065    0.613975    1.280583
     16          1           0       -1.111283    2.229673    0.972243
     17          1           0       -0.072952    1.929882   -0.447811
     18          1           0       -1.729123    2.514666   -0.672910
     19          1           0       -0.349186    0.064819    1.376479
     20          1           0        0.585466   -1.939023    0.523625
     21          1           0       -0.430097   -1.768563   -0.913057
     22          1           0        1.864359   -1.175775   -1.468519
     23          1           0        0.857126    0.257899   -1.598417
     24          1           0        1.759217    1.043046    0.675450
     25          1           0        3.560365   -0.279804    1.798128
     26          1           0        3.429679   -1.566345    0.512708
     27          1           0        3.999199    0.134896   -1.264869
     28          1           0        4.130692    1.433582    0.008407
 ---------------------------------------------------------------------

 SCF Done:  E(UB3LYP) =  -425.262791761     A.U. after   30 cycles

 The electronic state is 2-A.
 Alpha  occ. eigenvalues --  -14.22490 -14.21546 -10.08824 -10.08478 -10.08006
 Alpha  occ. eigenvalues --  -10.07329 -10.06702 -10.06677 -10.06471 -10.05368
 Alpha  occ. eigenvalues --   -0.87403  -0.75943  -0.72526  -0.64647  -0.63103
 Alpha  occ. eigenvalues --   -0.55565  -0.52901  -0.49794  -0.49007  -0.45810
 Alpha  occ. eigenvalues --   -0.39947  -0.39198  -0.37780  -0.36491  -0.35702
 Alpha  occ. eigenvalues --   -0.32771  -0.31473  -0.30565  -0.30438  -0.28806
 Alpha  occ. eigenvalues --   -0.27130  -0.26300  -0.25853  -0.24841  -0.23936
 Alpha  occ. eigenvalues --   -0.23420  -0.19188  -0.18476  -0.14178  -0.11635
 Alpha  occ. eigenvalues --    0.04938
 Alpha virt. eigenvalues --    0.06817   0.07307   0.07919   0.08632   0.09330
 Alpha virt. eigenvalues --    0.09439   0.10632   0.11158   0.11280   0.11644
 Alpha virt. eigenvalues --    0.11977   0.12525   0.13686   0.14248   0.14713

  Beta  occ. eigenvalues --  -14.22471 -14.21535 -10.08815 -10.08457 -10.07968
  Beta  occ. eigenvalues --  -10.07315 -10.06677 -10.06651 -10.06463 -10.05354
  Beta  occ. eigenvalues --   -0.87372  -0.75915  -0.72495  -0.64615  -0.63071
  Beta  occ. eigenvalues --   -0.55501  -0.52864  -0.49715  -0.48943  -0.45756
  Beta  occ. eigenvalues --   -0.39903  -0.39133  -0.37747  -0.36433  -0.35663
  Beta  occ. eigenvalues --   -0.32747  -0.31436  -0.30537  -0.30397  -0.28774
  Beta  occ. eigenvalues --   -0.27104  -0.26266  -0.25812  -0.24806  -0.23909
  Beta  occ. eigenvalues --   -0.23393  -0.19155  -0.18447  -0.14120  -0.11575
  Beta virt. eigenvalues --    0.07086   0.07660   0.08044   0.08498   0.09223
  Beta virt. eigenvalues --    0.09661   0.10046   0.11093   0.11557   0.11746
  Beta virt. eigenvalues --    0.12033   0.12263   0.12886   0.13981   0.14644

 Mulliken charges and spin densities:
               1          2
     1  C   -0.205142  -0.322871
     2  C    0.392250  -0.503436
     3  N   -0.325123   0.325055
     4  C    0.987075  -1.400663
     5  N   -0.042837  -0.048529
     6  C   -0.324631  -0.215965
     7  C    1.074183  -1.538117
     8  C   -1.753541   2.138612
     9  C    1.112561  -1.606670
    10  C    0.555608  -0.931287
    11  H    0.092461   0.038141
    12  H   -0.298316   0.413089
    13  H    0.027216   0.131774
    14  H   -0.275098   0.401783
    15  H    0.001475   0.110006
    16  H   -0.340493   0.479294
    17  H   -0.283439   0.400136
    18  H   -0.473419   0.626769
    19  H    0.024594   0.167779
    20  H    0.075555   0.061091
    21  H    0.172615  -0.022539
    22  H   -0.198176   0.323961
    23  H    0.278204  -0.095234
    24  H   -0.320164   0.561154
    25  H   -0.423798   0.580285
    26  H   -0.015794   0.138541
    27  H   -0.152162   0.274028
    28  H   -0.361664   0.513812
 Sum of Mulliken charges =  -1.00000   1.00000

 Dipole moment (field-independent basis, Debye):
    X=             -0.9906    Y=             -4.8597    Z=             -2.1682  Tot=              5.4129
 Quadrupole moment (field-independent basis, Debye-Ang):
   XX=           -146.0671   YY=           -105.6734   ZZ=            -98.3981
   XY=             -0.1161   XZ=             -6.9973   YZ=             -0.9178

 Summary of Natural Population Analysis:

                                       Natural Population
                Natural  -----------------------------------------------
    Atom  No    Charge         Core      Valence    Rydberg      Total
 -----------------------------------------------------------------------
      C    1   -0.29121      0.99966     2.28528    0.00627     3.29121
      C    2   -0.08038      0.99962     2.06911    0.01164     3.08038
      N    3   -0.19330      0.99971     2.67839    0.01520     3.69330
      C    4   -0.18359      0.99964     2.17430    0.00966     3.18359
      N    5   -0.25392      0.99975     2.74072    0.01344     3.75392
      C    6   -0.08207      0.99962     2.07108    0.01138     3.08207
      C    7   -0.19937      0.99960     2.19197    0.00779     3.19937
      C    8   -0.12373      0.99959     2.11185    0.01229     3.12373
      C    9   -0.19983      0.99962     2.19047    0.00974     3.19983
      C   10   -0.19575      0.99962     2.18667    0.00946     3.19575
      H   11    0.09615      0.00000     0.40258    0.00127     0.40385
      H   12    0.09585      0.00000     0.40331    0.00084     0.40415
      H   13    0.10408      0.00000     0.39461    0.00131     0.39592
      H   14    0.09290      0.00000     0.40520    0.00190     0.40710
      H   15    0.07982      0.00000     0.41851    0.00166     0.42018
      H   16    0.08184      0.00000     0.41610    0.00206     0.41816
      H   17    0.09637      0.00000     0.40171    0.00193     0.40363
      H   18    0.09937      0.00000     0.39885    0.00179     0.40063
      H   19    0.16558      0.00000     0.33105    0.00336     0.33442
      H   20    0.09050      0.00000     0.40838    0.00112     0.40950
      H   21    0.09293      0.00000     0.40569    0.00138     0.40707
      H   22    0.09627      0.00000     0.40235    0.00138     0.40373
      H   23    0.10097      0.00000     0.39753    0.00151     0.39903
      H   24    0.10505      0.00000     0.39277    0.00218     0.39495
      H   25    0.10503      0.00000     0.39332    0.00165     0.39497
      H   26    0.09761      0.00000     0.40140    0.00100     0.40239
      H   27    0.09804      0.00000     0.40092    0.00104     0.40196
      H   28    0.10479      0.00000     0.39358    0.00163     0.39521
 =======================================================================
   * Total *   -0.00000      9.99643    29.86769    0.13589    40.00000

 Normal termination of Gaussian 16 at Tue Dec  8 14:07:19 2020.
