 Gaussian 16, Revision A.03,

 -----------------------------------------------------------
 # opt freq B3LYP/6-31G(d) empiricaldispersion=gd3bj scf=xqc
 -----------------------------------------------------------

 -------------------------------
 CID_137201540_JID_2544_neutraal
 -------------------------------
 Symbolic Z-matrix:
 Charge =  0 Multiplicity = 1

 SCF Done:  E(RB3LYP) =  -588.087786741     A.U. after   15 cycles
 SCF Done:  E(RB3LYP) =  -588.083790811     A.U. after   15 cycles
 SCF Done:  E(RB3LYP) =  -588.093978552     A.U. after   13 cycles
 SCF Done:  E(RB3LYP) =  -588.094959266     A.U. after   13 cycles
 SCF Done:  E(RB3LYP) =  -588.094007542     A.U. after   13 cycles
 SCF Done:  E(RB3LYP) =  -588.095894770     A.U. after   12 cycles
 SCF Done:  E(RB3LYP) =  -588.096081094     A.U. after   12 cycles
 SCF Done:  E(RB3LYP) =  -588.096341817     A.U. after   12 cycles
 SCF Done:  E(RB3LYP) =  -588.096525086     A.U. after   12 cycles
 SCF Done:  E(RB3LYP) =  -588.096709409     A.U. after   12 cycles
 SCF Done:  E(RB3LYP) =  -588.096854299     A.U. after   11 cycles
 SCF Done:  E(RB3LYP) =  -588.096866717     A.U. after   10 cycles
 SCF Done:  E(RB3LYP) =  -588.096874046     A.U. after   11 cycles
 SCF Done:  E(RB3LYP) =  -588.096875634     A.U. after    9 cycles
 SCF Done:  E(RB3LYP) =  -588.096875847     A.U. after    8 cycles
 SCF Done:  E(RB3LYP) =  -588.096875864     A.U. after    7 cycles
 Optimization completed.
    -- Stationary point found.
 Normal termination of Gaussian 16 at Wed Dec  9 17:33:38 2020.

 --------------------------------------------------------------------
 #N Geom=AllCheck Guess=TCheck SCRF=Check GenChk RB3LYP/6-31G(d) Freq
 --------------------------------------------------------------------

 Structure from the checkpoint file:  "JID_2544.chk"
 -------------------------------
 CID_137201540_JID_2544_neutraal
 -------------------------------
 Charge =  0 Multiplicity = 1

 SCF Done:  E(RB3LYP) =  -588.096875864     A.U. after    1 cycles

  Exact polarizability: 140.057   9.317  93.094   2.627   4.915  67.752
 Approx polarizability: 199.829  18.052 151.502   9.122   9.059  97.607

                      1                      2                      3
                      A                      A                      A
 Frequencies --     41.9383                55.3696               125.0863
 Red. masses --      4.6956                 4.6619                 6.4399
 Frc consts  --      0.0049                 0.0084                 0.0594
 IR Inten    --      4.5436                 0.2990                 1.2956

                      4                      5                      6
                      A                      A                      A
 Frequencies --    148.0116               156.5290               185.0148
 Red. masses --      4.7169                 2.5119                 5.0954
 Frc consts  --      0.0609                 0.0363                 0.1028
 IR Inten    --      1.3720                 3.9320                 1.6880

                      7                      8                      9
                      A                      A                      A
 Frequencies --    241.1893               276.1095               285.5284
 Red. masses --      1.0592                 3.0387                 4.7675
 Frc consts  --      0.0363                 0.1365                 0.2290
 IR Inten    --      0.6319                 0.8423                 1.0847

                     10                     11                     12
                      A                      A                      A
 Frequencies --    354.3395               421.9319               458.3856
 Red. masses --      2.3323                 3.6737                 4.9396
 Frc consts  --      0.1725                 0.3853                 0.6115
 IR Inten    --     15.2353                 4.4368                17.4826

                     13                     14                     15
                      A                      A                      A
 Frequencies --    466.1679               515.2459               579.7885
 Red. masses --      3.7591                 4.3288                 3.5227
 Frc consts  --      0.4813                 0.6771                 0.6977
 IR Inten    --      8.6073                 4.3373                 1.2670

                     16                     17                     18
                      A                      A                      A
 Frequencies --    590.5907               635.1069               660.0693
 Red. masses --      2.1121                 1.9134                 1.1776
 Frc consts  --      0.4340                 0.4547                 0.3023
 IR Inten    --     13.3396                47.0953               162.5247

                     19                     20                     21
                      A                      A                      A
 Frequencies --    692.1757               708.1270               756.0172
 Red. masses --      2.7875                 3.5246                 5.6042
 Frc consts  --      0.7869                 1.0413                 1.8873
 IR Inten    --     12.0043                16.5975                 2.0810

                     22                     23                     24
                      A                      A                      A
 Frequencies --    802.1709               856.6740               935.4630
 Red. masses --      4.2717                 3.0123                 1.9971
 Frc consts  --      1.6195                 1.3025                 1.0297
 IR Inten    --      1.6009                 0.8624                 7.8830

                     25                     26                     27
                      A                      A                      A
 Frequencies --    938.0168               947.2097               976.3722
 Red. masses --      1.8122                 2.8586                 2.1374
 Frc consts  --      0.9395                 1.5111                 1.2005
 IR Inten    --      2.0167                 8.3087                16.3591

                     28                     29                     30
                      A                      A                      A
 Frequencies --   1002.9410              1026.9028              1122.2687
 Red. masses --      2.6356                 1.7894                 2.6553
 Frc consts  --      1.5620                 1.1118                 1.9704
 IR Inten    --     25.0490                18.7603                45.4954

                     31                     32                     33
                      A                      A                      A
 Frequencies --   1134.4765              1139.6565              1157.9014
 Red. masses --      2.2336                 2.5225                 2.8319
 Frc consts  --      1.6938                 1.9303                 2.2370
 IR Inten    --     55.4656                 2.6938                18.0563

                     34                     35                     36
                      A                      A                      A
 Frequencies --   1178.0791              1214.7076              1287.6772
 Red. masses --      2.2858                 1.2977                 1.1940
 Frc consts  --      1.8692                 1.1282                 1.1665
 IR Inten    --     37.5253                 4.8499                46.5367

                     37                     38                     39
                      A                      A                      A
 Frequencies --   1301.3476              1313.6081              1347.7389
 Red. masses --      3.5511                 1.8207                 1.4026
 Frc consts  --      3.5432                 1.8510                 1.5010
 IR Inten    --    160.1953                33.6820                 4.0936

                     40                     41                     42
                      A                      A                      A
 Frequencies --   1404.9491              1422.0140              1430.0561
 Red. masses --      1.2090                 1.2055                 1.3370
 Frc consts  --      1.4061                 1.4363                 1.6110
 IR Inten    --     16.4413                 8.8701                29.3970

                     43                     44                     45
                      A                      A                      A
 Frequencies --   1438.2791              1466.6774              1480.8187
 Red. masses --      1.2709                 1.1177                 1.9823
 Frc consts  --      1.5490                 1.4166                 2.5611
 IR Inten    --      5.0571                27.5312               129.3930

                     46                     47                     48
                      A                      A                      A
 Frequencies --   1505.4908              1520.8449              1522.0074
 Red. masses --      1.1801                 1.0522                 1.0687
 Frc consts  --      1.5759                 1.4339                 1.4586
 IR Inten    --     78.3747                19.1052                 1.8872

                     49                     50                     51
                      A                      A                      A
 Frequencies --   1531.9850              1697.3467              1755.2055
 Red. masses --      1.0676                 7.0785                 9.2944
 Frc consts  --      1.4762                12.0153                16.8706
 IR Inten    --      3.4536               450.0767                59.6123

                     52                     53                     54
                      A                      A                      A
 Frequencies --   1846.4087              2980.5104              3023.9908
 Red. masses --     10.1430                 1.0711                 1.0721
 Frc consts  --     20.3738                 5.6060                 5.7764
 IR Inten    --    346.9551                76.2969                 3.4326

                     55                     56                     57
                      A                      A                      A
 Frequencies --   3035.8412              3064.8027              3082.2270
 Red. masses --      1.0855                 1.0357                 1.0915
 Frc consts  --      5.8946                 5.7318                 6.1095
 IR Inten    --     44.1945                20.3035                76.8687

                     58                     59                     60
                      A                      A                      A
 Frequencies --   3132.7361              3153.8987              3170.4080
 Red. masses --      1.1032                 1.1016                 1.0906
 Frc consts  --      6.3788                 6.4564                 6.4588
 IR Inten    --     27.1393                25.5924                 0.3428

                     61                     62                     63
                      A                      A                      A
 Frequencies --   3184.6199              3585.5328              3600.5445
 Red. masses --      1.0927                 1.0650                 1.0783
 Frc consts  --      6.5294                 8.0671                 8.2364
 IR Inten    --     13.4770               386.0794                44.4098

 - Thermochemistry -
 -------------------
 Temperature   298.150 Kelvin.  Pressure   1.00000 Atm.
 Atom     1 has atomic number  6 and mass  12.00000

 Molecular mass:   169.08513 amu.
 Principal axes and moments of inertia in atomic units:
                           1         2         3
     Eigenvalues --   891.786063274.515543663.67262
           X            0.99985   0.01559  -0.00775
           Y           -0.01554   0.99985   0.00696
           Z            0.00786  -0.00684   0.99995
 This molecule is an asymmetric top.
 Rotational symmetry number  1.
 Warning -- assumption of classical behavior for rotation
           may cause significant error
 Rotational temperatures (Kelvin)      0.09712     0.02645     0.02364
 Rotational constants (GHZ):           2.02374     0.55115     0.49260
 Zero-point vibrational energy     496887.7 (Joules/Mol)
                                  118.75900 (Kcal/Mol)
 Warning -- explicit consideration of  16 degrees of freedom as
           vibrations may cause significant error
 Vibrational temperatures:     60.34    79.66   179.97   212.96   225.21
          (Kelvin)            266.20   347.02   397.26   410.81   509.82
                              607.07   659.51   670.71   741.32   834.19
                              849.73   913.78   949.69   995.89  1018.84
                             1087.74  1154.15  1232.56  1345.92  1349.60
                             1362.82  1404.78  1443.01  1477.48  1614.69
                             1632.26  1639.71  1665.96  1694.99  1747.69
                             1852.68  1872.35  1889.99  1939.10  2021.41
                             2045.96  2057.53  2069.36  2110.22  2130.57
                             2166.07  2188.16  2189.83  2204.18  2442.10
                             2525.35  2656.57  4288.29  4350.85  4367.90
                             4409.57  4434.64  4507.31  4537.76  4561.51
                             4581.96  5158.78  5180.38

 Zero-point correction=                           0.189255 (Hartree/Particle)
 Thermal correction to Energy=                    0.200607
 Thermal correction to Enthalpy=                  0.201551
 Thermal correction to Gibbs Free Energy=         0.151406
 Sum of electronic and zero-point Energies=           -587.907621
 Sum of electronic and thermal Energies=              -587.896269
 Sum of electronic and thermal Enthalpies=            -587.895325
 Sum of electronic and thermal Free Energies=         -587.945470

                     E (Thermal)             CV                S
                      KCal/Mol        Cal/Mol-Kelvin    Cal/Mol-Kelvin
 Total                  125.883             42.531            105.540
 Electronic               0.000              0.000              0.000
 Translational            0.889              2.981             41.284
 Rotational               0.889              2.981             30.749
 Vibrational            124.105             36.570             33.508
 Vibration     1          0.595              1.980              5.165
 Vibration     2          0.596              1.975              4.616
 Vibration     3          0.610              1.928              3.020
 Vibration     4          0.617              1.905              2.698
 Vibration     5          0.620              1.895              2.591
 Vibration     6          0.631              1.860              2.277
 Vibration     7          0.658              1.777              1.794
 Vibration     8          0.678              1.718              1.558
 Vibration     9          0.683              1.701              1.500
 Vibration    10          0.730              1.566              1.147
 Vibration    11          0.784              1.423              0.885
 Vibration    12          0.816              1.342              0.771
 Vibration    13          0.824              1.325              0.748
 Vibration    14          0.870              1.216              0.621
 Vibration    15          0.936              1.075              0.486
 Vibration    16          0.948              1.052              0.466

 Optimization completed.
    -- Stationary point found.
 Normal termination of Gaussian 16 at Wed Dec  9 17:38:23 2020.

 ----------------------------------------------------------------------
 # B3LYP/6-311++G(d,p) empiricaldispersion=gd3bj scf=xqc pop=npa geom=c
 heck
 ----------------------------------------------------------------------

 ---------------------------------------
 CID_137201540_JID_2544_Energie_neutraal
 ---------------------------------------
 Structure from the checkpoint file:  "JID_2544.chk"
 Charge =  0 Multiplicity = 1

 SCF Done:  E(RB3LYP) =  -588.276058734     A.U. after   15 cycles
 Normal termination of Gaussian 16 at Wed Dec  9 17:40:38 2020.

 ----------------------------------------------------------------------
 # B3LYP/6-311++G(d,p) empiricaldispersion=gd3bj scf=xqc pop=npa geom=c
 heck
 ----------------------------------------------------------------------

 -------------------------------------
 CID_137201540_JID_2544_Energie_kation
 -------------------------------------
 Structure from the checkpoint file:  "JID_2544.chk"
 Charge =  1 Multiplicity = 2

 SCF Done:  E(UB3LYP) =  -587.955256169     A.U. after   27 cycles
 Normal termination of Gaussian 16 at Wed Dec  9 17:47:10 2020.
 Gaussian 16:  ES64L-G16RevA.03 25-Dec-2016

 ----------------------------------------------------------------------
 # B3LYP/6-311++G(d,p) empiricaldispersion=gd3bj scf=xqc pop=npa geom=c
 heck
 ----------------------------------------------------------------------

 ------------------------------------
 CID_137201540_JID_2544_Energie_anion
 ------------------------------------
 Structure from the checkpoint file:  "JID_2544.chk"
 Charge = -1 Multiplicity = 2

                         Standard orientation:
 ---------------------------------------------------------------------
 Center     Atomic      Atomic             Coordinates (Angstroms)
 Number     Number       Type             X           Y           Z
 ---------------------------------------------------------------------
      1          6           0       -2.304555   -0.724517    1.554170
      2          6           0       -2.155850   -0.979156    0.049120
      3          6           0       -2.829447    0.130077   -0.796216
      4          8           0       -2.678092    1.447170   -0.314932
      5          7           0       -0.759764   -1.300152   -0.280414
      6          6           0        0.183767   -0.455292   -0.349395
      7          6           0        1.568930   -0.951705   -0.736947
      8          6           0        2.698192   -0.255913   -0.006727
      9          8           0        3.795632   -0.719092    0.214101
     10          7           0        2.377624    1.058824    0.355806
     11          6           0        1.113167    1.589353    0.221258
     12          7           0        0.057692    0.941697   -0.119512
     13          1           0       -1.833774    0.221760    1.830551
     14          1           0       -1.844251   -1.535232    2.127258
     15          1           0       -3.364922   -0.663630    1.820331
     16          1           0       -2.701489   -1.901118   -0.190162
     17          1           0       -2.484647    0.029395   -1.839742
     18          1           0       -3.906992   -0.070347   -0.791528
     19          1           0       -1.712376    1.589942   -0.258632
     20          1           0        1.729516   -0.750266   -1.808016
     21          1           0        1.642065   -2.029596   -0.593599
     22          1           0        3.123891    1.613527    0.758305
     23          1           0        1.038560    2.651274    0.449142
 ---------------------------------------------------------------------

 SCF Done:  E(UB3LYP) =  -588.297305000     A.U. after   27 cycles

 The electronic state is 2-A.
 Alpha  occ. eigenvalues --  -18.96724 -18.94914 -14.21589 -14.14436 -14.12435
 Alpha  occ. eigenvalues --  -10.12189 -10.08005 -10.07893 -10.07677 -10.06199
 Alpha  occ. eigenvalues --  -10.03759 -10.02848  -0.90720  -0.87594  -0.82949
 Alpha  occ. eigenvalues --   -0.77378  -0.72002  -0.64099  -0.60106  -0.54740
 Alpha  occ. eigenvalues --   -0.51571  -0.48502  -0.43927  -0.41501  -0.36765
 Alpha  occ. eigenvalues --   -0.36182  -0.34299  -0.33129  -0.32338  -0.30661
 Alpha  occ. eigenvalues --   -0.28422  -0.27541  -0.27222  -0.27058  -0.24955
 Alpha  occ. eigenvalues --   -0.23977  -0.22966  -0.21541  -0.20983  -0.16916
 Alpha  occ. eigenvalues --   -0.14001  -0.12503  -0.12389  -0.10457  -0.09054
 Alpha  occ. eigenvalues --    0.04246
 Alpha virt. eigenvalues --    0.08765   0.09218   0.10805   0.11308   0.11809
 Alpha virt. eigenvalues --    0.12441   0.13089   0.13874   0.14817   0.15078
 Alpha virt. eigenvalues --    0.15739   0.16060   0.17042   0.17109   0.17654

  Beta  occ. eigenvalues --  -18.96725 -18.94609 -14.21693 -14.14307 -14.12086
  Beta  occ. eigenvalues --  -10.11910 -10.07880 -10.07567 -10.07419 -10.06213
  Beta  occ. eigenvalues --  -10.03802 -10.02824  -0.90183  -0.87587  -0.82471
  Beta  occ. eigenvalues --   -0.76971  -0.71606  -0.63895  -0.59839  -0.54699
  Beta  occ. eigenvalues --   -0.50696  -0.48233  -0.43709  -0.41229  -0.36614
  Beta  occ. eigenvalues --   -0.36043  -0.34048  -0.32612  -0.31883  -0.30331
  Beta  occ. eigenvalues --   -0.28116  -0.27341  -0.26992  -0.26562  -0.24264
  Beta  occ. eigenvalues --   -0.23796  -0.21805  -0.21154  -0.20904  -0.15754
  Beta  occ. eigenvalues --   -0.13916  -0.12187  -0.12128  -0.09327  -0.08431
  Beta virt. eigenvalues --    0.08683   0.09142   0.10069   0.11296   0.11578
  Beta virt. eigenvalues --    0.11938   0.12400   0.13160   0.13847   0.14893
  Beta virt. eigenvalues --    0.15325   0.15951   0.17002   0.17059   0.17511

 Mulliken charges and spin densities:
               1          2
     1  C   -0.561067   0.002709
     2  C    0.146256  -0.028818
     3  C   -0.370637   0.002852
     4  O   -0.342379   0.001572
     5  N   -0.100937   0.195077
     6  C   -0.210297   0.294695
     7  C   -0.206734  -0.483383
     8  C    0.007975   0.222980
     9  O   -0.430718   0.116655
    10  N   -0.186619  -0.063723
    11  C   -0.138945   0.497751
    12  N   -0.264997   0.020406
    13  H    0.167848  -0.002922
    14  H    0.112025   0.003140
    15  H    0.090614   0.008987
    16  H    0.157600   0.001739
    17  H    0.109293   0.014215
    18  H    0.124039  -0.001152
    19  H    0.336409  -0.005068
    20  H    0.006664   0.212073
    21  H    0.187723  -0.020798
    22  H    0.266756   0.021646
    23  H    0.100130  -0.010635
 Sum of Mulliken charges =  -1.00000   1.00000

 Dipole moment (field-independent basis, Debye):
    X=             -1.8170    Y=              1.2942    Z=              0.7687  Tot=              2.3595
 Quadrupole moment (field-independent basis, Debye-Ang):
   XX=           -116.3458   YY=            -87.7365   ZZ=            -80.3111
   XY=             14.0764   XZ=              0.4346   YZ=              2.0389

 Summary of Natural Population Analysis:

                                       Natural Population
                Natural  -----------------------------------------------
    Atom  No    Charge         Core      Valence    Rydberg      Total
 -----------------------------------------------------------------------
      C    1   -0.28587      0.99964     2.28068    0.00554     3.28587
      C    2   -0.03544      0.99960     2.02023    0.01562     3.03544
      C    3   -0.00943      0.99958     1.99828    0.01157     3.00943
      O    4   -0.39552      0.99989     3.38776    0.00787     4.39552
      N    5   -0.21685      0.99963     2.70520    0.01202     3.71685
      C    6    0.22903      0.99956     1.75192    0.01949     2.77097
      C    7   -0.25963      0.99956     2.24998    0.01009     3.25963
      C    8    0.38543      0.99969     1.59258    0.02231     2.61457
      O    9   -0.29194      0.99987     3.28602    0.00605     4.29194
      N   10   -0.33794      0.99967     2.82928    0.00900     3.83794
      C   11    0.26405      0.99966     1.71877    0.01753     2.73595
      N   12   -0.31294      0.99964     2.80049    0.01281     3.81294
      H   13    0.10591      0.00000     0.39293    0.00116     0.39409
      H   14    0.09608      0.00000     0.40301    0.00091     0.40392
      H   15    0.08952      0.00000     0.40958    0.00091     0.41048
      H   16    0.08286      0.00000     0.41550    0.00163     0.41714
      H   17    0.07484      0.00000     0.42391    0.00124     0.42516
      H   18    0.07504      0.00000     0.42375    0.00121     0.42496
      H   19    0.24675      0.00000     0.24804    0.00521     0.25325
      H   20    0.11626      0.00000     0.38163    0.00210     0.38374
      H   21    0.11784      0.00000     0.38078    0.00137     0.38216
      H   22    0.19340      0.00000     0.30419    0.00241     0.30660
      H   23    0.06855      0.00000     0.43026    0.00119     0.43145
 =======================================================================
   * Total *    0.00000     11.99600    32.83477    0.16923    45.00000

 Normal termination of Gaussian 16 at Wed Dec  9 17:52:20 2020.
