 Gaussian 16, Revision A.03,

 -----------------------------------------------------------
 # opt freq B3LYP/6-31G(d) empiricaldispersion=gd3bj scf=xqc
 -----------------------------------------------------------

 -------------------------------
 CID_150873352_JID_7805_neutraal
 -------------------------------
 Symbolic Z-matrix:
 Charge =  0 Multiplicity = 1

 SCF Done:  E(RB3LYP) =  -1228.77986919     A.U. after   16 cycles
 SCF Done:  E(RB3LYP) =  -1228.78873964     A.U. after   15 cycles
 SCF Done:  E(RB3LYP) =  -1228.79123576     A.U. after   15 cycles
 SCF Done:  E(RB3LYP) =  -1228.79165784     A.U. after   16 cycles
 SCF Done:  E(RB3LYP) =  -1228.79178346     A.U. after   15 cycles
 SCF Done:  E(RB3LYP) =  -1228.79235376     A.U. after   14 cycles
 SCF Done:  E(RB3LYP) =  -1228.79259700     A.U. after   15 cycles
 SCF Done:  E(RB3LYP) =  -1228.79283141     A.U. after   15 cycles
 SCF Done:  E(RB3LYP) =  -1228.79304841     A.U. after   16 cycles
 SCF Done:  E(RB3LYP) =  -1228.79325375     A.U. after   16 cycles
 SCF Done:  E(RB3LYP) =  -1228.79359218     A.U. after    9 cycles
 SCF Done:  E(RB3LYP) =  -1228.79359242     A.U. after    9 cycles
 SCF Done:  E(RB3LYP) =  -1228.79359246     A.U. after    8 cycles
 SCF Done:  E(RB3LYP) =  -1228.79359249     A.U. after    8 cycles
 Optimization completed.
    -- Stationary point found.
 Normal termination of Gaussian 16 at Fri Dec 11 13:34:11 2020.

 --------------------------------------------------------------------
 #N Geom=AllCheck Guess=TCheck SCRF=Check GenChk RB3LYP/6-31G(d) Freq
 --------------------------------------------------------------------

 Structure from the checkpoint file:  "JID_7805.chk"
 -------------------------------
 CID_150873352_JID_7805_neutraal
 -------------------------------
 Charge =  0 Multiplicity = 1

 SCF Done:  E(RB3LYP) =  -1228.79359249     A.U. after    1 cycles

  Exact polarizability: 183.653  -8.499 149.881 -12.628   0.665  84.454
 Approx polarizability: 289.695 -38.459 233.312 -25.157  -6.074 142.610

                      1                      2                      3
                      A                      A                      A
 Frequencies --     13.8872                20.4833                33.3022
 Red. masses --      6.9546                 8.9934                 7.3233
 Frc consts  --      0.0008                 0.0022                 0.0048
 IR Inten    --      2.4531                 0.3217                 0.8993

                      4                      5                      6
                      A                      A                      A
 Frequencies --     47.2332                61.3131                83.3123
 Red. masses --      6.2450                 7.5382                 4.7078
 Frc consts  --      0.0082                 0.0167                 0.0193
 IR Inten    --      0.2413                 3.4079                 0.3160

                      7                      8                      9
                      A                      A                      A
 Frequencies --    110.6635               118.6173               178.7798
 Red. masses --      4.8185                 6.1115                 7.1027
 Frc consts  --      0.0348                 0.0507                 0.1338
 IR Inten    --      5.5067                 5.7654                 0.9742

                     10                     11                     12
                      A                      A                      A
 Frequencies --    205.4249               217.2545               234.5832
 Red. masses --      3.5599                 7.5683                 8.4927
 Frc consts  --      0.0885                 0.2105                 0.2754
 IR Inten    --      1.7344                 2.1129                 2.3924

                     13                     14                     15
                      A                      A                      A
 Frequencies --    278.8847               301.0678               350.1216
 Red. masses --      2.9957                 8.1393                 7.0427
 Frc consts  --      0.1373                 0.4347                 0.5087
 IR Inten    --      0.4241                 4.4515                 8.4005

                     16                     17                     18
                      A                      A                      A
 Frequencies --    364.6548               398.1829               410.5675
 Red. masses --      5.5940                 3.8717                 3.1291
 Frc consts  --      0.4383                 0.3617                 0.3108
 IR Inten    --      3.2867                 3.9453                16.2028

                     19                     20                     21
                      A                      A                      A
 Frequencies --    421.6202               481.2368               511.6585
 Red. masses --      3.8921                 3.8188                 4.8131
 Frc consts  --      0.4076                 0.5211                 0.7424
 IR Inten    --     26.1483                 0.6514                11.0617

                     22                     23                     24
                      A                      A                      A
 Frequencies --    517.3602               521.5729               577.6410
 Red. masses --      9.3937                 5.7946                 4.4623
 Frc consts  --      1.4814                 0.9288                 0.8773
 IR Inten    --     39.7417                28.0232                14.1613

                     25                     26                     27
                      A                      A                      A
 Frequencies --    630.6190               678.3808               701.1680
 Red. masses --      7.2743                 5.4143                10.1155
 Frc consts  --      1.7044                 1.4681                 2.9301
 IR Inten    --      2.3845                56.6241                28.5584

                     28                     29                     30
                      A                      A                      A
 Frequencies --    741.6639               756.1582               795.0168
 Red. masses --      5.4813                 2.8599                 1.5913
 Frc consts  --      1.7764                 0.9634                 0.5926
 IR Inten    --      8.0518                26.0274                16.2706

                     31                     32                     33
                      A                      A                      A
 Frequencies --    840.4722               907.2932               925.9691
 Red. masses --      2.4165                12.2519                 1.2704
 Frc consts  --      1.0057                 5.9422                 0.6418
 IR Inten    --      5.9259                60.9999                 0.2592

                     34                     35                     36
                      A                      A                      A
 Frequencies --    954.4556               983.3538              1000.5776
 Red. masses --      1.9373                 1.4071                 6.9807
 Frc consts  --      1.0398                 0.8017                 4.1177
 IR Inten    --     46.5758                 0.1176               270.2781

                     37                     38                     39
                      A                      A                      A
 Frequencies --   1013.2366              1015.9877              1019.0581
 Red. masses --      2.2427                 6.5434                 1.3208
 Frc consts  --      1.3566                 3.9795                 0.8082
 IR Inten    --     41.9990                 9.8633                 0.5163

                     40                     41                     42
                      A                      A                      A
 Frequencies --   1073.1216              1073.2569              1091.6539
 Red. masses --      2.5207                 2.9106                 3.9818
 Frc consts  --      1.7103                 1.9753                 2.7958
 IR Inten    --     24.3739                44.3860                68.6003

                     43                     44                     45
                      A                      A                      A
 Frequencies --   1124.9085              1155.4806              1169.0215
 Red. masses --      1.7538                 2.0272                 2.3747
 Frc consts  --      1.3076                 1.5947                 1.9121
 IR Inten    --     32.1289                 6.4834                56.0034

                     46                     47                     48
                      A                      A                      A
 Frequencies --   1185.3860              1194.1038              1218.1988
 Red. masses --      1.1339                 3.2381                 2.8887
 Frc consts  --      0.9388                 2.7204                 2.5257
 IR Inten    --      1.3397               112.7026                26.7189

                     49                     50                     51
                      A                      A                      A
 Frequencies --   1230.3467              1282.3313              1297.1368
 Red. masses --      1.9413                 1.5778                 1.9976
 Frc consts  --      1.7314                 1.5286                 1.9803
 IR Inten    --     67.4154                72.1857                86.3609

                     52                     53                     54
                      A                      A                      A
 Frequencies --   1316.5326              1321.4315              1338.1665
 Red. masses --      2.1769                 2.2919                 2.3861
 Frc consts  --      2.2231                 2.3580                 2.5175
 IR Inten    --     25.0499                17.0170                 0.3261

                     55                     56                     57
                      A                      A                      A
 Frequencies --   1354.8819              1419.5990              1451.1800
 Red. masses --      1.3190                 1.2431                 1.2351
 Frc consts  --      1.4265                 1.4760                 1.5325
 IR Inten    --     15.6565                62.1667                15.6374

                     58                     59                     60
                      A                      A                      A
 Frequencies --   1466.9574              1471.7098              1505.4726
 Red. masses --      1.0995                 2.1140                 2.1200
 Frc consts  --      1.3941                 2.6977                 2.8310
 IR Inten    --      6.8645                25.9636                11.8498

                     61                     62                     63
                      A                      A                      A
 Frequencies --   1522.1731              1556.2837              1628.3476
 Red. masses --      1.0725                 1.1051                 5.2521
 Frc consts  --      1.4641                 1.5770                 8.2049
 IR Inten    --      2.8387                 3.7053                13.5889

                     64                     65                     66
                      A                      A                      A
 Frequencies --   1638.2400              2197.1510              3063.5403
 Red. masses --      5.9792                13.9894                 1.0611
 Frc consts  --      9.4548                39.7895                 5.8673
 IR Inten    --     16.3951               425.0162                45.4087

                     67                     68                     69
                      A                      A                      A
 Frequencies --   3073.0383              3087.6814              3120.3817
 Red. masses --      1.0536                 1.0596                 1.1044
 Frc consts  --      5.8625                 5.9521                 6.3359
 IR Inten    --     18.5182                 1.8173                 5.7219

                     70                     71                     72
                      A                      A                      A
 Frequencies --   3136.4955              3149.1954              3188.9169
 Red. masses --      1.1165                 1.1060                 1.0895
 Frc consts  --      6.4713                 6.4625                 6.5279
 IR Inten    --     24.8998                 2.4449                12.1813

                     73                     74                     75
                      A                      A                      A
 Frequencies --   3207.2368              3224.2719              3248.2703
 Red. masses --      1.0897                 1.0964                 1.0935
 Frc consts  --      6.6040                 6.7157                 6.7981
 IR Inten    --      8.8632                12.9667                 2.4795

 - Thermochemistry -
 -------------------
 Temperature   298.150 Kelvin.  Pressure   1.00000 Atm.
 Atom     1 has atomic number  6 and mass  12.00000

 Molecular mass:   258.04228 amu.
 Principal axes and moments of inertia in atomic units:
                           1         2         3
     Eigenvalues --  2575.811997659.826059290.11216
           X            0.99988   0.01501  -0.00329
           Y           -0.01495   0.99972   0.01819
           Z            0.00356  -0.01814   0.99983
 This molecule is an asymmetric top.
 Rotational symmetry number  1.
 Warning -- assumption of classical behavior for rotation
           may cause significant error
 Rotational temperatures (Kelvin)      0.03363     0.01131     0.00932
 Rotational constants (GHZ):           0.70065     0.23561     0.19426
 Zero-point vibrational energy     515620.0 (Joules/Mol)
                                  123.23614 (Kcal/Mol)
 Warning -- explicit consideration of  24 degrees of freedom as
           vibrations may cause significant error
 Vibrational temperatures:     19.98    29.47    47.91    67.96    88.22
          (Kelvin)            119.87   159.22   170.66   257.22   295.56
                              312.58   337.51   401.25   433.17   503.75
                              524.66   572.90   590.72   606.62   692.39
                              736.16   744.37   750.43   831.10   907.32
                              976.04  1008.82  1067.09  1087.94  1143.85
                             1209.25  1305.39  1332.26  1373.25  1414.83
                             1439.61  1457.82  1461.78  1466.20  1543.98
                             1544.18  1570.65  1618.49  1662.48  1681.96
                             1705.51  1718.05  1752.72  1770.19  1844.99
                             1866.29  1894.20  1901.25  1925.32  1949.37
                             2042.49  2087.92  2110.62  2117.46  2166.04
                             2190.07  2239.15  2342.83  2357.06  3161.21
                             4407.75  4421.42  4442.48  4489.53  4512.72
                             4530.99  4588.14  4614.50  4639.01  4673.54

 Zero-point correction=                           0.196389 (Hartree/Particle)
 Thermal correction to Energy=                    0.212798
 Thermal correction to Enthalpy=                  0.213742
 Thermal correction to Gibbs Free Energy=         0.148149
 Sum of electronic and zero-point Energies=          -1228.597203
 Sum of electronic and thermal Energies=             -1228.580794
 Sum of electronic and thermal Enthalpies=           -1228.579850
 Sum of electronic and thermal Free Energies=        -1228.645444

                     E (Thermal)             CV                S
                      KCal/Mol        Cal/Mol-Kelvin    Cal/Mol-Kelvin
 Total                  133.533             58.406            138.053
 Electronic               0.000              0.000              0.000
 Translational            0.889              2.981             42.544
 Rotational               0.889              2.981             33.571
 Vibrational            131.755             52.444             61.938
 Vibration     1          0.593              1.986              7.359
 Vibration     2          0.593              1.986              6.587
 Vibration     3          0.594              1.983              5.622
 Vibration     4          0.595              1.979              4.930
 Vibration     5          0.597              1.973              4.414
 Vibration     6          0.600              1.961              3.811
 Vibration     7          0.606              1.941              3.257
 Vibration     8          0.609              1.934              3.123
 Vibration     9          0.629              1.868              2.341
 Vibration    10          0.640              1.832              2.084
 Vibration    11          0.646              1.815              1.982
 Vibration    12          0.654              1.788              1.844
 Vibration    13          0.679              1.713              1.541
 Vibration    14          0.693              1.672              1.411
 Vibration    15          0.727              1.575              1.166
 Vibration    16          0.738              1.545              1.102
 Vibration    17          0.764              1.474              0.969
 Vibration    18          0.775              1.447              0.925
 Vibration    19          0.784              1.423              0.886
 Vibration    20          0.838              1.292              0.707
 Vibration    21          0.867              1.224              0.630
 Vibration    22          0.872              1.212              0.616
 Vibration    23          0.877              1.202              0.606
 Vibration    24          0.934              1.080              0.490

                           ! Non-Optimized Parameters !
 Normal termination of Gaussian 16 at Fri Dec 11 13:42:25 2020.

 ----------------------------------------------------------------------
 # B3LYP/6-311++G(d,p) empiricaldispersion=gd3bj scf=xqc pop=npa geom=c
 heck
 ----------------------------------------------------------------------

 ---------------------------------------
 CID_150873352_JID_7805_Energie_neutraal
 ---------------------------------------
 Structure from the checkpoint file:  "JID_7805.chk"
 Charge =  0 Multiplicity = 1

 SCF Done:  E(RB3LYP) =  -1229.05536712     A.U. after   16 cycles
 Normal termination of Gaussian 16 at Fri Dec 11 13:45:48 2020.

 ----------------------------------------------------------------------
 # B3LYP/6-311++G(d,p) empiricaldispersion=gd3bj scf=xqc pop=npa geom=c
 heck
 ----------------------------------------------------------------------

 -------------------------------------
 CID_150873352_JID_7805_Energie_kation
 -------------------------------------
 Structure from the checkpoint file:  "JID_7805.chk"
 Charge =  1 Multiplicity = 2

 SCF Done:  E(UB3LYP) =  -1228.72439791     A.U. after   33 cycles
 SCF Done:  E(UB3LYP) =  -1228.72439791     a.u. after    1 cycles
 Normal termination of Gaussian 16 at Fri Dec 11 13:55:10 2020.
 Gaussian 16:  ES64L-G16RevA.03 25-Dec-2016

 ----------------------------------------------------------------------
 # B3LYP/6-311++G(d,p) empiricaldispersion=gd3bj scf=xqc pop=npa geom=c
 heck
 ----------------------------------------------------------------------

 ------------------------------------
 CID_150873352_JID_7805_Energie_anion
 ------------------------------------
 Structure from the checkpoint file:  "JID_7805.chk"
 Charge = -1 Multiplicity = 2

                         Standard orientation:
 ---------------------------------------------------------------------
 Center     Atomic      Atomic             Coordinates (Angstroms)
 Number     Number       Type             X           Y           Z
 ---------------------------------------------------------------------
      1          6           0        3.618629    2.020804   -0.388144
      2          6           0        2.621671    2.968945   -0.167712
      3          6           0        1.355067    2.531937    0.227554
      4          7           0        1.049184    1.242416    0.401302
      5          6           0        2.015095    0.360090    0.180650
      6          6           0        3.315423    0.670725   -0.208734
      7         16           0        1.596818   -1.392880    0.461756
      8          8           0        2.885475   -2.107614    0.493078
      9          8           0        0.648134   -1.473634    1.581575
     10          6           0        0.739764   -1.957194   -1.052516
     11          6           0       -0.753248   -1.685505   -1.049541
     12          8           0       -0.985821   -0.291683   -1.240715
     13          6           0       -1.784678    0.298088   -0.278723
     14          8           0       -3.132596   -0.163597   -0.522119
     15          7           0       -3.881721    0.044141    0.692093
     16          7           0       -4.944493    0.630188    0.383244
     17          7           0       -5.969690    1.116336    0.251264
     18          1           0        4.616845    2.324122   -0.689156
     19          1           0        2.816687    4.029019   -0.293592
     20          1           0        0.554324    3.243449    0.414983
     21          1           0        4.047361   -0.116167   -0.344025
     22          1           0        1.242531   -1.488961   -1.903392
     23          1           0        0.947170   -3.032389   -1.067841
     24          1           0       -1.218860   -2.237969   -1.873862
     25          1           0       -1.196450   -2.032667   -0.111402
     26          1           0       -1.494991    0.031398    0.742822
     27          1           0       -1.724544    1.379559   -0.429516
 ---------------------------------------------------------------------

 SCF Done:  E(UB3LYP) =  -1229.08169548     A.U. after   33 cycles
 SCF Done:  E(UB3LYP) =  -1229.08204241     a.u. after    4 cycles

 The electronic state is 2-A.
 Alpha  occ. eigenvalues --  -88.92739 -19.03320 -19.03006 -19.00072 -19.00027
 Alpha  occ. eigenvalues --  -14.32091 -14.26012 -14.23803 -14.18928 -10.14518
 Alpha  occ. eigenvalues --  -10.13035 -10.10870 -10.10534 -10.09973 -10.07958
 Alpha  occ. eigenvalues --  -10.07265 -10.06609  -7.99215  -5.95497  -5.95379
 Alpha  occ. eigenvalues --   -5.95293  -1.01398  -0.99194  -0.96442  -0.91954
 Alpha  occ. eigenvalues --   -0.89050  -0.83773  -0.78912  -0.69954  -0.69625
 Alpha  occ. eigenvalues --   -0.66353  -0.59766  -0.55484  -0.52618  -0.51755
 Alpha  occ. eigenvalues --   -0.47985  -0.45166  -0.43039  -0.41075  -0.40323
 Alpha  occ. eigenvalues --   -0.38752  -0.38105  -0.37580  -0.36506  -0.36161
 Alpha  occ. eigenvalues --   -0.35314  -0.34531  -0.33073  -0.32274  -0.31978
 Alpha  occ. eigenvalues --   -0.30171  -0.29587  -0.29222  -0.28393  -0.27245
 Alpha  occ. eigenvalues --   -0.23267  -0.22601  -0.22072  -0.21227  -0.19796
 Alpha  occ. eigenvalues --   -0.19351  -0.18578  -0.17662  -0.16515  -0.16444
 Alpha  occ. eigenvalues --   -0.14817  -0.10806   0.02688
 Alpha virt. eigenvalues --    0.04138   0.07197   0.07721   0.08075   0.09042
 Alpha virt. eigenvalues --    0.10469   0.10988   0.11175   0.12557   0.12828
 Alpha virt. eigenvalues --    0.13420   0.13759   0.14174   0.14632   0.15212

  Beta  occ. eigenvalues --  -88.92737 -19.03124 -19.02995 -19.00052 -19.00004
  Beta  occ. eigenvalues --  -14.31789 -14.26028 -14.23274 -14.18556 -10.14513
  Beta  occ. eigenvalues --  -10.13033 -10.10854 -10.10302 -10.10045 -10.08028
  Beta  occ. eigenvalues --  -10.07054 -10.06414  -7.99212  -5.95496  -5.95362
  Beta  occ. eigenvalues --   -5.95295  -1.00834  -0.99119  -0.96233  -0.91589
  Beta  occ. eigenvalues --   -0.88998  -0.83228  -0.78470  -0.69869  -0.69166
  Beta  occ. eigenvalues --   -0.66029  -0.59646  -0.55166  -0.52489  -0.51509
  Beta  occ. eigenvalues --   -0.47757  -0.44767  -0.42931  -0.40894  -0.40185
  Beta  occ. eigenvalues --   -0.38349  -0.37793  -0.37366  -0.36267  -0.35461
  Beta  occ. eigenvalues --   -0.35155  -0.34437  -0.32924  -0.31964  -0.31053
  Beta  occ. eigenvalues --   -0.29928  -0.28926  -0.28555  -0.28100  -0.27120
  Beta  occ. eigenvalues --   -0.23096  -0.22334  -0.21829  -0.21122  -0.19663
  Beta  occ. eigenvalues --   -0.18953  -0.17613  -0.17065  -0.16274  -0.15547
  Beta  occ. eigenvalues --   -0.14429  -0.10601
  Beta virt. eigenvalues --    0.07152   0.07489   0.07881   0.08033   0.08557
  Beta virt. eigenvalues --    0.09055   0.10419   0.10951   0.11180   0.12577
  Beta virt. eigenvalues --    0.12864   0.13404   0.13969   0.14210   0.14671

 Mulliken charges and spin densities:
               1          2
     1  C   -0.902923   0.135160
     2  C    0.041078   0.177794
     3  C   -0.235253  -0.046112
     4  N    0.173464   0.174783
     5  C   -1.483275   0.147062
     6  C    0.994017  -0.005487
     7  S    0.683288  -0.005843
     8  O   -0.179690   0.012514
     9  O   -0.188727  -0.022170
    10  C   -0.520330   0.024988
    11  C   -0.335381  -0.017388
    12  O   -0.018377  -0.007199
    13  C   -0.428363  -0.043441
    14  O   -0.081783   0.025070
    15  N   -0.408835   0.022901
    16  N    0.356083   0.108838
    17  N   -0.302674   0.277629
    18  H    0.135247  -0.013682
    19  H    0.138729  -0.011146
    20  H    0.154988   0.003207
    21  H    0.242421   0.007506
    22  H    0.258161  -0.000894
    23  H    0.196268  -0.001195
    24  H    0.146444   0.013142
    25  H    0.188921   0.018110
    26  H    0.200436   0.029339
    27  H    0.176065  -0.003487
 Sum of Mulliken charges =  -1.00000   1.00000

 Dipole moment (field-independent basis, Debye):
    X=              5.6922    Y=             -0.2433    Z=             -3.6343  Tot=              6.7579
 Quadrupole moment (field-independent basis, Debye-Ang):
   XX=           -187.3559   YY=           -116.9587   ZZ=           -119.9536
   XY=             12.8668   XZ=             -4.0213   YZ=              7.5006

 Summary of Natural Population Analysis:

                                       Natural Population
                Natural  -----------------------------------------------
    Atom  No    Charge         Core      Valence    Rydberg      Total
 -----------------------------------------------------------------------
      C    1   -0.05528      0.99958     2.04640    0.00931     3.05528
      C    2   -0.08679      0.99957     2.07869    0.00853     3.08679
      C    3    0.01145      0.99960     1.97495    0.01400     2.98855
      N    4   -0.17797      0.99965     2.66502    0.01331     3.67797
      C    5    0.03057      0.99940     1.94999    0.02004     2.96943
      C    6   -0.13125      0.99950     2.12256    0.00920     3.13125
      S    7    1.01601      4.99922     1.88998    0.09479     6.98399
      O    8   -0.48013      0.99991     3.47460    0.00563     4.48013
      O    9   -0.46310      0.99991     3.45694    0.00625     4.46310
      C   10   -0.29371      0.99957     2.28369    0.01045     3.29371
      C   11   -0.02187      0.99956     2.01024    0.01206     3.02187
      O   12   -0.29442      0.99987     3.28361    0.01094     4.29442
      C   13    0.14696      0.99963     1.83684    0.01658     2.85304
      O   14   -0.22267      0.99990     3.21304    0.00973     4.22267
      N   15   -0.08692      0.99973     2.57060    0.01659     3.58692
      N   16    0.11850      0.99972     2.36590    0.01587     3.38150
      N   17    0.02440      0.99982     2.46222    0.01356     3.47560
      H   18    0.09309      0.00000     0.40591    0.00100     0.40691
      H   19    0.09441      0.00000     0.40456    0.00103     0.40559
      H   20    0.08606      0.00000     0.41277    0.00116     0.41394
      H   21    0.11365      0.00000     0.38513    0.00122     0.38635
      H   22    0.11459      0.00000     0.38428    0.00113     0.38541
      H   23    0.11273      0.00000     0.38601    0.00126     0.38727
      H   24    0.08813      0.00000     0.41058    0.00129     0.41187
      H   25    0.09989      0.00000     0.39698    0.00313     0.40011
      H   26    0.08641      0.00000     0.41075    0.00284     0.41359
      H   27    0.07726      0.00000     0.42143    0.00132     0.42274
 =======================================================================
   * Total *    0.00000     20.99415    45.70364    0.30221    67.00000

 Normal termination of Gaussian 16 at Fri Dec 11 14:25:55 2020.
