 Gaussian 16, Revision A.03,

 -----------------------------------------------------------
 # opt freq B3LYP/6-31G(d) empiricaldispersion=gd3bj scf=xqc
 -----------------------------------------------------------

 ------------------------------
 CID_53343107_JID_3658_neutraal
 ------------------------------
 Symbolic Z-matrix:
 Charge =  0 Multiplicity = 1

 SCF Done:  E(RB3LYP) =  -616.399049030     A.U. after   15 cycles
 SCF Done:  E(RB3LYP) =  -616.401524805     A.U. after   13 cycles
 SCF Done:  E(RB3LYP) =  -616.395720680     A.U. after   15 cycles
 SCF Done:  E(RB3LYP) =  -616.401111403     A.U. after   13 cycles
 SCF Done:  E(RB3LYP) =  -616.402915813     A.U. after   10 cycles
 SCF Done:  E(RB3LYP) =  -616.403793874     A.U. after   12 cycles
 SCF Done:  E(RB3LYP) =  -616.403756562     A.U. after   12 cycles
 SCF Done:  E(RB3LYP) =  -616.404118822     A.U. after   12 cycles
 SCF Done:  E(RB3LYP) =  -616.404187727     A.U. after   11 cycles
 SCF Done:  E(RB3LYP) =  -616.404214319     A.U. after   10 cycles
 SCF Done:  E(RB3LYP) =  -616.404255440     A.U. after   10 cycles
 SCF Done:  E(RB3LYP) =  -616.404255773     A.U. after    8 cycles
 SCF Done:  E(RB3LYP) =  -616.404255922     A.U. after    8 cycles
 SCF Done:  E(RB3LYP) =  -616.404256017     A.U. after    7 cycles
 SCF Done:  E(RB3LYP) =  -616.404256049     A.U. after    7 cycles
 Optimization completed.
    -- Stationary point found.
 Normal termination of Gaussian 16 at Mon Dec 14 13:13:02 2020.

 --------------------------------------------------------------------
 #N Geom=AllCheck Guess=TCheck SCRF=Check GenChk RB3LYP/6-31G(d) Freq
 --------------------------------------------------------------------

 Structure from the checkpoint file:  "JID_3658.chk"
 ------------------------------
 CID_53343107_JID_3658_neutraal
 ------------------------------
 Charge =  0 Multiplicity = 1

 SCF Done:  E(RB3LYP) =  -616.404256049     A.U. after    1 cycles

  Exact polarizability: 129.076   8.301 105.086   1.568   9.059  97.843
 Approx polarizability: 169.274  17.013 143.888  13.170  20.815 156.509

                      1                      2                      3
                      A                      A                      A
 Frequencies --     15.1116                34.9631                54.7115
 Red. masses --      3.5226                 4.7136                 4.2512
 Frc consts  --      0.0005                 0.0034                 0.0075
 IR Inten    --      0.7239                 0.1329                 2.7595

                      4                      5                      6
                      A                      A                      A
 Frequencies --     61.8686                87.5358                98.0717
 Red. masses --      3.2622                 5.4122                 3.1386
 Frc consts  --      0.0074                 0.0244                 0.0178
 IR Inten    --      2.1046                 0.5702                 0.0848

                      7                      8                      9
                      A                      A                      A
 Frequencies --    122.6778               155.7340               215.7385
 Red. masses --      2.7294                 4.7448                 2.7680
 Frc consts  --      0.0242                 0.0678                 0.0759
 IR Inten    --      0.8324                 4.0516                 2.6328

                     10                     11                     12
                      A                      A                      A
 Frequencies --    225.0867               246.6350               275.9401
 Red. masses --      1.1862                 2.6367                 1.1465
 Frc consts  --      0.0354                 0.0945                 0.0514
 IR Inten    --      0.6989                 2.6814                 0.1477

                     13                     14                     15
                      A                      A                      A
 Frequencies --    301.0053               324.4927               341.9217
 Red. masses --      2.4950                 2.2027                 3.0599
 Frc consts  --      0.1332                 0.1367                 0.2108
 IR Inten    --      1.4775                 4.9058                 3.3879

                     16                     17                     18
                      A                      A                      A
 Frequencies --    353.7720               420.9643               472.6203
 Red. masses --      2.4049                 3.5973                 2.3983
 Frc consts  --      0.1773                 0.3756                 0.3156
 IR Inten    --      1.1879                 9.5198                 6.6346

                     19                     20                     21
                      A                      A                      A
 Frequencies --    485.8947               527.1751               583.8540
 Red. masses --      1.9675                 3.2843                 4.7339
 Frc consts  --      0.2737                 0.5378                 0.9508
 IR Inten    --      2.1756                12.2184                 6.8395

                     22                     23                     24
                      A                      A                      A
 Frequencies --    648.1478               663.2279               719.6841
 Red. masses --      2.9589                 1.9121                 3.4553
 Frc consts  --      0.7324                 0.4955                 1.0544
 IR Inten    --      2.3067                14.9379                 4.9202

                     25                     26                     27
                      A                      A                      A
 Frequencies --    809.1812               819.6985               873.5469
 Red. masses --      2.6708                 3.2133                 2.4191
 Frc consts  --      1.0304                 1.2721                 1.0876
 IR Inten    --      6.0596                 4.2743                 1.1826

                     28                     29                     30
                      A                      A                      A
 Frequencies --    901.0837               910.1608               943.5517
 Red. masses --      2.4521                 2.1510                 1.3517
 Frc consts  --      1.1731                 1.0499                 0.7090
 IR Inten    --      1.1646                 9.8229                36.1139

                     31                     32                     33
                      A                      A                      A
 Frequencies --    949.2121               960.4574               984.4677
 Red. masses --      1.2044                 2.1745                 1.5152
 Frc consts  --      0.6394                 1.1818                 0.8652
 IR Inten    --      2.4726                 9.9729                 0.7496

                     34                     35                     36
                      A                      A                      A
 Frequencies --   1004.6837              1023.7463              1045.8030
 Red. masses --      2.0205                 1.1329                 2.5510
 Frc consts  --      1.2016                 0.6995                 1.6438
 IR Inten    --     16.6691                15.4350                49.0592

                     37                     38                     39
                      A                      A                      A
 Frequencies --   1071.5093              1104.6432              1123.6995
 Red. masses --      1.9505                 2.3759                 2.1670
 Frc consts  --      1.3194                 1.7082                 1.6122
 IR Inten    --     50.9901                 0.9530                42.2524

                     40                     41                     42
                      A                      A                      A
 Frequencies --   1158.9004              1171.0681              1200.5759
 Red. masses --      1.8309                 1.6719                 1.9472
 Frc consts  --      1.4488                 1.3509                 1.6536
 IR Inten    --     12.7919                60.3042                29.4807

                     43                     44                     45
                      A                      A                      A
 Frequencies --   1237.7825              1267.2830              1300.9547
 Red. masses --      2.3290                 1.3146                 1.5296
 Frc consts  --      2.1024                 1.2440                 1.5253
 IR Inten    --    184.8162                 4.5774                30.3642

                     46                     47                     48
                      A                      A                      A
 Frequencies --   1312.3453              1324.6987              1343.7233
 Red. masses --      1.8988                 1.3323                 1.3580
 Frc consts  --      1.9268                 1.3775                 1.4447
 IR Inten    --    139.1679                38.2170                 1.7997

                     49                     50                     51
                      A                      A                      A
 Frequencies --   1349.7520              1366.6797              1385.5578
 Red. masses --      1.2176                 1.4485                 1.3494
 Frc consts  --      1.3069                 1.5940                 1.5263
 IR Inten    --     13.1617                 4.2577                 8.9042

                     52                     53                     54
                      A                      A                      A
 Frequencies --   1426.1824              1429.8660              1454.4109
 Red. masses --      1.2330                 1.3208                 1.2251
 Frc consts  --      1.4776                 1.5911                 1.5268
 IR Inten    --      5.3520                 4.4879                 4.8260

                     55                     56                     57
                      A                      A                      A
 Frequencies --   1476.7748              1485.7505              1498.7569
 Red. masses --      1.1633                 1.0941                 1.1313
 Frc consts  --      1.4948                 1.4230                 1.4973
 IR Inten    --      1.3487                17.6418                10.3440

                     58                     59                     60
                      A                      A                      A
 Frequencies --   1514.3146              1522.7980              1524.7463
 Red. masses --      1.0977                 1.0475                 1.0500
 Frc consts  --      1.4831                 1.4312                 1.4383
 IR Inten    --      9.4756                 3.0612                 1.3074

                     61                     62                     63
                      A                      A                      A
 Frequencies --   1538.8082              1544.8700              1735.4901
 Red. masses --      1.0405                 1.0555                 4.4748
 Frc consts  --      1.4517                 1.4842                 7.9409
 IR Inten    --      9.9108                11.4370                 3.8787

                     64                     65                     66
                      A                      A                      A
 Frequencies --   1799.4993              1824.9393              3033.7846
 Red. masses --     11.8085                10.6734                 1.0625
 Frc consts  --     22.5293                20.9435                 5.7618
 IR Inten    --    370.3416                17.4686                15.9524

                     67                     68                     69
                      A                      A                      A
 Frequencies --   3054.0234              3061.4681              3065.3941
 Red. masses --      1.0371                 1.0813                 1.0385
 Frc consts  --      5.6991                 5.9709                 5.7497
 IR Inten    --     22.6345                13.4788                14.3107

                     70                     71                     72
                      A                      A                      A
 Frequencies --   3076.2287              3098.6317              3100.6093
 Red. masses --      1.0963                 1.0574                 1.0608
 Frc consts  --      6.1122                 5.9816                 6.0085
 IR Inten    --     12.5544                 0.7514                43.0379

                     73                     74                     75
                      A                      A                      A
 Frequencies --   3116.9548              3132.3098              3135.9283
 Red. masses --      1.1019                 1.1016                 1.1020
 Frc consts  --      6.3076                 6.3682                 6.3848
 IR Inten    --     25.8752                 9.7198                23.2934

                     76                     77                     78
                      A                      A                      A
 Frequencies --   3152.6069              3155.0081              3157.0266
 Red. masses --      1.1003                 1.0613                 1.1103
 Frc consts  --      6.4429                 6.2243                 6.5201
 IR Inten    --     28.1720                10.9498                 9.3079

                     79                     80                     81
                      A                      A                      A
 Frequencies --   3158.2070              3191.1899              3238.3302
 Red. masses --      1.1069                 1.0904                 1.1146
 Frc consts  --      6.5051                 6.5424                 6.8866
 IR Inten    --      3.1104                 6.2491                18.9626

 - Thermochemistry -
 -------------------
 Temperature   298.150 Kelvin.  Pressure   1.00000 Atm.
 Atom     1 has atomic number  6 and mass  12.00000

 Molecular mass:   184.10994 amu.
 Principal axes and moments of inertia in atomic units:
                           1         2         3
     Eigenvalues --  1632.980493548.094263972.71422
           X            0.99967  -0.01440  -0.02124
           Y            0.01471   0.99979   0.01426
           Z            0.02103  -0.01457   0.99967
 This molecule is an asymmetric top.
 Rotational symmetry number  1.
 Warning -- assumption of classical behavior for rotation
           may cause significant error
 Rotational temperatures (Kelvin)      0.05304     0.02441     0.02180
 Rotational constants (GHZ):           1.10518     0.50865     0.45428
 Zero-point vibrational energy     652482.2 (Joules/Mol)
                                  155.94700 (Kcal/Mol)
 Warning -- explicit consideration of  21 degrees of freedom as
           vibrations may cause significant error
 Vibrational temperatures:     21.74    50.30    78.72    89.02   125.94
          (Kelvin)            141.10   176.51   224.07   310.40   323.85
                              354.85   397.02   433.08   466.87   491.95
                              509.00   605.67   680.00   699.09   758.49
                              840.04   932.54   954.24  1035.46  1164.23
                             1179.36  1256.84  1296.46  1309.52  1357.56
                             1365.70  1381.88  1416.43  1445.52  1472.94
                             1504.68  1541.66  1589.34  1616.75  1667.40
                             1684.91  1727.36  1780.89  1823.34  1871.78
                             1888.17  1905.95  1933.32  1941.99  1966.35
                             1993.51  2051.96  2057.26  2092.57  2124.75
                             2137.66  2156.38  2178.76  2190.97  2193.77
                             2214.00  2222.72  2496.98  2589.08  2625.68
                             4364.94  4394.06  4404.77  4410.42  4426.01
                             4458.24  4461.09  4484.60  4506.70  4511.90
                             4535.90  4539.35  4542.26  4543.96  4591.41
                             4659.23

 Zero-point correction=                           0.248517 (Hartree/Particle)
 Thermal correction to Energy=                    0.263507
 Thermal correction to Enthalpy=                  0.264452
 Thermal correction to Gibbs Free Energy=         0.204322
 Sum of electronic and zero-point Energies=           -616.155739
 Sum of electronic and thermal Energies=              -616.140749
 Sum of electronic and thermal Enthalpies=            -616.139805
 Sum of electronic and thermal Free Energies=         -616.199934

                     E (Thermal)             CV                S
                      KCal/Mol        Cal/Mol-Kelvin    Cal/Mol-Kelvin
 Total                  165.353             53.297            126.553
 Electronic               0.000              0.000              0.000
 Translational            0.889              2.981             41.537
 Rotational               0.889              2.981             31.510
 Vibrational            163.576             47.336             53.506
 Vibration     1          0.593              1.986              7.191
 Vibration     2          0.594              1.982              5.526
 Vibration     3          0.596              1.976              4.639
 Vibration     4          0.597              1.973              4.397
 Vibration     5          0.601              1.958              3.714
 Vibration     6          0.604              1.951              3.492
 Vibration     7          0.610              1.930              3.058
 Vibration     8          0.620              1.896              2.601
 Vibration     9          0.645              1.817              1.995
 Vibration    10          0.650              1.803              1.918
 Vibration    11          0.661              1.768              1.755
 Vibration    12          0.678              1.718              1.559
 Vibration    13          0.693              1.672              1.411
 Vibration    14          0.709              1.626              1.287
 Vibration    15          0.721              1.592              1.203
 Vibration    16          0.730              1.568              1.149
 Vibration    17          0.783              1.425              0.889
 Vibration    18          0.829              1.311              0.730
 Vibration    19          0.842              1.281              0.694
 Vibration    20          0.882              1.190              0.594
 Vibration    21          0.941              1.066              0.478

 Optimization completed.
    -- Stationary point found.
 Normal termination of Gaussian 16 at Mon Dec 14 13:20:02 2020.

 ----------------------------------------------------------------------
 # B3LYP/6-311++G(d,p) empiricaldispersion=gd3bj scf=xqc pop=npa geom=c
 heck
 ----------------------------------------------------------------------

 --------------------------------------
 CID_53343107_JID_3658_Energie_neutraal
 --------------------------------------
 Structure from the checkpoint file:  "JID_3658.chk"
 Charge =  0 Multiplicity = 1

 SCF Done:  E(RB3LYP) =  -616.587058217     A.U. after   14 cycles
 Normal termination of Gaussian 16 at Mon Dec 14 13:22:35 2020.

 ----------------------------------------------------------------------
 # B3LYP/6-311++G(d,p) empiricaldispersion=gd3bj scf=xqc pop=npa geom=c
 heck
 ----------------------------------------------------------------------

 ------------------------------------
 CID_53343107_JID_3658_Energie_kation
 ------------------------------------
 Structure from the checkpoint file:  "JID_3658.chk"
 Charge =  1 Multiplicity = 2

 SCF Done:  E(UB3LYP) =  -616.261020461     A.U. after   24 cycles
 Normal termination of Gaussian 16 at Mon Dec 14 13:28:26 2020.
 Gaussian 16:  ES64L-G16RevA.03 25-Dec-2016

 ----------------------------------------------------------------------
 # B3LYP/6-311++G(d,p) empiricaldispersion=gd3bj scf=xqc pop=npa geom=c
 heck
 ----------------------------------------------------------------------

 -----------------------------------
 CID_53343107_JID_3658_Energie_anion
 -----------------------------------
 Structure from the checkpoint file:  "JID_3658.chk"
 Charge = -1 Multiplicity = 2

                         Standard orientation:
 ---------------------------------------------------------------------
 Center     Atomic      Atomic             Coordinates (Angstroms)
 Number     Number       Type             X           Y           Z
 ---------------------------------------------------------------------
      1          6           0       -2.032008    1.733021    1.164383
      2          6           0       -2.157994    1.185954   -0.262585
      3          6           0       -0.997368    1.660904   -1.160549
      4          6           0       -2.261865   -0.337789   -0.356523
      5          8           0       -2.830990   -0.863567   -1.291041
      6          6           0       -1.630320   -1.204810    0.745290
      7          6           0       -0.119447   -1.078271    0.836108
      8          8           0        0.490172   -0.676285    1.803897
      9          8           0        0.451976   -1.488860   -0.313370
     10          6           0        1.899080   -1.556876   -0.371095
     11          6           0        2.511044   -0.288354   -0.972634
     12          6           0        2.665244    0.854614   -0.005464
     13          6           0        3.809031    1.506080    0.201676
     14          1           0       -1.113462    1.392649    1.652676
     15          1           0       -2.880411    1.431493    1.789197
     16          1           0       -2.011738    2.827858    1.140937
     17          1           0       -3.088698    1.552137   -0.712281
     18          1           0       -0.028003    1.346133   -0.764559
     19          1           0       -1.103472    1.260509   -2.173015
     20          1           0       -0.993746    2.754686   -1.216609
     21          1           0       -2.037177   -0.936523    1.722907
     22          1           0       -1.884472   -2.240709    0.508424
     23          1           0        2.286499   -1.753871    0.630687
     24          1           0        2.092841   -2.414338   -1.019116
     25          1           0        3.494567   -0.549700   -1.383356
     26          1           0        1.882762    0.004350   -1.825898
     27          1           0        1.782255    1.137750    0.562212
     28          1           0        3.878576    2.326834    0.909904
     29          1           0        4.722037    1.243602   -0.329646
 ---------------------------------------------------------------------

 SCF Done:  E(UB3LYP) =  -616.576031343     A.U. after   33 cycles
 SCF Done:  E(UB3LYP) =  -616.576031343     a.u. after    1 cycles

 The electronic state is 2-A.
 Alpha  occ. eigenvalues --  -19.05425 -18.99547 -18.96965 -10.18267 -10.12419
 Alpha  occ. eigenvalues --  -10.11198 -10.07725 -10.07636 -10.06612 -10.06578
 Alpha  occ. eigenvalues --  -10.06500 -10.05462 -10.05155  -0.99413  -0.90874
 Alpha  occ. eigenvalues --   -0.90803  -0.70842  -0.69112  -0.65796  -0.62427
 Alpha  occ. eigenvalues --   -0.58023  -0.55167  -0.50847  -0.46946  -0.45238
 Alpha  occ. eigenvalues --   -0.42041  -0.39568  -0.38195  -0.37469  -0.35215
 Alpha  occ. eigenvalues --   -0.34488  -0.33880  -0.33392  -0.31444  -0.30418
 Alpha  occ. eigenvalues --   -0.29630  -0.29486  -0.29049  -0.27901  -0.27137
 Alpha  occ. eigenvalues --   -0.25524  -0.25402  -0.24626  -0.23399  -0.22834
 Alpha  occ. eigenvalues --   -0.21430  -0.20010  -0.17405  -0.16183  -0.11829
 Alpha  occ. eigenvalues --    0.05063
 Alpha virt. eigenvalues --    0.06469   0.07728   0.08324   0.09008   0.09275
 Alpha virt. eigenvalues --    0.09756   0.10501   0.10748   0.11105   0.11374
 Alpha virt. eigenvalues --    0.12299   0.12670   0.12927   0.13849   0.14324

  Beta  occ. eigenvalues --  -19.05397 -18.99447 -18.96702 -10.18116 -10.12407
  Beta  occ. eigenvalues --  -10.10873 -10.07726 -10.07613 -10.06649 -10.06560
  Beta  occ. eigenvalues --  -10.06523 -10.05449 -10.05108  -0.99277  -0.90712
  Beta  occ. eigenvalues --   -0.90284  -0.70796  -0.68948  -0.65682  -0.62321
  Beta  occ. eigenvalues --   -0.57962  -0.55064  -0.50575  -0.46832  -0.45148
  Beta  occ. eigenvalues --   -0.41646  -0.39394  -0.38085  -0.37381  -0.35002
  Beta  occ. eigenvalues --   -0.34374  -0.33738  -0.33104  -0.31277  -0.30253
  Beta  occ. eigenvalues --   -0.29451  -0.29358  -0.28948  -0.27844  -0.26881
  Beta  occ. eigenvalues --   -0.25289  -0.25080  -0.24397  -0.23346  -0.22551
  Beta  occ. eigenvalues --   -0.20765  -0.19701  -0.17290  -0.16122  -0.11604
  Beta virt. eigenvalues --    0.07407   0.07858   0.08540   0.09116   0.09460
  Beta virt. eigenvalues --    0.09654   0.10062   0.10827   0.11112   0.11589
  Beta virt. eigenvalues --    0.11924   0.12772   0.13011   0.13321   0.13933

 Mulliken charges and spin densities:
               1          2
     1  C   -0.109144  -0.602216
     2  C    0.132600   0.343471
     3  C   -0.070653  -0.445519
     4  C   -0.167954   0.013551
     5  O   -0.319935   0.101633
     6  C   -0.453213   0.112383
     7  C   -0.064828  -0.096628
     8  O   -0.213150   0.041765
     9  O    0.065328   0.028919
    10  C    0.533715  -0.742813
    11  C   -0.082610  -0.466399
    12  C   -0.433089   0.935303
    13  C    0.542524  -1.070660
    14  H    0.152582   0.020213
    15  H    0.085253   0.035976
    16  H   -0.042454   0.168924
    17  H   -0.186445   0.406006
    18  H   -0.091084   0.129621
    19  H    0.263340  -0.107930
    20  H   -0.231806   0.372229
    21  H    0.064603   0.109362
    22  H    0.180163   0.034341
    23  H    0.208886  -0.046721
    24  H   -0.327482   0.507537
    25  H   -0.789206   0.956367
    26  H    0.277851  -0.078045
    27  H    0.142449   0.041133
    28  H    0.154379  -0.053475
    29  H   -0.220619   0.351674
 Sum of Mulliken charges =  -1.00000   1.00000

 Dipole moment (field-independent basis, Debye):
    X=             -0.9060    Y=              1.0224    Z=              3.1286  Tot=              3.4138
 Quadrupole moment (field-independent basis, Debye-Ang):
   XX=           -148.9447   YY=           -110.2723   ZZ=           -108.8930
   XY=              8.5560   XZ=              0.5464   YZ=             -3.5129

 Summary of Natural Population Analysis:

                                       Natural Population
                Natural  -----------------------------------------------
    Atom  No    Charge         Core      Valence    Rydberg      Total
 -----------------------------------------------------------------------
      C    1   -0.29006      0.99965     2.28421    0.00619     3.29006
      C    2   -0.15469      0.99958     2.14520    0.00992     3.15469
      C    3   -0.27567      0.99964     2.26958    0.00646     3.27567
      C    4    0.33658      0.99964     1.64083    0.02294     2.66342
      O    5   -0.27129      0.99987     3.26475    0.00667     4.27129
      C    6   -0.28188      0.99955     2.27366    0.00867     3.28188
      C    7    0.42620      0.99970     1.54834    0.02576     2.57380
      O    8   -0.30881      0.99987     3.30367    0.00527     4.30881
      O    9   -0.28216      0.99986     3.27405    0.00825     4.28216
      C   10   -0.01298      0.99956     2.00131    0.01212     3.01298
      C   11   -0.22499      0.99960     2.21484    0.01055     3.22499
      C   12   -0.07951      0.99956     2.07065    0.00930     3.07951
      C   13   -0.19729      0.99957     2.19051    0.00721     3.19729
      H   14    0.10525      0.00000     0.39366    0.00109     0.39475
      H   15    0.09619      0.00000     0.40301    0.00080     0.40381
      H   16    0.09745      0.00000     0.40172    0.00083     0.40255
      H   17    0.10430      0.00000     0.39310    0.00260     0.39570
      H   18    0.09528      0.00000     0.40367    0.00105     0.40472
      H   19    0.10341      0.00000     0.39587    0.00072     0.39659
      H   20    0.09615      0.00000     0.40262    0.00123     0.40385
      H   21    0.11381      0.00000     0.38498    0.00121     0.38619
      H   22    0.11879      0.00000     0.37986    0.00135     0.38121
      H   23    0.09646      0.00000     0.40243    0.00111     0.40354
      H   24    0.09430      0.00000     0.40437    0.00133     0.40570
      H   25    0.10571      0.00000     0.39094    0.00335     0.39429
      H   26    0.10818      0.00000     0.39071    0.00111     0.39182
      H   27    0.10031      0.00000     0.39815    0.00154     0.39969
      H   28    0.09041      0.00000     0.40883    0.00076     0.40959
      H   29    0.09055      0.00000     0.40837    0.00108     0.40945
 =======================================================================
   * Total *    0.00000     12.99563    36.84390    0.16047    50.00000

 Normal termination of Gaussian 16 at Mon Dec 14 13:36:31 2020.
