 Gaussian 16, Revision A.03,

 -----------------------------------------------------------
 # opt freq B3LYP/6-31G(d) empiricaldispersion=gd3bj scf=xqc
 -----------------------------------------------------------

 ------------------------------
 CID_150334016_JID_356_neutraal
 ------------------------------
 Symbolic Z-matrix:
 Charge =  0 Multiplicity = 1

 SCF Done:  E(RB3LYP) =  -485.572263596     A.U. after   19 cycles
 SCF Done:  E(RB3LYP) =  -485.584196363     A.U. after   15 cycles
 SCF Done:  E(RB3LYP) =  -485.587627760     A.U. after   15 cycles
 SCF Done:  E(RB3LYP) =  -485.589223394     A.U. after   15 cycles
 SCF Done:  E(RB3LYP) =  -485.591083617     A.U. after   15 cycles
 SCF Done:  E(RB3LYP) =  -485.592824701     A.U. after   16 cycles
 SCF Done:  E(RB3LYP) =  -485.593807930     A.U. after   14 cycles
 SCF Done:  E(RB3LYP) =  -485.594747006     A.U. after   16 cycles
 SCF Done:  E(RB3LYP) =  -485.597617670     A.U. after   16 cycles
 SCF Done:  E(RB3LYP) =  -485.589565339     A.U. after   16 cycles
 SCF Done:  E(RB3LYP) =  -485.603745987     A.U. after   13 cycles
 SCF Done:  E(RB3LYP) =  -485.603861408     A.U. after   13 cycles
 SCF Done:  E(RB3LYP) =  -485.603923425     A.U. after   13 cycles
 SCF Done:  E(RB3LYP) =  -485.603936118     A.U. after   12 cycles
 SCF Done:  E(RB3LYP) =  -485.603942788     A.U. after   11 cycles
 SCF Done:  E(RB3LYP) =  -485.603943962     A.U. after    8 cycles
 Optimization completed.
    -- Stationary point found.
 Normal termination of Gaussian 16 at Tue Dec  8 10:29:30 2020.

 --------------------------------------------------------------------
 #N Geom=AllCheck Guess=TCheck SCRF=Check GenChk RB3LYP/6-31G(d) Freq
 --------------------------------------------------------------------

 Structure from the checkpoint file:  "JID_356.chk"
 ------------------------------
 CID_150334016_JID_356_neutraal
 ------------------------------
 Charge =  0 Multiplicity = 1

 SCF Done:  E(RB3LYP) =  -485.603943962     A.U. after    1 cycles

  Exact polarizability: 120.533  14.617  72.949   6.693   1.149  55.606
 Approx polarizability: 193.299  37.381 113.097  22.480  11.300  88.591

                      1                      2                      3
                      A                      A                      A
 Frequencies --     37.0794                73.6764               147.9186
 Red. masses --      7.1598                 4.5801                 3.0851
 Frc consts  --      0.0058                 0.0146                 0.0398
 IR Inten    --      0.0537                 1.2424                 2.2349

                      4                      5                      6
                      A                      A                      A
 Frequencies --    199.4404               299.6144               339.5274
 Red. masses --      5.7902                 3.5736                 1.4092
 Frc consts  --      0.1357                 0.1890                 0.0957
 IR Inten    --      1.8520                 4.5709                52.1819

                      7                      8                      9
                      A                      A                      A
 Frequencies --    352.9135               402.6513               429.9891
 Red. masses --      3.3963                 3.0668                 2.7645
 Frc consts  --      0.2492                 0.2929                 0.3011
 IR Inten    --      2.6745                 5.3799                 1.4870

                     10                     11                     12
                      A                      A                      A
 Frequencies --    483.3147               498.0735               558.2042
 Red. masses --      2.5408                 2.6516                11.8642
 Frc consts  --      0.3497                 0.3876                 2.1781
 IR Inten    --      8.0938                25.3150                10.4578

                     13                     14                     15
                      A                      A                      A
 Frequencies --    573.5978               658.0342               726.7981
 Red. masses --      5.6024                 6.8109                 1.5277
 Frc consts  --      1.0860                 1.7376                 0.4755
 IR Inten    --      2.2932                11.0102                23.2792

                     16                     17                     18
                      A                      A                      A
 Frequencies --    790.4664               844.8056               912.1003
 Red. masses --      5.3508                 5.1791                 2.5566
 Frc consts  --      1.9698                 2.1778                 1.2531
 IR Inten    --     19.5123                27.1586                30.4505

                     19                     20                     21
                      A                      A                      A
 Frequencies --    939.9177               946.4847               980.9733
 Red. masses --      4.6535                 1.2593                 2.0070
 Frc consts  --      2.4222                 0.6647                 1.1379
 IR Inten    --     43.3151                10.1598                10.2353

                     22                     23                     24
                      A                      A                      A
 Frequencies --    989.4127              1021.0534              1097.1096
 Red. masses --      2.8246                 2.5808                 2.0233
 Frc consts  --      1.6292                 1.5853                 1.4349
 IR Inten    --     22.3520                21.2056                25.9694

                     25                     26                     27
                      A                      A                      A
 Frequencies --   1108.5762              1156.3477              1212.9959
 Red. masses --      2.2937                 1.9413                 4.0474
 Frc consts  --      1.6608                 1.5294                 3.5087
 IR Inten    --     12.3496                43.6511                92.4665

                     28                     29                     30
                      A                      A                      A
 Frequencies --   1232.9926              1258.5736              1283.0288
 Red. masses --      2.7102                 1.5278                 1.3073
 Frc consts  --      2.4276                 1.4259                 1.2680
 IR Inten    --     11.1762                34.5436                 3.1849

                     31                     32                     33
                      A                      A                      A
 Frequencies --   1345.9531              1360.6948              1374.2657
 Red. masses --      1.2275                 1.2280                 1.4163
 Frc consts  --      1.3102                 1.3396                 1.5760
 IR Inten    --      5.6326                 0.7688                 1.4529

                     34                     35                     36
                      A                      A                      A
 Frequencies --   1402.0779              1439.1712              1497.3292
 Red. masses --      1.5184                 1.5282                 1.0927
 Frc consts  --      1.7586                 1.8649                 1.4434
 IR Inten    --     13.9846                13.8920                 2.2007

                     37                     38                     39
                      A                      A                      A
 Frequencies --   1519.5737              1705.7252              1725.6569
 Red. masses --      1.0939                 1.0802                 6.0025
 Frc consts  --      1.4882                 1.8516                10.5315
 IR Inten    --      3.3786                 9.2288                39.8839

                     40                     41                     42
                      A                      A                      A
 Frequencies --   2224.8989              3022.5766              3041.7081
 Red. masses --     13.9873                 1.0718                 1.0646
 Frc consts  --     40.7947                 5.7690                 5.8031
 IR Inten    --    532.6703                40.2648                53.8583

                     43                     44                     45
                      A                      A                      A
 Frequencies --   3116.2718              3119.8712              3199.4600
 Red. masses --      1.0922                 1.1022                 1.0879
 Frc consts  --      6.2494                 6.3207                 6.5612
 IR Inten    --     15.1597                19.5686                 6.4255

                     46                     47                     48
                      A                      A                      A
 Frequencies --   3231.8068              3395.1895              3527.1881
 Red. masses --      1.0969                 1.0529                 1.0888
 Frc consts  --      6.7501                 7.1508                 7.9808
 IR Inten    --     10.5543                 9.4841                 0.1443

 - Thermochemistry -
 -------------------
 Temperature   298.150 Kelvin.  Pressure   1.00000 Atm.
 Atom     1 has atomic number  6 and mass  12.00000

 Molecular mass:   140.08104 amu.
 Principal axes and moments of inertia in atomic units:
                           1         2         3
     Eigenvalues --   643.309512002.769882353.46757
           X            0.99999   0.00517  -0.00136
           Y           -0.00518   0.99991  -0.01211
           Z            0.00130   0.01211   0.99993
 This molecule is an asymmetric top.
 Rotational symmetry number  1.
 Warning -- assumption of classical behavior for rotation
           may cause significant error
 Rotational temperatures (Kelvin)      0.13464     0.04325     0.03680
 Rotational constants (GHZ):           2.80540     0.90112     0.76684
 Zero-point vibrational energy     375657.9 (Joules/Mol)
                                   89.78438 (Kcal/Mol)
 Warning -- explicit consideration of  13 degrees of freedom as
           vibrations may cause significant error
 Vibrational temperatures:     53.35   106.00   212.82   286.95   431.08
          (Kelvin)            488.50   507.76   579.33   618.66   695.38
                              716.62   803.13   825.28   946.76  1045.70
                             1137.30  1215.49  1312.31  1352.33  1361.78
                             1411.40  1423.54  1469.07  1578.50  1594.99
                             1663.73  1745.23  1774.00  1810.81  1845.99
                             1936.53  1957.74  1977.26  2017.28  2070.65
                             2154.32  2186.33  2454.16  2482.84  3201.13
                             4348.81  4376.34  4483.62  4488.80  4603.31
                             4649.85  4884.92  5074.84

 Zero-point correction=                           0.143081 (Hartree/Particle)
 Thermal correction to Energy=                    0.152146
 Thermal correction to Enthalpy=                  0.153091
 Thermal correction to Gibbs Free Energy=         0.108133
 Sum of electronic and zero-point Energies=           -485.460863
 Sum of electronic and thermal Energies=              -485.451797
 Sum of electronic and thermal Enthalpies=            -485.450853
 Sum of electronic and thermal Free Energies=         -485.495811

                     E (Thermal)             CV                S
                      KCal/Mol        Cal/Mol-Kelvin    Cal/Mol-Kelvin
 Total                   95.473             33.845             94.621
 Electronic               0.000              0.000              0.000
 Translational            0.889              2.981             40.723
 Rotational               0.889              2.981             29.496
 Vibrational             93.696             27.884             24.403
 Vibration     1          0.594              1.982              5.409
 Vibration     2          0.599              1.966              4.053
 Vibration     3          0.617              1.905              2.699
 Vibration     4          0.638              1.841              2.138
 Vibration     5          0.692              1.674              1.419
 Vibration     6          0.719              1.597              1.214
 Vibration     7          0.729              1.569              1.153
 Vibration     8          0.768              1.464              0.953
 Vibration     9          0.791              1.405              0.859
 Vibration    10          0.839              1.287              0.701
 Vibration    11          0.854              1.254              0.663
 Vibration    12          0.914              1.122              0.527
 Vibration    13          0.930              1.088              0.497

                           ! Non-Optimized Parameters !
 Normal termination of Gaussian 16 at Tue Dec  8 10:32:24 2020.

 ----------------------------------------------------------------------
 # B3LYP/6-311++G(d,p) empiricaldispersion=gd3bj scf=xqc pop=npa geom=c
 heck
 ----------------------------------------------------------------------

 --------------------------------------
 CID_150334016_JID_356_Energie_neutraal
 --------------------------------------
 Structure from the checkpoint file:  "JID_356.chk"
 Charge =  0 Multiplicity = 1

 SCF Done:  E(RB3LYP) =  -485.746559993     A.U. after   15 cycles
 Normal termination of Gaussian 16 at Tue Dec  8 10:33:34 2020.

 ----------------------------------------------------------------------
 # B3LYP/6-311++G(d,p) empiricaldispersion=gd3bj scf=xqc pop=npa geom=c
 heck
 ----------------------------------------------------------------------

 ------------------------------------
 CID_150334016_JID_356_Energie_kation
 ------------------------------------
 Structure from the checkpoint file:  "JID_356.chk"
 Charge =  1 Multiplicity = 2

 SCF Done:  E(UB3LYP) =  -485.446931002     A.U. after   25 cycles
 Normal termination of Gaussian 16 at Tue Dec  8 10:38:03 2020.
 Gaussian 16:  ES64L-G16RevA.03 25-Dec-2016

 ----------------------------------------------------------------------
 # B3LYP/6-311++G(d,p) empiricaldispersion=gd3bj scf=xqc pop=npa geom=c
 heck
 ----------------------------------------------------------------------

 -----------------------------------
 CID_150334016_JID_356_Energie_anion
 -----------------------------------
 Structure from the checkpoint file:  "JID_356.chk"
 Charge = -1 Multiplicity = 2

                         Standard orientation:
 ---------------------------------------------------------------------
 Center     Atomic      Atomic             Coordinates (Angstroms)
 Number     Number       Type             X           Y           Z
 ---------------------------------------------------------------------
      1          6           0        2.412264    0.284035    0.195826
      2          6           0        1.629519    1.457243   -0.339726
      3          6           0        0.293567    1.429321   -0.421114
      4          7           0       -0.454209    0.287574   -0.044253
      5          6           0        0.280903   -0.548596    0.940035
      6          7           0        1.574680   -0.909961    0.407536
      7          7           0        1.484765   -1.669773   -0.805893
      8          7           0       -1.749152    0.676617    0.483965
      9          7           0       -2.658223   -0.016594   -0.026769
     10          7           0       -3.590738   -0.569761   -0.376743
     11          1           0        2.893371    0.545773    1.149653
     12          1           0        3.205441   -0.015691   -0.494086
     13          1           0        2.164690    2.339038   -0.679069
     14          1           0       -0.301835    2.242348   -0.820760
     15          1           0       -0.312595   -1.446589    1.131204
     16          1           0        0.418461    0.005739    1.878419
     17          1           0        1.310990   -2.635380   -0.532992
     18          1           0        0.674096   -1.353956   -1.347398
 ---------------------------------------------------------------------

 SCF Done:  E(UB3LYP) =  -485.747127220     A.U. after   31 cycles

 The electronic state is 2-A.
 Alpha  occ. eigenvalues --  -14.27884 -14.21796 -14.21662 -14.21371 -14.20557
 Alpha  occ. eigenvalues --  -14.19555 -10.10200 -10.07959 -10.07326 -10.03817
 Alpha  occ. eigenvalues --   -0.96697  -0.87881  -0.84194  -0.75017  -0.68311
 Alpha  occ. eigenvalues --   -0.64783  -0.55335  -0.51996  -0.44209  -0.42165
 Alpha  occ. eigenvalues --   -0.38162  -0.37218  -0.36891  -0.35033  -0.33041
 Alpha  occ. eigenvalues --   -0.31269  -0.30664  -0.28866  -0.28211  -0.26733
 Alpha  occ. eigenvalues --   -0.25856  -0.20946  -0.16545  -0.14941  -0.12752
 Alpha  occ. eigenvalues --   -0.10322  -0.07666   0.05349
 Alpha virt. eigenvalues --    0.07946   0.08659   0.09916   0.10499   0.11780
 Alpha virt. eigenvalues --    0.12323   0.12895   0.13486   0.13947   0.16040
 Alpha virt. eigenvalues --    0.16971   0.18405   0.18553   0.18954   0.19891

  Beta  occ. eigenvalues --  -14.27409 -14.21798 -14.21470 -14.21431 -14.20533
  Beta  occ. eigenvalues --  -14.18827 -10.10182 -10.07940 -10.07315 -10.03807
  Beta  occ. eigenvalues --   -0.95757  -0.87738  -0.83843  -0.74647  -0.68173
  Beta  occ. eigenvalues --   -0.64723  -0.55097  -0.51944  -0.43810  -0.42088
  Beta  occ. eigenvalues --   -0.38023  -0.37143  -0.36745  -0.33817  -0.32345
  Beta  occ. eigenvalues --   -0.30941  -0.30224  -0.28647  -0.26949  -0.26416
  Beta  occ. eigenvalues --   -0.25753  -0.19952  -0.15991  -0.14902  -0.12654
  Beta  occ. eigenvalues --   -0.10130  -0.07506
  Beta virt. eigenvalues --    0.07975   0.09065   0.10185   0.10533   0.12014
  Beta virt. eigenvalues --    0.12419   0.12951   0.13442   0.13569   0.14134
  Beta virt. eigenvalues --    0.16080   0.17286   0.18449   0.18590   0.18928

 Mulliken charges and spin densities:
               1          2
     1  C    0.775030  -1.386703
     2  C   -0.587305   0.483405
     3  C    0.146780  -0.276965
     4  N   -0.075366   0.203018
     5  C    0.508925  -0.850968
     6  N    0.050487   0.122744
     7  N   -0.732585   0.122528
     8  N   -0.699587   0.205150
     9  N    0.377893   0.058351
    10  N   -0.164699   0.261166
    11  H   -0.101876   0.260187
    12  H    0.012010   0.160567
    13  H   -0.493229   0.635336
    14  H   -0.218006   0.398544
    15  H    0.008248   0.165558
    16  H   -0.149988   0.306723
    17  H    0.133612   0.113354
    18  H    0.209656   0.018004
 Sum of Mulliken charges =  -1.00000   1.00000

 Dipole moment (field-independent basis, Debye):
    X=              2.6495    Y=             -1.5306    Z=             -0.0565  Tot=              3.0604
 Quadrupole moment (field-independent basis, Debye-Ang):
   XX=           -111.2534   YY=            -80.8917   ZZ=            -75.7882
   XY=             -2.9970   XZ=              0.0468   YZ=             -1.7173

 Summary of Natural Population Analysis:

                                       Natural Population
                Natural  -----------------------------------------------
    Atom  No    Charge         Core      Valence    Rydberg      Total
 -----------------------------------------------------------------------
      C    1   -0.09983      0.99960     2.08673    0.01350     3.09983
      C    2   -0.15671      0.99954     2.14694    0.01023     3.15671
      C    3    0.01087      0.99949     1.97536    0.01428     2.98913
      N    4   -0.18665      0.99966     2.67175    0.01524     3.68665
      C    5    0.00888      0.99960     1.97802    0.01350     2.99112
      N    6   -0.19945      0.99973     2.68198    0.01774     3.69945
      N    7   -0.32993      0.99977     2.81900    0.01116     3.82993
      N    8   -0.16582      0.99972     2.65019    0.01591     3.66582
      N    9    0.14703      0.99971     2.33799    0.01528     3.35297
      N   10    0.04289      0.99982     2.44271    0.01458     3.45711
      H   11    0.09476      0.00000     0.40377    0.00147     0.40524
      H   12    0.10423      0.00000     0.39415    0.00161     0.39577
      H   13    0.09993      0.00000     0.39850    0.00156     0.40007
      H   14    0.10201      0.00000     0.39618    0.00181     0.39799
      H   15    0.09526      0.00000     0.40268    0.00206     0.40474
      H   16    0.09126      0.00000     0.40641    0.00233     0.40874
      H   17    0.16968      0.00000     0.32818    0.00214     0.33032
      H   18    0.17160      0.00000     0.32598    0.00242     0.32840
 =======================================================================
   * Total *    0.00000      9.99664    26.84653    0.15683    37.00000

 Normal termination of Gaussian 16 at Tue Dec  8 10:44:27 2020.
