 Gaussian 16, Revision A.03,

 -----------------------------------------------------------
 # opt freq B3LYP/6-31G(d) empiricaldispersion=gd3bj scf=xqc
 -----------------------------------------------------------

 -------------------------------
 CID_141191084_JID_4248_neutraal
 -------------------------------
 Symbolic Z-matrix:
 Charge =  0 Multiplicity = 1

 SCF Done:  E(RB3LYP) =  -613.606909882     A.U. after   15 cycles
 SCF Done:  E(RB3LYP) =  -613.609015639     A.U. after   13 cycles
 SCF Done:  E(RB3LYP) =  -613.609228136     A.U. after   12 cycles
 SCF Done:  E(RB3LYP) =  -613.609614217     A.U. after   11 cycles
 SCF Done:  E(RB3LYP) =  -613.609709230     A.U. after   11 cycles
 SCF Done:  E(RB3LYP) =  -613.609843080     A.U. after   12 cycles
 SCF Done:  E(RB3LYP) =  -613.609910576     A.U. after   11 cycles
 SCF Done:  E(RB3LYP) =  -613.609961629     A.U. after   12 cycles
 SCF Done:  E(RB3LYP) =  -613.609996685     A.U. after   11 cycles
 SCF Done:  E(RB3LYP) =  -613.610001162     A.U. after   11 cycles
 SCF Done:  E(RB3LYP) =  -613.610065857     A.U. after    9 cycles
 SCF Done:  E(RB3LYP) =  -613.610066290     A.U. after    9 cycles
 SCF Done:  E(RB3LYP) =  -613.610066709     A.U. after    9 cycles
 SCF Done:  E(RB3LYP) =  -613.610066917     A.U. after    9 cycles
 SCF Done:  E(RB3LYP) =  -613.610066938     A.U. after    7 cycles
 SCF Done:  E(RB3LYP) =  -613.610066941     A.U. after    6 cycles
 Optimization completed.
    -- Stationary point found.
 Normal termination of Gaussian 16 at Thu Dec 10 09:33:11 2020.

 --------------------------------------------------------------------
 #N Geom=AllCheck Guess=TCheck SCRF=Check GenChk RB3LYP/6-31G(d) Freq
 --------------------------------------------------------------------

 Structure from the checkpoint file:  "JID_4248.chk"
 -------------------------------
 CID_141191084_JID_4248_neutraal
 -------------------------------
 Charge =  0 Multiplicity = 1

 SCF Done:  E(RB3LYP) =  -613.610066941     A.U. after    1 cycles

  Exact polarizability: 160.975   1.244 122.753  13.491  12.886  91.602
 Approx polarizability: 216.206  -5.631 211.817  21.757  34.196 138.103

                      1                      2                      3
                      A                      A                      A
 Frequencies --     23.2571                36.5361                41.9837
 Red. masses --      4.1844                 3.6518                 1.2321
 Frc consts  --      0.0013                 0.0029                 0.0013
 IR Inten    --      7.5782                 3.0542                 0.1097

                      4                      5                      6
                      A                      A                      A
 Frequencies --     52.1170                69.3472                95.6006
 Red. masses --      2.5692                 4.4483                 2.0305
 Frc consts  --      0.0041                 0.0126                 0.0109
 IR Inten    --      0.0390                 0.5848                 1.3210

                      7                      8                      9
                      A                      A                      A
 Frequencies --    168.3877               203.5731               216.9022
 Red. masses --      5.3077                 3.2694                 1.8659
 Frc consts  --      0.0887                 0.0798                 0.0517
 IR Inten    --      4.9202                 1.6481                22.2965

                     10                     11                     12
                      A                      A                      A
 Frequencies --    221.8225               229.3640               246.0795
 Red. masses --      1.5137                 1.7142                 1.9877
 Frc consts  --      0.0439                 0.0531                 0.0709
 IR Inten    --     71.8975                85.6599                19.9804

                     13                     14                     15
                      A                      A                      A
 Frequencies --    291.1486               349.7282               358.6340
 Red. masses --      2.6948                 3.0044                 2.6714
 Frc consts  --      0.1346                 0.2165                 0.2024
 IR Inten    --      0.8294                 0.1658                 3.4689

                     16                     17                     18
                      A                      A                      A
 Frequencies --    398.9258               457.9443               495.3468
 Red. masses --      2.2612                 3.9247                 3.5739
 Frc consts  --      0.2120                 0.4849                 0.5167
 IR Inten    --      1.5709                 0.4163                 4.5695

                     19                     20                     21
                      A                      A                      A
 Frequencies --    525.2344               545.7510               559.5282
 Red. masses --      2.3991                 4.9681                 3.0157
 Frc consts  --      0.3899                 0.8718                 0.5563
 IR Inten    --      5.8954                 0.5276                15.5681

                     22                     23                     24
                      A                      A                      A
 Frequencies --    585.0538               634.6688               724.0202
 Red. masses --      1.6106                 3.1356                 5.0981
 Frc consts  --      0.3248                 0.7442                 1.5746
 IR Inten    --      7.1136                 7.4245                10.6220

                     25                     26                     27
                      A                      A                      A
 Frequencies --    740.4281               780.9592               791.4458
 Red. masses --      2.5460                 3.7866                 1.3969
 Frc consts  --      0.8224                 1.3607                 0.5155
 IR Inten    --      5.8084                 4.4883                 8.7113

                     28                     29                     30
                      A                      A                      A
 Frequencies --    841.0226               897.6830               908.1771
 Red. masses --      1.8837                 1.6366                 2.6736
 Frc consts  --      0.7850                 0.7770                 1.2992
 IR Inten    --      4.9177                 6.6915                 3.0681

                     31                     32                     33
                      A                      A                      A
 Frequencies --    950.8252               958.8244               966.3171
 Red. masses --      1.3379                 1.4698                 1.5849
 Frc consts  --      0.7126                 0.7961                 0.8719
 IR Inten    --      0.3291                 0.3188                 0.7586

                     34                     35                     36
                      A                      A                      A
 Frequencies --    979.4007              1006.2932              1032.5260
 Red. masses --      2.6484                 2.7045                 1.8224
 Frc consts  --      1.4968                 1.6136                 1.1447
 IR Inten    --      1.2901                 2.1783                 0.3413

                     37                     38                     39
                      A                      A                      A
 Frequencies --   1056.2710              1069.8416              1078.5799
 Red. masses --      3.5453                 2.0399                 1.5304
 Frc consts  --      2.3305                 1.3756                 1.0490
 IR Inten    --      9.3936                 2.0032                 4.5891

                     40                     41                     42
                      A                      A                      A
 Frequencies --   1098.6952              1126.1576              1144.6246
 Red. masses --      2.1089                 1.5543                 1.9756
 Frc consts  --      1.4999                 1.1614                 1.5250
 IR Inten    --      0.6917                 0.3644                 1.1130

                     43                     44                     45
                      A                      A                      A
 Frequencies --   1202.9388              1205.8364              1239.2040
 Red. masses --      1.6312                 2.3578                 1.5063
 Frc consts  --      1.3907                 2.0199                 1.3629
 IR Inten    --      2.2263                10.2374                 3.8079

                     46                     47                     48
                      A                      A                      A
 Frequencies --   1292.5107              1305.1758              1310.7724
 Red. masses --      1.3203                 2.1445                 3.1525
 Frc consts  --      1.2995                 2.1523                 3.1913
 IR Inten    --     13.0369                 3.3669                 4.2709

                     49                     50                     51
                      A                      A                      A
 Frequencies --   1330.3917              1350.7214              1367.5461
 Red. masses --      1.4858                 1.3010                 1.2762
 Frc consts  --      1.5494                 1.3985                 1.4062
 IR Inten    --      7.1503                 1.7383                 0.6029

                     52                     53                     54
                      A                      A                      A
 Frequencies --   1371.9183              1387.6543              1412.6729
 Red. masses --      3.1463                 1.3162                 1.4898
 Frc consts  --      3.4891                 1.4933                 1.7517
 IR Inten    --    147.2387                 6.3972                 1.1187

                     55                     56                     57
                      A                      A                      A
 Frequencies --   1443.4976              1444.7438              1478.5259
 Red. masses --      1.2358                 1.2435                 2.3305
 Frc consts  --      1.5172                 1.5293                 3.0016
 IR Inten    --      2.3154                 0.5022                17.1206

                     58                     59                     60
                      A                      A                      A
 Frequencies --   1495.5299              1515.3994              1517.8148
 Red. masses --      2.4453                 1.0446                 1.0974
 Frc consts  --      3.2224                 1.4133                 1.4895
 IR Inten    --     15.8528                 6.5280                 1.9585

                     61                     62                     63
                      A                      A                      A
 Frequencies --   1525.3245              1529.4872              1531.1979
 Red. masses --      1.0557                 1.0794                 1.1734
 Frc consts  --      1.4471                 1.4877                 1.6210
 IR Inten    --      8.1939                 7.8996                 5.3036

                     64                     65                     66
                      A                      A                      A
 Frequencies --   1541.3909              1631.8707              1644.5095
 Red. masses --      1.0711                 5.0036                 1.2526
 Frc consts  --      1.4993                 7.8507                 1.9959
 IR Inten    --      3.7252                 5.6713               140.4515

                     67                     68                     69
                      A                      A                      A
 Frequencies --   1658.6048              1801.4738              3016.1956
 Red. masses --      5.5984                 8.8060                 1.0634
 Frc consts  --      9.0741                16.8378                 5.7000
 IR Inten    --      1.2635               284.4528                23.7241

                     70                     71                     72
                      A                      A                      A
 Frequencies --   3047.6791              3049.1715              3054.1747
 Red. masses --      1.0373                 1.0596                 1.0607
 Frc consts  --      5.6769                 5.8045                 5.8293
 IR Inten    --     29.5104                17.4653                16.8619

                     73                     74                     75
                      A                      A                      A
 Frequencies --   3060.2809              3075.2166              3095.6198
 Red. masses --      1.0759                 1.0867                 1.1022
 Frc consts  --      5.9369                 6.0550                 6.2229
 IR Inten    --     30.4752                12.9154                15.6133

                     76                     77                     78
                      A                      A                      A
 Frequencies --   3101.8917              3114.1299              3128.4138
 Red. masses --      1.1011                 1.1020                 1.1013
 Frc consts  --      6.2419                 6.2967                 6.3506
 IR Inten    --     17.0833                32.9550                13.3868

                     79                     80                     81
                      A                      A                      A
 Frequencies --   3154.7495              3161.2444              3163.1273
 Red. masses --      1.0885                 1.0915                 1.0974
 Frc consts  --      6.3829                 6.4268                 6.4691
 IR Inten    --     45.0451                22.6510                20.7167

                     82                     83                     84
                      A                      A                      A
 Frequencies --   3168.6588              3594.7954              3721.5123
 Red. masses --      1.0907                 1.0451                 1.1044
 Frc consts  --      6.4524                 7.9574                 9.0118
 IR Inten    --      6.5782                30.6624                32.1392

 - Thermochemistry -
 -------------------
 Temperature   298.150 Kelvin.  Pressure   1.00000 Atm.
 Atom     1 has atomic number  6 and mass  12.00000

 Molecular mass:   192.12626 amu.
 Principal axes and moments of inertia in atomic units:
                           1         2         3
     Eigenvalues --  1410.979164985.489945298.43391
           X            0.99951   0.02984   0.00972
           Y           -0.02960   0.99928  -0.02362
           Z           -0.01042   0.02332   0.99967
 This molecule is an asymmetric top.
 Rotational symmetry number  1.
 Warning -- assumption of classical behavior for rotation
           may cause significant error
 Rotational temperatures (Kelvin)      0.06139     0.01737     0.01635
 Rotational constants (GHZ):           1.27907     0.36200     0.34062
 Zero-point vibrational energy     677101.9 (Joules/Mol)
                                  161.83124 (Kcal/Mol)
 Warning -- explicit consideration of  22 degrees of freedom as
           vibrations may cause significant error
 Vibrational temperatures:     33.46    52.57    60.41    74.98    99.78
          (Kelvin)            137.55   242.27   292.90   312.07   319.15
                              330.00   354.05   418.90   503.18   515.99
                              573.97   658.88   712.69   755.70   785.21
                              805.04   841.76   913.15  1041.70  1065.31
                             1123.63  1138.71  1210.04  1291.57  1306.66
                             1368.03  1379.53  1390.31  1409.14  1447.83
                             1485.57  1519.74  1539.26  1551.84  1580.78
                             1620.29  1646.86  1730.76  1734.93  1782.94
                             1859.63  1877.86  1885.91  1914.14  1943.39
                             1967.59  1973.88  1996.52  2032.52  2076.87
                             2078.66  2127.27  2151.73  2180.32  2183.80
                             2194.60  2200.59  2203.05  2217.72  2347.90
                             2366.08  2386.36  2591.92  4339.63  4384.93
                             4387.08  4394.28  4403.06  4424.55  4453.91
                             4462.93  4480.54  4501.09  4538.98  4548.33
                             4551.03  4558.99  5172.11  5354.43

 Zero-point correction=                           0.257895 (Hartree/Particle)
 Thermal correction to Energy=                    0.272893
 Thermal correction to Enthalpy=                  0.273838
 Thermal correction to Gibbs Free Energy=         0.213609
 Sum of electronic and zero-point Energies=           -613.352172
 Sum of electronic and thermal Energies=              -613.337174
 Sum of electronic and thermal Enthalpies=            -613.336229
 Sum of electronic and thermal Free Energies=         -613.396458

                     E (Thermal)             CV                S
                      KCal/Mol        Cal/Mol-Kelvin    Cal/Mol-Kelvin
 Total                  171.243             54.295            126.762
 Electronic               0.000              0.000              0.000
 Translational            0.889              2.981             41.664
 Rotational               0.889              2.981             31.989
 Vibrational            169.466             48.334             53.109
 Vibration     1          0.593              1.985              6.335
 Vibration     2          0.594              1.982              5.439
 Vibration     3          0.595              1.980              5.163
 Vibration     4          0.596              1.977              4.735
 Vibration     5          0.598              1.969              4.172
 Vibration     6          0.603              1.952              3.542
 Vibration     7          0.625              1.881              2.453
 Vibration     8          0.639              1.835              2.101
 Vibration     9          0.646              1.815              1.985
 Vibration    10          0.648              1.808              1.944
 Vibration    11          0.652              1.796              1.884
 Vibration    12          0.661              1.769              1.758
 Vibration    13          0.687              1.690              1.467
 Vibration    14          0.727              1.576              1.167
 Vibration    15          0.733              1.557              1.128
 Vibration    16          0.765              1.472              0.967
 Vibration    17          0.816              1.343              0.772
 Vibration    18          0.851              1.260              0.670
 Vibration    19          0.880              1.194              0.598
 Vibration    20          0.901              1.149              0.553
 Vibration    21          0.915              1.119              0.525
 Vibration    22          0.942              1.064              0.476

 Optimization completed.
    -- Stationary point found.
 Normal termination of Gaussian 16 at Thu Dec 10 09:41:33 2020.

 ----------------------------------------------------------------------
 # B3LYP/6-311++G(d,p) empiricaldispersion=gd3bj scf=xqc pop=npa geom=c
 heck
 ----------------------------------------------------------------------

 ---------------------------------------
 CID_141191084_JID_4248_Energie_neutraal
 ---------------------------------------
 Structure from the checkpoint file:  "JID_4248.chk"
 Charge =  0 Multiplicity = 1

 SCF Done:  E(RB3LYP) =  -613.786734969     A.U. after   16 cycles
 Normal termination of Gaussian 16 at Thu Dec 10 09:46:04 2020.

 ----------------------------------------------------------------------
 # B3LYP/6-311++G(d,p) empiricaldispersion=gd3bj scf=xqc pop=npa geom=c
 heck
 ----------------------------------------------------------------------

 -------------------------------------
 CID_141191084_JID_4248_Energie_kation
 -------------------------------------
 Structure from the checkpoint file:  "JID_4248.chk"
 Charge =  1 Multiplicity = 2

 SCF Done:  E(UB3LYP) =  -613.471187798     A.U. after   30 cycles
 Normal termination of Gaussian 16 at Thu Dec 10 09:57:51 2020.
 Gaussian 16:  ES64L-G16RevA.03 25-Dec-2016

 ----------------------------------------------------------------------
 # B3LYP/6-311++G(d,p) empiricaldispersion=gd3bj scf=xqc pop=npa geom=c
 heck
 ----------------------------------------------------------------------

 ------------------------------------
 CID_141191084_JID_4248_Energie_anion
 ------------------------------------
 Structure from the checkpoint file:  "JID_4248.chk"
 Charge = -1 Multiplicity = 2

                         Standard orientation:
 ---------------------------------------------------------------------
 Center     Atomic      Atomic             Coordinates (Angstroms)
 Number     Number       Type             X           Y           Z
 ---------------------------------------------------------------------
      1          6           0       -0.451302   -1.427094    1.950015
      2          6           0       -1.627228   -1.212817    0.989092
      3          6           0       -1.648664    0.166711    0.296111
      4          6           0       -0.786286    0.244305   -0.994408
      5          6           0        0.684248    0.009337   -0.769161
      6          6           0        1.304785   -1.173269   -1.186960
      7          7           0        2.591123   -1.461971   -0.969589
      8          6           0        3.322799   -0.551100   -0.319667
      9          6           0        2.829895    0.678506    0.134735
     10          6           0        1.480262    0.945123   -0.105448
     11          6           0        3.719273    1.665163    0.846327
     12          6           0       -3.048418    0.659030   -0.086051
     13          8           0       -3.338949    1.846762   -0.074124
     14          7           0       -3.921887   -0.298216   -0.527262
     15          1           0        0.511132   -1.419320    1.435411
     16          1           0       -0.550013   -2.388983    2.465110
     17          1           0       -0.431089   -0.640131    2.713020
     18          1           0       -1.625985   -2.009140    0.229749
     19          1           0       -2.555858   -1.331135    1.562415
     20          1           0       -1.277371    0.922896    0.996484
     21          1           0       -0.940759    1.237146   -1.432837
     22          1           0       -1.169648   -0.486601   -1.716852
     23          1           0        0.725762   -1.928246   -1.718557
     24          1           0        4.367532   -0.809447   -0.149072
     25          1           0        1.043133    1.883436    0.232348
     26          1           0        4.721809    1.254742    1.001007
     27          1           0        3.822952    2.593635    0.271817
     28          1           0        3.310719    1.935465    1.827122
     29          1           0       -3.739103   -1.283868   -0.420648
     30          1           0       -4.862451   -0.006606   -0.753072
 ---------------------------------------------------------------------

 SCF Done:  E(UB3LYP) =  -613.781202217     A.U. after   32 cycles

 The electronic state is 2-A.
 Alpha  occ. eigenvalues --  -18.98075 -14.22228 -14.18059 -10.16431 -10.08192
 Alpha  occ. eigenvalues --  -10.08110 -10.07802 -10.07733 -10.07408 -10.06949
 Alpha  occ. eigenvalues --  -10.06674 -10.06628 -10.05650 -10.05580  -0.93053
 Alpha  occ. eigenvalues --   -0.82201  -0.79633  -0.71812  -0.69709  -0.66761
 Alpha  occ. eigenvalues --   -0.62255  -0.59347  -0.55819  -0.51086  -0.50214
 Alpha  occ. eigenvalues --   -0.47868  -0.46282  -0.43156  -0.39992  -0.38508
 Alpha  occ. eigenvalues --   -0.37101  -0.35850  -0.33291  -0.32924  -0.31655
 Alpha  occ. eigenvalues --   -0.31281  -0.30603  -0.29770  -0.29457  -0.28093
 Alpha  occ. eigenvalues --   -0.28029  -0.27578  -0.26215  -0.25009  -0.24011
 Alpha  occ. eigenvalues --   -0.23214  -0.22803  -0.16643  -0.16592  -0.15041
 Alpha  occ. eigenvalues --   -0.13884  -0.13649   0.04427
 Alpha virt. eigenvalues --    0.06296   0.06907   0.08313   0.09059   0.09220
 Alpha virt. eigenvalues --    0.09404   0.10102   0.10732   0.11079   0.11724
 Alpha virt. eigenvalues --    0.12199   0.12322   0.12685   0.13325   0.14112

  Beta  occ. eigenvalues --  -18.98066 -14.22162 -14.17800 -10.16419 -10.08137
  Beta  occ. eigenvalues --  -10.08109 -10.07795 -10.07732 -10.07415 -10.06947
  Beta  occ. eigenvalues --  -10.06633 -10.06595 -10.05574 -10.05430  -0.93028
  Beta  occ. eigenvalues --   -0.81857  -0.79539  -0.71672  -0.69530  -0.66638
  Beta  occ. eigenvalues --   -0.62173  -0.59233  -0.55706  -0.50856  -0.50030
  Beta  occ. eigenvalues --   -0.47789  -0.46195  -0.43093  -0.39868  -0.38400
  Beta  occ. eigenvalues --   -0.37029  -0.35779  -0.33215  -0.32827  -0.31615
  Beta  occ. eigenvalues --   -0.31237  -0.30565  -0.29720  -0.29405  -0.28031
  Beta  occ. eigenvalues --   -0.27904  -0.27028  -0.26148  -0.24972  -0.23915
  Beta  occ. eigenvalues --   -0.23137  -0.22636  -0.16578  -0.15593  -0.14853
  Beta  occ. eigenvalues --   -0.13594  -0.13272
  Beta virt. eigenvalues --    0.06760   0.07586   0.08203   0.08744   0.09101
  Beta virt. eigenvalues --    0.09442   0.09733   0.10279   0.10983   0.11407
  Beta virt. eigenvalues --    0.11880   0.12313   0.12431   0.12903   0.13391

 Mulliken charges and spin densities:
               1          2
     1  C   -0.006310  -0.713447
     2  C    0.144146  -0.534461
     3  C    0.577796   0.143675
     4  C   -0.347948  -1.098320
     5  C    0.715880   0.670852
     6  C   -0.677870   0.161883
     7  N   -0.046906   0.109158
     8  C   -0.621162  -0.068861
     9  C    0.201167   0.114723
    10  C   -0.121284   0.143841
    11  C   -0.484680  -0.053095
    12  C    0.136021  -0.365655
    13  O   -0.342350  -0.004927
    14  N   -0.293617  -0.071655
    15  H    0.251867  -0.090267
    16  H   -0.031516   0.163222
    17  H    0.088844   0.038008
    18  H   -0.214032   0.370646
    19  H   -0.249356   0.413426
    20  H    0.251543  -0.073418
    21  H    0.090208   0.094179
    22  H    0.112206   0.050180
    23  H   -0.049890   0.222444
    24  H    0.116283   0.007097
    25  H    0.133691   0.028708
    26  H    0.117945   0.010403
    27  H    0.073603   0.080754
    28  H    0.149974  -0.006222
    29  H   -0.451236   0.729313
    30  H   -0.223018   0.527816
 Sum of Mulliken charges =  -1.00000   1.00000

 Dipole moment (field-independent basis, Debye):
    X=              6.5672    Y=              2.7126    Z=              2.2849  Tot=              7.4637
 Quadrupole moment (field-independent basis, Debye-Ang):
   XX=           -160.6106   YY=           -123.7141   ZZ=           -106.2426
   XY=              1.9538   XZ=              1.7308   YZ=             -0.9547

 Summary of Natural Population Analysis:

                                       Natural Population
                Natural  -----------------------------------------------
    Atom  No    Charge         Core      Valence    Rydberg      Total
 -----------------------------------------------------------------------
      C    1   -0.28340      0.99966     2.27806    0.00569     3.28340
      C    2   -0.19762      0.99963     2.18820    0.00979     3.19762
      C    3   -0.14311      0.99954     2.13164    0.01193     3.14311
      C    4   -0.20549      0.99961     2.19145    0.01444     3.20549
      C    5    0.02041      0.99950     1.97468    0.00540     2.97959
      C    6    0.00097      0.99957     1.97933    0.02012     2.99903
      N    7   -0.20385      0.99971     2.69195    0.01219     3.70385
      C    8    0.02460      0.99954     1.96147    0.01439     2.97540
      C    9   -0.04017      0.99951     2.03309    0.00757     3.04017
      C   10   -0.06376      0.99951     2.05122    0.01303     3.06376
      C   11   -0.29011      0.99964     2.28552    0.00495     3.29011
      C   12    0.34748      0.99965     1.62832    0.02454     2.65252
      O   13   -0.32857      0.99987     3.32258    0.00612     4.32857
      N   14   -0.40425      0.99970     2.89566    0.00889     3.90425
      H   15    0.10656      0.00000     0.39213    0.00132     0.39344
      H   16    0.09643      0.00000     0.40286    0.00070     0.40357
      H   17    0.09252      0.00000     0.40663    0.00085     0.40748
      H   18    0.09817      0.00000     0.39995    0.00188     0.40183
      H   19    0.09864      0.00000     0.39983    0.00153     0.40136
      H   20    0.10544      0.00000     0.39276    0.00180     0.39456
      H   21    0.10915      0.00000     0.38978    0.00107     0.39085
      H   22    0.10255      0.00000     0.39617    0.00127     0.39745
      H   23    0.08639      0.00000     0.41143    0.00218     0.41361
      H   24    0.08125      0.00000     0.41746    0.00130     0.41875
      H   25    0.09411      0.00000     0.40454    0.00135     0.40589
      H   26    0.09825      0.00000     0.40070    0.00105     0.40175
      H   27    0.10078      0.00000     0.39786    0.00136     0.39922
      H   28    0.10038      0.00000     0.39854    0.00108     0.39962
      H   29    0.20020      0.00000     0.28892    0.01088     0.29980
      H   30    0.19622      0.00000     0.30049    0.00330     0.30378
 =======================================================================
   * Total *    0.00016     13.99465    37.81323    0.19196    51.99984

 Normal termination of Gaussian 16 at Thu Dec 10 10:11:19 2020.
