 Gaussian 16, Revision A.03,

 -----------------------------------------------------------
 # opt freq B3LYP/6-31G(d) empiricaldispersion=gd3bj scf=xqc
 -----------------------------------------------------------

 -------------------------------
 CID_148428286_JID_1122_neutraal
 -------------------------------
 Symbolic Z-matrix:
 Charge =  0 Multiplicity = 1

 SCF Done:  E(RB3LYP) =  -480.711362289     A.U. after   17 cycles
 SCF Done:  E(RB3LYP) =  -480.730850861     A.U. after   14 cycles
 SCF Done:  E(RB3LYP) =  -480.730733692     A.U. after   14 cycles
 SCF Done:  E(RB3LYP) =  -480.729461170     A.U. after   14 cycles
 SCF Done:  E(RB3LYP) =  -480.728495325     A.U. after   14 cycles
 SCF Done:  E(RB3LYP) =  -480.731337097     A.U. after   11 cycles
 SCF Done:  E(RB3LYP) =  -480.732398129     A.U. after   13 cycles
 SCF Done:  E(RB3LYP) =  -480.732282673     A.U. after   12 cycles
 SCF Done:  E(RB3LYP) =  -480.732278022     A.U. after   13 cycles
 SCF Done:  E(RB3LYP) =  -480.732676968     A.U. after   12 cycles
 SCF Done:  E(RB3LYP) =  -480.733051311     A.U. after   11 cycles
 SCF Done:  E(RB3LYP) =  -480.733052792     A.U. after   10 cycles
 SCF Done:  E(RB3LYP) =  -480.733053526     A.U. after   12 cycles
 SCF Done:  E(RB3LYP) =  -480.733053994     A.U. after   10 cycles
 SCF Done:  E(RB3LYP) =  -480.733054305     A.U. after   10 cycles
 SCF Done:  E(RB3LYP) =  -480.733054318     A.U. after    7 cycles
 Optimization completed.
    -- Stationary point found.
 Normal termination of Gaussian 16 at Tue Dec  8 19:18:01 2020.

 --------------------------------------------------------------------
 #N Geom=AllCheck Guess=TCheck SCRF=Check GenChk RB3LYP/6-31G(d) Freq
 --------------------------------------------------------------------

 Structure from the checkpoint file:  "JID_1122.chk"
 -------------------------------
 CID_148428286_JID_1122_neutraal
 -------------------------------
 Charge =  0 Multiplicity = 1

 SCF Done:  E(RB3LYP) =  -480.733054318     A.U. after    1 cycles

  Exact polarizability: 140.332 -17.710 116.297   4.650   9.798  66.339
 Approx polarizability: 187.047 -45.524 196.224   7.299  23.259  96.028

                      1                      2                      3
                      A                      A                      A
 Frequencies --     14.2403                32.6072                59.2130
 Red. masses --      2.9792                 3.6422                 3.2185
 Frc consts  --      0.0004                 0.0023                 0.0066
 IR Inten    --      0.5490                 0.1579                 1.4290

                      4                      5                      6
                      A                      A                      A
 Frequencies --     71.8290               115.3121               123.0369
 Red. masses --      4.7865                 3.6686                 2.3518
 Frc consts  --      0.0146                 0.0287                 0.0210
 IR Inten    --      1.8429                 1.2341                 0.7225

                      7                      8                      9
                      A                      A                      A
 Frequencies --    163.6302               178.4093               246.0401
 Red. masses --      2.7720                 1.1092                 1.2765
 Frc consts  --      0.0437                 0.0208                 0.0455
 IR Inten    --      0.2119                 0.8775                 0.9680

                     10                     11                     12
                      A                      A                      A
 Frequencies --    270.8835               310.4601               318.8621
 Red. masses --      4.3846                 3.2278                 4.1780
 Frc consts  --      0.1896                 0.1833                 0.2503
 IR Inten    --      2.4028                 0.2905                 0.3931

                     13                     14                     15
                      A                      A                      A
 Frequencies --    372.2831               457.8848               522.3094
 Red. masses --      2.1909                 2.4338                 2.8490
 Frc consts  --      0.1789                 0.3006                 0.4579
 IR Inten    --      1.4469                 4.9121                22.3358

                     16                     17                     18
                      A                      A                      A
 Frequencies --    536.4006               552.0950               562.6130
 Red. masses --      1.9674                 3.3136                 1.8041
 Frc consts  --      0.3335                 0.5951                 0.3365
 IR Inten    --     45.1187                15.6578                32.4868

                     19                     20                     21
                      A                      A                      A
 Frequencies --    634.2370               657.8380               739.4737
 Red. masses --      4.2864                 4.1309                 2.4411
 Frc consts  --      1.0159                 1.0533                 0.7865
 IR Inten    --     11.8543                 7.8842                15.5298

                     22                     23                     24
                      A                      A                      A
 Frequencies --    748.7026               786.1191               875.3003
 Red. masses --      2.0312                 1.3455                 2.8218
 Frc consts  --      0.6708                 0.4899                 1.2738
 IR Inten    --     13.2002                21.3810                 3.5667

                     25                     26                     27
                      A                      A                      A
 Frequencies --    883.2665               914.7147               934.9679
 Red. masses --      2.1253                 1.7214                 1.3472
 Frc consts  --      0.9769                 0.8486                 0.6939
 IR Inten    --      2.1049                10.3769                37.3326

                     28                     29                     30
                      A                      A                      A
 Frequencies --   1002.4478              1033.4896              1047.2172
 Red. masses --      1.7236                 1.6197                 1.5419
 Frc consts  --      1.0205                 1.0193                 0.9962
 IR Inten    --      7.4189                 6.4265                 2.3452

                     31                     32                     33
                      A                      A                      A
 Frequencies --   1086.8462              1096.5272              1136.8747
 Red. masses --      1.4531                 2.2908                 1.7267
 Frc consts  --      1.0113                 1.6229                 1.3149
 IR Inten    --      0.8913                15.7268                10.1120

                     34                     35                     36
                      A                      A                      A
 Frequencies --   1183.9027              1279.3472              1312.5290
 Red. masses --      2.5129                 1.6615                 1.9814
 Frc consts  --      2.0752                 1.6022                 2.0111
 IR Inten    --      4.7081                59.6193                 5.0753

                     37                     38                     39
                      A                      A                      A
 Frequencies --   1325.4176              1371.5815              1396.9489
 Red. masses --      1.3290                 2.1075                 1.4435
 Frc consts  --      1.3755                 2.3359                 1.6597
 IR Inten    --     19.5426               252.3856                 7.5494

                     40                     41                     42
                      A                      A                      A
 Frequencies --   1422.6420              1437.8094              1447.4540
 Red. masses --      1.4145                 1.2445                 1.3188
 Frc consts  --      1.6867                 1.5159                 1.6280
 IR Inten    --     52.5875                 9.6526                 4.9225

                     43                     44                     45
                      A                      A                      A
 Frequencies --   1459.9377              1484.0643              1505.2197
 Red. masses --      1.2575                 1.6580                 1.0438
 Frc consts  --      1.5791                 2.1515                 1.3933
 IR Inten    --      1.5879                62.7128                 7.2345

                     46                     47                     48
                      A                      A                      A
 Frequencies --   1512.4539              1517.0372              1522.8413
 Red. masses --      1.1040                 1.0947                 1.0557
 Frc consts  --      1.4880                 1.4844                 1.4424
 IR Inten    --     22.6785                 5.7398                 8.9530

                     49                     50                     51
                      A                      A                      A
 Frequencies --   1532.1459              1540.1192              1695.2017
 Red. masses --      1.0523                 1.0549                 4.5299
 Frc consts  --      1.4554                 1.4742                 7.6697
 IR Inten    --      8.1233                 5.6594                 1.4822

                     52                     53                     54
                      A                      A                      A
 Frequencies --   1758.9781              2323.8599              3043.1451
 Red. masses --      8.5390                11.9834                 1.0614
 Frc consts  --     15.5661                38.1284                 5.7910
 IR Inten    --    407.7165                94.4719                16.5034

                     55                     56                     57
                      A                      A                      A
 Frequencies --   3045.2002              3054.2755              3062.9159
 Red. masses --      1.0394                 1.0353                 1.0682
 Frc consts  --      5.6787                 5.6901                 5.9044
 IR Inten    --     31.5410                17.5269                20.8368

                     58                     59                     60
                      A                      A                      A
 Frequencies --   3084.7314              3111.9699              3113.4166
 Red. masses --      1.0949                 1.1002                 1.1013
 Frc consts  --      6.1386                 6.2778                 6.2894
 IR Inten    --     19.1332                43.8961                13.7595

                     61                     62                     63
                      A                      A                      A
 Frequencies --   3119.8066              3123.4200              3140.3029
 Red. masses --      1.1029                 1.1020                 1.1034
 Frc consts  --      6.3247                 6.3340                 6.4112
 IR Inten    --     32.9370                30.9564                16.3453

                     64                     65                     66
                      A                      A                      A
 Frequencies --   3175.3947              3262.2370              3611.7750
 Red. masses --      1.0593                 1.1174                 1.0761
 Frc consts  --      6.2930                 7.0065                 8.2711
 IR Inten    --      4.2108                 9.7247                38.7876

 - Thermochemistry -
 -------------------
 Temperature   298.150 Kelvin.  Pressure   1.00000 Atm.
 Atom     1 has atomic number  6 and mass  12.00000

 Molecular mass:   151.09971 amu.
 Principal axes and moments of inertia in atomic units:
                           1         2         3
     Eigenvalues --  1173.804123255.197944082.38657
           X            0.99978   0.02091  -0.00076
           Y           -0.02091   0.99978  -0.00234
           Z            0.00071   0.00236   1.00000
 This molecule is an asymmetric top.
 Rotational symmetry number  1.
 Warning -- assumption of classical behavior for rotation
           may cause significant error
 Rotational temperatures (Kelvin)      0.07379     0.02661     0.02122
 Rotational constants (GHZ):           1.53751     0.55442     0.44208
 Zero-point vibrational energy     535114.8 (Joules/Mol)
                                  127.89551 (Kcal/Mol)
 Warning -- explicit consideration of  18 degrees of freedom as
           vibrations may cause significant error
 Vibrational temperatures:     20.49    46.91    85.19   103.35   165.91
          (Kelvin)            177.02   235.43   256.69   354.00   389.74
                              446.68   458.77   535.63   658.79   751.49
                              771.76   794.34   809.47   912.53   946.48
                             1063.94  1077.22  1131.05  1259.36  1270.82
                             1316.07  1345.21  1442.30  1486.96  1506.71
                             1563.73  1577.66  1635.71  1703.37  1840.70
                             1888.44  1906.98  1973.40  2009.90  2046.86
                             2068.69  2082.56  2100.52  2135.24  2165.68
                             2176.08  2182.68  2191.03  2204.42  2215.89
                             2439.02  2530.78  3343.52  4378.41  4381.36
                             4394.42  4406.85  4438.24  4477.43  4479.51
                             4488.71  4493.90  4518.20  4568.68  4693.63
                             5196.54

 Zero-point correction=                           0.203814 (Hartree/Particle)
 Thermal correction to Energy=                    0.216838
 Thermal correction to Enthalpy=                  0.217782
 Thermal correction to Gibbs Free Energy=         0.161904
 Sum of electronic and zero-point Energies=           -480.529240
 Sum of electronic and thermal Energies=              -480.516216
 Sum of electronic and thermal Enthalpies=            -480.515272
 Sum of electronic and thermal Free Energies=         -480.571151

                     E (Thermal)             CV                S
                      KCal/Mol        Cal/Mol-Kelvin    Cal/Mol-Kelvin
 Total                  136.068             45.485            117.606
 Electronic               0.000              0.000              0.000
 Translational            0.889              2.981             40.948
 Rotational               0.889              2.981             31.123
 Vibrational            134.290             39.523             45.534
 Vibration     1          0.593              1.986              7.309
 Vibration     2          0.594              1.983              5.664
 Vibration     3          0.597              1.974              4.483
 Vibration     4          0.598              1.967              4.103
 Vibration     5          0.608              1.937              3.177
 Vibration     6          0.610              1.930              3.052
 Vibration     7          0.623              1.887              2.507
 Vibration     8          0.629              1.869              2.345
 Vibration     9          0.661              1.769              1.759
 Vibration    10          0.675              1.727              1.591
 Vibration    11          0.699              1.654              1.360
 Vibration    12          0.705              1.638              1.316
 Vibration    13          0.744              1.529              1.070
 Vibration    14          0.816              1.343              0.772
 Vibration    15          0.877              1.201              0.605
 Vibration    16          0.891              1.170              0.573
 Vibration    17          0.907              1.135              0.540
 Vibration    18          0.918              1.112              0.519

 Optimization completed.
    -- Stationary point found.
 Normal termination of Gaussian 16 at Tue Dec  8 19:22:16 2020.

 ----------------------------------------------------------------------
 # B3LYP/6-311++G(d,p) empiricaldispersion=gd3bj scf=xqc pop=npa geom=c
 heck
 ----------------------------------------------------------------------

 ---------------------------------------
 CID_148428286_JID_1122_Energie_neutraal
 ---------------------------------------
 Structure from the checkpoint file:  "JID_1122.chk"
 Charge =  0 Multiplicity = 1

 SCF Done:  E(RB3LYP) =  -480.875492888     A.U. after   15 cycles
 Normal termination of Gaussian 16 at Tue Dec  8 19:24:19 2020.

 ----------------------------------------------------------------------
 # B3LYP/6-311++G(d,p) empiricaldispersion=gd3bj scf=xqc pop=npa geom=c
 heck
 ----------------------------------------------------------------------

 -------------------------------------
 CID_148428286_JID_1122_Energie_kation
 -------------------------------------
 Structure from the checkpoint file:  "JID_1122.chk"
 Charge =  1 Multiplicity = 2

 SCF Done:  E(UB3LYP) =  -480.551918529     A.U. after   25 cycles
 Normal termination of Gaussian 16 at Tue Dec  8 19:29:08 2020.
 Gaussian 16:  ES64L-G16RevA.03 25-Dec-2016

 ----------------------------------------------------------------------
 # B3LYP/6-311++G(d,p) empiricaldispersion=gd3bj scf=xqc pop=npa geom=c
 heck
 ----------------------------------------------------------------------

 ------------------------------------
 CID_148428286_JID_1122_Energie_anion
 ------------------------------------
 Structure from the checkpoint file:  "JID_1122.chk"
 Charge = -1 Multiplicity = 2

                         Standard orientation:
 ---------------------------------------------------------------------
 Center     Atomic      Atomic             Coordinates (Angstroms)
 Number     Number       Type             X           Y           Z
 ---------------------------------------------------------------------
      1          6           0       -3.420551   -1.240399    0.955251
      2          6           0       -2.120623   -1.501213    0.192751
      3          6           0       -1.906093   -0.543876   -0.987538
      4          7           0       -1.838545    0.861604   -0.605220
      5          6           0       -0.746299    1.513631   -0.099862
      6          8           0       -0.793317    2.665568    0.319691
      7          6           0        0.491549    0.749080   -0.105322
      8          6           0        1.544988    0.146922   -0.061793
      9          6           0        2.816108   -0.499107    0.012845
     10          6           0        2.942039   -1.796800   -0.313271
     11          6           0        3.975848    0.354235    0.474584
     12          1           0       -3.431695   -0.230802    1.380868
     13          1           0       -3.543581   -1.948339    1.781367
     14          1           0       -4.293682   -1.339690    0.297827
     15          1           0       -1.262389   -1.413023    0.870042
     16          1           0       -2.112355   -2.528151   -0.196686
     17          1           0       -0.979636   -0.797013   -1.510773
     18          1           0       -2.724240   -0.644129   -1.710061
     19          1           0       -2.696627    1.391549   -0.523289
     20          1           0        3.904745   -2.296092   -0.255905
     21          1           0        2.091954   -2.385817   -0.641479
     22          1           0        4.115449    1.211042   -0.194248
     23          1           0        3.784654    0.756820    1.475731
     24          1           0        4.901955   -0.226963    0.499739
 ---------------------------------------------------------------------

 SCF Done:  E(UB3LYP) =  -480.881141604     A.U. after   26 cycles

 The electronic state is 2-A.
 Alpha  occ. eigenvalues --  -18.93040 -14.19447 -10.12382 -10.08750 -10.05783
 Alpha  occ. eigenvalues --  -10.05736 -10.04339 -10.04145 -10.01326 -10.00771
 Alpha  occ. eigenvalues --  -10.00431  -0.88583  -0.78707  -0.67248  -0.66690
 Alpha  occ. eigenvalues --   -0.59810  -0.57678  -0.55538  -0.50821  -0.48173
 Alpha  occ. eigenvalues --   -0.43826  -0.37812  -0.37328  -0.34092  -0.33689
 Alpha  occ. eigenvalues --   -0.32244  -0.29778  -0.29375  -0.29260  -0.27661
 Alpha  occ. eigenvalues --   -0.26939  -0.25447  -0.24162  -0.23890  -0.23181
 Alpha  occ. eigenvalues --   -0.22606  -0.17356  -0.13583  -0.12034  -0.10582
 Alpha  occ. eigenvalues --   -0.09877   0.04853
 Alpha virt. eigenvalues --    0.06856   0.09007   0.09110   0.09596   0.11123
 Alpha virt. eigenvalues --    0.11271   0.12251   0.12474   0.13017   0.13588
 Alpha virt. eigenvalues --    0.14434   0.14892   0.15439   0.15968   0.17372

  Beta  occ. eigenvalues --  -18.92783 -14.19396 -10.12217 -10.08747 -10.05763
  Beta  occ. eigenvalues --  -10.05729 -10.04346 -10.04061 -10.01136 -10.00376
  Beta  occ. eigenvalues --  -10.00325  -0.88160  -0.78519  -0.66785  -0.66630
  Beta  occ. eigenvalues --   -0.59451  -0.57619  -0.55133  -0.50363  -0.47928
  Beta  occ. eigenvalues --   -0.43283  -0.37691  -0.37105  -0.33981  -0.33494
  Beta  occ. eigenvalues --   -0.32172  -0.29566  -0.29262  -0.29079  -0.27202
  Beta  occ. eigenvalues --   -0.26493  -0.25287  -0.24055  -0.23403  -0.23144
  Beta  occ. eigenvalues --   -0.22370  -0.15904  -0.13353  -0.11264  -0.10338
  Beta  occ. eigenvalues --   -0.08074
  Beta virt. eigenvalues --    0.07065   0.08942   0.09192   0.09575   0.10359
  Beta virt. eigenvalues --    0.11058   0.11316   0.12288   0.12605   0.13049
  Beta virt. eigenvalues --    0.13510   0.14345   0.14784   0.15385   0.16874

 Mulliken charges and spin densities:
               1          2
     1  C   -0.147897  -0.473890
     2  C   -0.298095   0.232490
     3  C    0.062552  -0.320192
     4  N   -0.251631   0.044707
     5  C   -0.023711   0.089162
     6  O   -0.417089   0.088276
     7  C    0.097931   0.134769
     8  C    0.199384   0.111859
     9  C    0.506328  -0.022538
    10  C   -1.041747   0.391286
    11  C   -0.762431   0.029434
    12  H    0.114099   0.053701
    13  H   -0.073037   0.193053
    14  H   -0.068700   0.193636
    15  H    0.180929  -0.034115
    16  H    0.029953   0.068481
    17  H    0.117229   0.049145
    18  H   -0.016930   0.147985
    19  H    0.266720   0.025281
    20  H    0.083289  -0.018981
    21  H    0.069321   0.009981
    22  H    0.123237   0.008962
    23  H    0.132987   0.000572
    24  H    0.117311  -0.003064
 Sum of Mulliken charges =  -1.00000   1.00000

 Dipole moment (field-independent basis, Debye):
    X=             -1.7458    Y=             -2.3219    Z=             -0.2101  Tot=              2.9126
 Quadrupole moment (field-independent basis, Debye-Ang):
   XX=           -103.0944   YY=           -100.3178   ZZ=            -80.3225
   XY=              4.0559   XZ=              4.2145   YZ=             -2.6846

 Summary of Natural Population Analysis:

                                       Natural Population
                Natural  -----------------------------------------------
    Atom  No    Charge         Core      Valence    Rydberg      Total
 -----------------------------------------------------------------------
      C    1   -0.29053      0.99967     2.28534    0.00552     3.29053
      C    2   -0.19921      0.99964     2.19148    0.00809     3.19921
      C    3   -0.09106      0.99962     2.07952    0.01192     3.09106
      N    4   -0.31933      0.99968     2.80933    0.01032     3.81933
      C    5    0.31722      0.99963     1.65888    0.02428     2.68278
      O    6   -0.30185      0.99988     3.29598    0.00599     4.30185
      C    7   -0.01798      0.99919     2.01100    0.00778     3.01798
      C    8    0.00589      0.99941     1.98143    0.01327     2.99411
      C    9    0.00464      0.99948     1.98644    0.00944     2.99536
      C   10   -0.12052      0.99960     2.10193    0.01898     3.12052
      C   11   -0.29730      0.99968     2.28818    0.00944     3.29730
      H   12    0.10012      0.00000     0.39874    0.00113     0.39988
      H   13    0.09648      0.00000     0.40281    0.00070     0.40352
      H   14    0.09193      0.00000     0.40685    0.00122     0.40807
      H   15    0.10541      0.00000     0.39348    0.00112     0.39459
      H   16    0.09115      0.00000     0.40765    0.00121     0.40885
      H   17    0.10835      0.00000     0.39073    0.00091     0.39165
      H   18    0.08821      0.00000     0.41087    0.00092     0.41179
      H   19    0.18571      0.00000     0.31162    0.00267     0.31429
      H   20    0.07760      0.00000     0.42124    0.00116     0.42240
      H   21    0.08674      0.00000     0.41201    0.00125     0.41326
      H   22    0.09828      0.00000     0.40030    0.00143     0.40172
      H   23    0.09821      0.00000     0.40035    0.00144     0.40179
      H   24    0.09215      0.00000     0.40672    0.00113     0.40785
 =======================================================================
   * Total *    0.01031     10.99549    29.85288    0.14133    40.98969

 Normal termination of Gaussian 16 at Tue Dec  8 19:34:14 2020.
