 Gaussian 16, Revision A.03,

 -----------------------------------------------------------
 # opt freq B3LYP/6-31G(d) empiricaldispersion=gd3bj scf=xqc
 -----------------------------------------------------------

 -------------------------------
 CID_103838305_JID_4940_neutraal
 -------------------------------
 Symbolic Z-matrix:
 Charge =  0 Multiplicity = 1

 SCF Done:  E(RB3LYP) =  -924.108405464     A.U. after   13 cycles
 SCF Done:  E(RB3LYP) =  -924.112469087     A.U. after   12 cycles
 SCF Done:  E(RB3LYP) =  -924.113975838     A.U. after   13 cycles
 SCF Done:  E(RB3LYP) =  -924.114558217     A.U. after   13 cycles
 SCF Done:  E(RB3LYP) =  -924.115143404     A.U. after   11 cycles
 SCF Done:  E(RB3LYP) =  -924.115056763     A.U. after   12 cycles
 SCF Done:  E(RB3LYP) =  -924.115331188     A.U. after   11 cycles
 SCF Done:  E(RB3LYP) =  -924.115345663     A.U. after   10 cycles
 SCF Done:  E(RB3LYP) =  -924.115338449     A.U. after    9 cycles
 SCF Done:  E(RB3LYP) =  -924.115320643     A.U. after   10 cycles
 SCF Done:  E(RB3LYP) =  -924.115361174     A.U. after    9 cycles
 SCF Done:  E(RB3LYP) =  -924.115360870     A.U. after    9 cycles
 SCF Done:  E(RB3LYP) =  -924.115364173     A.U. after    8 cycles
 SCF Done:  E(RB3LYP) =  -924.115364254     A.U. after    8 cycles
 SCF Done:  E(RB3LYP) =  -924.115364542     A.U. after    6 cycles
 Optimization completed.
    -- Stationary point found.
 Normal termination of Gaussian 16 at Thu Dec 10 11:01:39 2020.

 --------------------------------------------------------------------
 #N Geom=AllCheck Guess=TCheck SCRF=Check GenChk RB3LYP/6-31G(d) Freq
 --------------------------------------------------------------------

 Structure from the checkpoint file:  "JID_4940.chk"
 -------------------------------
 CID_103838305_JID_4940_neutraal
 -------------------------------
 Charge =  0 Multiplicity = 1

 SCF Done:  E(RB3LYP) =  -924.115364542     A.U. after    1 cycles

  Exact polarizability: 165.367  -0.201 145.485  -3.213  -3.251 131.028
 Approx polarizability: 197.820  -2.494 228.360  -7.947  -8.744 200.797

                      1                      2                      3
                      A                      A                      A
 Frequencies --     21.4281                27.4765                40.4744
 Red. masses --      3.9591                 3.9918                 4.0045
 Frc consts  --      0.0011                 0.0018                 0.0039
 IR Inten    --      0.5140                 0.2577                 0.1213

                      4                      5                      6
                      A                      A                      A
 Frequencies --     70.1911               103.0402               122.2808
 Red. masses --      3.4454                 2.7484                 3.2444
 Frc consts  --      0.0100                 0.0172                 0.0286
 IR Inten    --      0.7461                 0.4041                 1.7369

                      7                      8                      9
                      A                      A                      A
 Frequencies --    131.6267               152.1598               198.6088
 Red. masses --      2.8007                 3.3596                 2.4088
 Frc consts  --      0.0286                 0.0458                 0.0560
 IR Inten    --      2.8203                 2.7571                 1.0295

                     10                     11                     12
                      A                      A                      A
 Frequencies --    225.8535               251.3271               287.4856
 Red. masses --      3.3331                 2.2818                 2.1217
 Frc consts  --      0.1002                 0.0849                 0.1033
 IR Inten    --      0.9634                 0.9550                 0.5825

                     13                     14                     15
                      A                      A                      A
 Frequencies --    318.5283               325.9382               344.7498
 Red. masses --      2.1280                 2.4074                 2.1195
 Frc consts  --      0.1272                 0.1507                 0.1484
 IR Inten    --      1.6895                 1.7236                 5.3236

                     16                     17                     18
                      A                      A                      A
 Frequencies --    382.2513               412.7912               418.9370
 Red. masses --      2.0738                 2.0928                 2.2992
 Frc consts  --      0.1785                 0.2101                 0.2378
 IR Inten    --      0.4871                 0.0581                 1.3625

                     19                     20                     21
                      A                      A                      A
 Frequencies --    464.7303               481.4558               581.7249
 Red. masses --      2.8905                 1.9565                 2.6687
 Frc consts  --      0.3678                 0.2672                 0.5321
 IR Inten    --      1.2630                 0.5496                 0.7404

                     22                     23                     24
                      A                      A                      A
 Frequencies --    595.0455               608.7987               665.8497
 Red. masses --      2.3022                 1.9532                 4.0954
 Frc consts  --      0.4803                 0.4265                 1.0698
 IR Inten    --      4.8153                 2.6422                 5.2560

                     25                     26                     27
                      A                      A                      A
 Frequencies --    744.5056               762.3660               800.1536
 Red. masses --      2.4987                 2.2482                 1.6002
 Frc consts  --      0.8160                 0.7699                 0.6036
 IR Inten    --     29.3686                26.1137                 4.7570

                     28                     29                     30
                      A                      A                      A
 Frequencies --    803.9979               836.7090               846.8461
 Red. masses --      1.7923                 2.0419                 1.4639
 Frc consts  --      0.6826                 0.8422                 0.6185
 IR Inten    --      3.4955                14.4444                29.5413

                     31                     32                     33
                      A                      A                      A
 Frequencies --    861.7067               883.5522               900.3394
 Red. masses --      1.7909                 2.3609                 1.4039
 Frc consts  --      0.7835                 1.0859                 0.6705
 IR Inten    --     27.8916                 4.0782                11.0919

                     34                     35                     36
                      A                      A                      A
 Frequencies --    933.1086               945.3145               954.8893
 Red. masses --      1.7501                 1.3676                 1.4063
 Frc consts  --      0.8978                 0.7200                 0.7555
 IR Inten    --      2.7704                37.7633                 0.7514

                     37                     38                     39
                      A                      A                      A
 Frequencies --    959.8621               972.2832              1006.4884
 Red. masses --      2.0994                 2.0086                 2.0098
 Frc consts  --      1.1397                 1.1187                 1.1995
 IR Inten    --      1.2517                 9.3009                26.7398

                     40                     41                     42
                      A                      A                      A
 Frequencies --   1030.0520              1036.4705              1049.6700
 Red. masses --      1.1749                 1.7160                 1.9625
 Frc consts  --      0.7344                 1.0861                 1.2740
 IR Inten    --      5.6708                17.1518                 6.0242

                     43                     44                     45
                      A                      A                      A
 Frequencies --   1056.4644              1064.5729              1105.6317
 Red. masses --      1.8633                 1.7759                 2.0873
 Frc consts  --      1.2253                 1.1858                 1.5034
 IR Inten    --      5.8165                 2.1531                 2.4953

                     46                     47                     48
                      A                      A                      A
 Frequencies --   1109.7875              1118.3806              1149.3500
 Red. masses --      1.4454                 1.4645                 1.0609
 Frc consts  --      1.0489                 1.0792                 0.8257
 IR Inten    --      1.0755                 2.3753                 0.7949

                     49                     50                     51
                      A                      A                      A
 Frequencies --   1159.2682              1173.1984              1185.1116
 Red. masses --      2.6402                 1.5862                 2.3485
 Frc consts  --      2.0905                 1.2863                 1.9434
 IR Inten    --     42.8719                 9.1615                 7.8933

                     52                     53                     54
                      A                      A                      A
 Frequencies --   1235.3618              1238.8139              1260.0843
 Red. masses --      1.2832                 1.3351                 1.2582
 Frc consts  --      1.1538                 1.2072                 1.1771
 IR Inten    --      1.0431                 0.9790                 2.0942

                     55                     56                     57
                      A                      A                      A
 Frequencies --   1289.6774              1292.0474              1307.8954
 Red. masses --      1.2762                 1.2480                 1.2411
 Frc consts  --      1.2506                 1.2275                 1.2508
 IR Inten    --      6.2272                10.0673                 0.5792

                     58                     59                     60
                      A                      A                      A
 Frequencies --   1312.2928              1330.4084              1336.9038
 Red. masses --      1.2182                 1.3141                 1.2660
 Frc consts  --      1.2361                 1.3704                 1.3332
 IR Inten    --      1.6933                 9.3453                 1.1903

                     61                     62                     63
                      A                      A                      A
 Frequencies --   1342.5137              1351.9413              1370.7164
 Red. masses --      1.3730                 1.2605                 1.3103
 Frc consts  --      1.4580                 1.3574                 1.4505
 IR Inten    --      6.3339                 5.1748                 0.1668

                     64                     65                     66
                      A                      A                      A
 Frequencies --   1381.7754              1399.6323              1404.3095
 Red. masses --      1.4267                 1.4390                 1.4199
 Frc consts  --      1.6050                 1.6608                 1.6498
 IR Inten    --     10.2420                 1.4720                 5.9633

                     67                     68                     69
                      A                      A                      A
 Frequencies --   1408.3075              1415.1036              1423.8475
 Red. masses --      1.4272                 1.4132                 1.3296
 Frc consts  --      1.6678                 1.6674                 1.5881
 IR Inten    --      1.4262                 0.5524                 3.2098

                     70                     71                     72
                      A                      A                      A
 Frequencies --   1428.9697              1461.8263              1487.9867
 Red. masses --      1.3617                 1.1480                 1.0943
 Frc consts  --      1.6383                 1.4454                 1.4276
 IR Inten    --      1.7186                 3.0741                 2.4362

                     73                     74                     75
                      A                      A                      A
 Frequencies --   1501.5558              1504.9266              1510.4427
 Red. masses --      1.1346                 1.1281                 1.1096
 Frc consts  --      1.5072                 1.5054                 1.4915
 IR Inten    --      5.1657                25.0303                 6.6377

                     76                     77                     78
                      A                      A                      A
 Frequencies --   1516.4662              1519.7554              1525.2255
 Red. masses --      1.1002                 1.1315                 1.0942
 Frc consts  --      1.4907                 1.5397                 1.4997
 IR Inten    --      1.3489                21.9802                 2.1478

                     79                     80                     81
                      A                      A                      A
 Frequencies --   1527.9561              1534.3004              1540.4347
 Red. masses --      1.0821                 1.0945                 1.0985
 Frc consts  --      1.4885                 1.5181                 1.5358
 IR Inten    --     11.4697                 6.5863                 1.9182

                     82                     83                     84
                      A                      A                      A
 Frequencies --   1720.3923              2971.1267              3020.1350
 Red. masses --      4.2844                 1.0699                 1.0672
 Frc consts  --      7.4713                 5.5644                 5.7352
 IR Inten    --      4.6467                50.8717                 7.0001

                     85                     86                     87
                      A                      A                      A
 Frequencies --   3020.8614              3025.6877              3029.5848
 Red. masses --      1.0709                 1.0669                 1.0638
 Frc consts  --      5.7576                 5.7549                 5.7530
 IR Inten    --     20.2728                26.7292                15.9897

                     88                     89                     90
                      A                      A                      A
 Frequencies --   3034.6306              3035.4329              3042.9254
 Red. masses --      1.0641                 1.0685                 1.0739
 Frc consts  --      5.7737                 5.8007                 5.8589
 IR Inten    --      4.6319                55.1584                40.1839

                     91                     92                     93
                      A                      A                      A
 Frequencies --   3046.7576              3062.1858              3068.8565
 Red. masses --      1.0889                 1.0977                 1.0975
 Frc consts  --      5.9556                 6.0644                 6.0899
 IR Inten    --     26.9526                60.9076                68.5020

                     94                     95                     96
                      A                      A                      A
 Frequencies --   3072.1570              3074.3767              3077.3372
 Red. masses --      1.0915                 1.1015                 1.0618
 Frc consts  --      6.0695                 6.1343                 5.9244
 IR Inten    --     46.7718                25.6113                25.6129

                     97                     98                     99
                      A                      A                      A
 Frequencies --   3078.2918              3079.1996              3094.7420
 Red. masses --      1.0612                 1.1038                 1.0975
 Frc consts  --      5.9245                 6.1663                 6.1932
 IR Inten    --     18.6079               103.1344                59.0591

                    100                    101                    102
                      A                      A                      A
 Frequencies --   3131.1043              3145.0946              3158.2458
 Red. masses --      1.1064                 1.0989                 1.0608
 Frc consts  --      6.3909                 6.4042                 6.2343
 IR Inten    --      4.3687                 0.8398                 8.5722

                    103                    104                    105
                      A                      A                      A
 Frequencies --   3171.3037              3242.3277              3492.2892
 Red. masses --      1.0934                 1.1165                 1.0729
 Frc consts  --      6.4791                 6.9155                 7.7098
 IR Inten    --     11.5989                18.6748                 0.4942

 - Thermochemistry -
 -------------------
 Temperature   298.150 Kelvin.  Pressure   1.00000 Atm.
 Atom     1 has atomic number  6 and mass  12.00000

 Molecular mass:   213.15512 amu.
 Principal axes and moments of inertia in atomic units:
                           1         2         3
     Eigenvalues --  1570.473477438.007177506.46952
           X            0.99996   0.00911   0.00108
           Y           -0.00909   0.96849   0.24891
           Z            0.00122  -0.24890   0.96853
 This molecule is an asymmetric top.
 Rotational symmetry number  1.
 Warning -- assumption of classical behavior for rotation
           may cause significant error
 Rotational temperatures (Kelvin)      0.05515     0.01164     0.01154
 Rotational constants (GHZ):           1.14917     0.24264     0.24042
 Zero-point vibrational energy     889658.9 (Joules/Mol)
                                  212.63359 (Kcal/Mol)
 Warning -- explicit consideration of  23 degrees of freedom as
           vibrations may cause significant error
 Vibrational temperatures:     30.83    39.53    58.23   100.99   148.25
          (Kelvin)            175.93   189.38   218.92   285.75   324.95
                              361.60   413.63   458.29   468.95   496.02
                              549.97   593.91   602.76   668.64   692.71
                              836.97   856.14   875.93   958.01  1071.18
                             1096.87  1151.24  1156.77  1203.84  1218.42
                             1239.80  1271.23  1295.39  1342.54  1360.10
                             1373.87  1381.03  1398.90  1448.11  1482.02
                             1491.25  1510.24  1520.02  1531.68  1590.76
                             1596.74  1609.10  1653.66  1667.93  1687.97
                             1705.11  1777.41  1782.38  1812.98  1855.56
                             1858.97  1881.77  1888.10  1914.16  1923.51
                             1931.58  1945.14  1972.16  1988.07  2013.76
                             2020.49  2026.24  2036.02  2048.60  2055.97
                             2103.24  2140.88  2160.40  2165.25  2173.19
                             2181.86  2186.59  2194.46  2198.39  2207.52
                             2216.34  2475.26  4274.79  4345.30  4346.35
                             4353.29  4358.90  4366.16  4367.31  4378.09
                             4383.60  4405.80  4415.40  4420.15  4423.34
                             4427.60  4428.98  4430.28  4452.64  4504.96
                             4525.09  4544.01  4562.80  4664.99  5024.63

 Zero-point correction=                           0.338853 (Hartree/Particle)
 Thermal correction to Energy=                    0.354474
 Thermal correction to Enthalpy=                  0.355419
 Thermal correction to Gibbs Free Energy=         0.293887
 Sum of electronic and zero-point Energies=           -923.776511
 Sum of electronic and thermal Energies=              -923.760890
 Sum of electronic and thermal Enthalpies=            -923.759946
 Sum of electronic and thermal Free Energies=         -923.821478

                     E (Thermal)             CV                S
                      KCal/Mol        Cal/Mol-Kelvin    Cal/Mol-Kelvin
 Total                  222.436             59.253            129.504
 Electronic               0.000              0.000              0.000
 Translational            0.889              2.981             41.974
 Rotational               0.889              2.981             32.839
 Vibrational            220.659             53.291             54.691
 Vibration     1          0.593              1.985              6.497
 Vibration     2          0.593              1.984              6.004
 Vibration     3          0.594              1.981              5.236
 Vibration     4          0.598              1.968              4.148
 Vibration     5          0.605              1.947              3.396
 Vibration     6          0.610              1.931              3.064
 Vibration     7          0.612              1.922              2.922
 Vibration     8          0.619              1.900              2.645
 Vibration     9          0.637              1.842              2.146
 Vibration    10          0.650              1.802              1.912
 Vibration    11          0.663              1.761              1.721
 Vibration    12          0.685              1.697              1.489
 Vibration    13          0.705              1.638              1.318
 Vibration    14          0.710              1.624              1.280
 Vibration    15          0.723              1.586              1.190
 Vibration    16          0.752              1.508              1.030
 Vibration    17          0.777              1.442              0.917
 Vibration    18          0.782              1.429              0.896
 Vibration    19          0.822              1.328              0.752
 Vibration    20          0.838              1.291              0.706
 Vibration    21          0.938              1.071              0.482
 Vibration    22          0.953              1.042              0.458
 Vibration    23          0.968              1.013              0.435

 Optimization completed.
    -- Stationary point found.
 Normal termination of Gaussian 16 at Thu Dec 10 11:12:51 2020.

 ----------------------------------------------------------------------
 # B3LYP/6-311++G(d,p) empiricaldispersion=gd3bj scf=xqc pop=npa geom=c
 heck
 ----------------------------------------------------------------------

 ---------------------------------------
 CID_103838305_JID_4940_Energie_neutraal
 ---------------------------------------
 Structure from the checkpoint file:  "JID_4940.chk"
 Charge =  0 Multiplicity = 1

 SCF Done:  E(RB3LYP) =  -924.290581883     A.U. after   14 cycles
 Normal termination of Gaussian 16 at Thu Dec 10 11:17:56 2020.

 ----------------------------------------------------------------------
 # B3LYP/6-311++G(d,p) empiricaldispersion=gd3bj scf=xqc pop=npa geom=c
 heck
 ----------------------------------------------------------------------

 -------------------------------------
 CID_103838305_JID_4940_Energie_kation
 -------------------------------------
 Structure from the checkpoint file:  "JID_4940.chk"
 Charge =  1 Multiplicity = 2

 SCF Done:  E(UB3LYP) =  -924.004462850     A.U. after   23 cycles
 Normal termination of Gaussian 16 at Thu Dec 10 11:28:30 2020.
 Gaussian 16:  ES64L-G16RevA.03 25-Dec-2016

 ----------------------------------------------------------------------
 # B3LYP/6-311++G(d,p) empiricaldispersion=gd3bj scf=xqc pop=npa geom=c
 heck
 ----------------------------------------------------------------------

 ------------------------------------
 CID_103838305_JID_4940_Energie_anion
 ------------------------------------
 Structure from the checkpoint file:  "JID_4940.chk"
 Charge = -1 Multiplicity = 2

                         Standard orientation:
 ---------------------------------------------------------------------
 Center     Atomic      Atomic             Coordinates (Angstroms)
 Number     Number       Type             X           Y           Z
 ---------------------------------------------------------------------
      1          6           0       -4.105632   -1.535826    1.414226
      2          6           0       -4.239234   -0.232518    1.156189
      3          6           0       -3.084788    0.713082    1.086827
      4         16           0       -2.769721    1.309658   -0.643486
      5          6           0       -2.323554   -0.271571   -1.468676
      6          6           0       -0.827268   -0.579185   -1.467780
      7          7           0       -0.293491   -0.622748   -0.109679
      8          6           0        1.069104   -1.143246   -0.000942
      9          6           0        2.165395   -0.426627   -0.823138
     10          6           0        2.224347    1.088538   -0.550263
     11          6           0        2.777366    1.416974    0.843865
     12          6           0        4.160392    0.784354    1.050425
     13          6           0        4.122889   -0.731016    0.810332
     14          6           0        3.547005   -1.065231   -0.575130
     15          1           0       -3.128797   -1.972512    1.610106
     16          1           0       -4.960559   -2.205804    1.440961
     17          1           0       -5.220766    0.186984    0.939269
     18          1           0       -3.280020    1.632153    1.649655
     19          1           0       -2.177374    0.245098    1.472838
     20          1           0       -2.885418   -1.067893   -0.971649
     21          1           0       -2.687832   -0.189764   -2.497541
     22          1           0       -0.681472   -1.571075   -1.918113
     23          1           0       -0.308649    0.144684   -2.119809
     24          1           0       -0.322707    0.323406    0.266341
     25          1           0        1.326964   -1.133078    1.063662
     26          1           0        1.047482   -2.199972   -0.301064
     27          1           0        1.920480   -0.567412   -1.884625
     28          1           0        2.875126    1.552904   -1.304412
     29          1           0        1.233487    1.540363   -0.685225
     30          1           0        2.089686    1.046784    1.617530
     31          1           0        2.832172    2.504438    0.976485
     32          1           0        4.535010    1.001572    2.058456
     33          1           0        4.869993    1.242287    0.345446
     34          1           0        3.517110   -1.206039    1.593778
     35          1           0        5.130393   -1.155102    0.903493
     36          1           0        3.484590   -2.153925   -0.706088
     37          1           0        4.244941   -0.699759   -1.341569
 ---------------------------------------------------------------------

 SCF Done:  E(UB3LYP) =  -924.274742237     A.U. after   33 cycles
 SCF Done:  E(UB3LYP) =  -924.274742237     a.u. after    1 cycles

 The electronic state is 2-A.
 Alpha  occ. eigenvalues --  -88.75017 -14.20163 -10.11391 -10.10338 -10.10073
 Alpha  occ. eigenvalues --  -10.09573 -10.09055 -10.08288 -10.06884 -10.06559
 Alpha  occ. eigenvalues --  -10.06433 -10.06410 -10.06373 -10.06372  -7.83606
 Alpha  occ. eigenvalues --   -5.79991  -5.79636  -5.78982  -0.81479  -0.73624
 Alpha  occ. eigenvalues --   -0.72896  -0.68585  -0.65307  -0.64244  -0.62870
 Alpha  occ. eigenvalues --   -0.57543  -0.54696  -0.51040  -0.50288  -0.48729
 Alpha  occ. eigenvalues --   -0.47168  -0.43847  -0.40302  -0.39465  -0.38945
 Alpha  occ. eigenvalues --   -0.37414  -0.35310  -0.34939  -0.34297  -0.33487
 Alpha  occ. eigenvalues --   -0.32838  -0.31999  -0.30090  -0.29727  -0.28482
 Alpha  occ. eigenvalues --   -0.28032  -0.27529  -0.26942  -0.26691  -0.25392
 Alpha  occ. eigenvalues --   -0.25083  -0.24079  -0.21940  -0.21745  -0.20128
 Alpha  occ. eigenvalues --   -0.19989  -0.18279  -0.14451  -0.12794   0.04351
 Alpha virt. eigenvalues --    0.05916   0.06339   0.06778   0.07339   0.07578
 Alpha virt. eigenvalues --    0.07764   0.08127   0.09478   0.09756   0.09907
 Alpha virt. eigenvalues --    0.10082   0.10457   0.11520   0.11572   0.11822

  Beta  occ. eigenvalues --  -88.75015 -14.20157 -10.11385 -10.10327 -10.10053
  Beta  occ. eigenvalues --  -10.09555 -10.09041 -10.08261 -10.06879 -10.06544
  Beta  occ. eigenvalues --  -10.06416 -10.06391 -10.06357 -10.06353  -7.83602
  Beta  occ. eigenvalues --   -5.79989  -5.79634  -5.78980  -0.81464  -0.73595
  Beta  occ. eigenvalues --   -0.72866  -0.68555  -0.65275  -0.64207  -0.62838
  Beta  occ. eigenvalues --   -0.57506  -0.54654  -0.50989  -0.50244  -0.48675
  Beta  occ. eigenvalues --   -0.47124  -0.43803  -0.40274  -0.39427  -0.38894
  Beta  occ. eigenvalues --   -0.37375  -0.35281  -0.34911  -0.34273  -0.33456
  Beta  occ. eigenvalues --   -0.32804  -0.31970  -0.30058  -0.29702  -0.28447
  Beta  occ. eigenvalues --   -0.27994  -0.27495  -0.26915  -0.26661  -0.25364
  Beta  occ. eigenvalues --   -0.25051  -0.24047  -0.21908  -0.21722  -0.20092
  Beta  occ. eigenvalues --   -0.19952  -0.18196  -0.14435  -0.12778
  Beta virt. eigenvalues --    0.06171   0.06619   0.06834   0.07076   0.07673
  Beta virt. eigenvalues --    0.08054   0.08275   0.08556   0.09859   0.10091
  Beta virt. eigenvalues --    0.10345   0.10372   0.10651   0.11543   0.11825

 Mulliken charges and spin densities:
               1          2
     1  C    0.207362  -0.764349
     2  C   -0.557563   0.628938
     3  C    0.169681  -0.528827
     4  S    0.441810  -0.255586
     5  C   -0.752255   0.095098
     6  C    0.720857  -0.897774
     7  N   -0.128204   0.132011
     8  C    0.076524  -0.978432
     9  C   -0.048862   0.779932
    10  C    0.147667  -0.614151
    11  C   -0.384179   0.245705
    12  C    0.686449  -1.208562
    13  C   -0.069851  -0.173441
    14  C    0.297246  -0.887451
    15  H    0.021201   0.118082
    16  H   -0.126992   0.251682
    17  H   -0.155714   0.301708
    18  H    0.050920   0.174466
    19  H    0.019150   0.122599
    20  H    0.226824  -0.043261
    21  H   -0.309720   0.550412
    22  H   -0.303982   0.468188
    23  H    0.108776  -0.013562
    24  H   -0.008864   0.114117
    25  H    0.067575   0.136397
    26  H    0.117911   0.040691
    27  H   -0.128284   0.353825
    28  H   -0.287779   0.447197
    29  H    0.092180   0.049321
    30  H   -0.000697   0.123414
    31  H   -0.143952   0.311971
    32  H   -0.339830   0.502042
    33  H    0.040007   0.090026
    34  H    0.049923   0.055809
    35  H   -0.362339   0.541945
    36  H   -0.220561   0.368370
    37  H   -0.212432   0.361455
 Sum of Mulliken charges =  -1.00000   1.00000

 Dipole moment (field-independent basis, Debye):
    X=             -3.8932    Y=              0.5937    Z=              0.7770  Tot=              4.0141
 Quadrupole moment (field-independent basis, Debye-Ang):
   XX=           -200.0546   YY=           -138.5961   ZZ=           -139.9468
   XY=             -1.5394   XZ=             -1.0413   YZ=             -0.9140

 Summary of Natural Population Analysis:

                                       Natural Population
                Natural  -----------------------------------------------
    Atom  No    Charge         Core      Valence    Rydberg      Total
 -----------------------------------------------------------------------
      C    1   -0.18874      0.99956     2.18148    0.00770     3.18874
      C    2   -0.09461      0.99956     2.08419    0.01086     3.09461
      C    3   -0.26275      0.99956     2.25298    0.01021     3.26275
      S    4    0.08028      4.99964     2.90366    0.01642     7.91972
      C    5   -0.25449      0.99958     2.24340    0.01151     3.25449
      C    6   -0.09252      0.99960     2.08138    0.01153     3.09252
      N    7   -0.34703      0.99975     2.83573    0.01155     3.84703
      C    8   -0.08419      0.99960     2.07263    0.01196     3.08419
      C    9   -0.12062      0.99959     2.11054    0.01050     3.12062
      C   10   -0.19332      0.99961     2.18426    0.00945     3.19332
      C   11   -0.19157      0.99963     2.18333    0.00862     3.19157
      C   12   -0.18869      0.99963     2.18097    0.00809     3.18869
      C   13   -0.19066      0.99963     2.18270    0.00833     3.19066
      C   14   -0.18801      0.99961     2.17876    0.00964     3.18801
      H   15    0.09589      0.00000     0.40248    0.00163     0.40411
      H   16    0.09400      0.00000     0.40482    0.00118     0.40600
      H   17    0.09468      0.00000     0.40371    0.00161     0.40532
      H   18    0.10839      0.00000     0.39039    0.00123     0.39161
      H   19    0.11001      0.00000     0.38809    0.00190     0.38999
      H   20    0.10951      0.00000     0.38851    0.00198     0.39049
      H   21    0.10549      0.00000     0.39335    0.00116     0.39451
      H   22    0.09606      0.00000     0.40249    0.00146     0.40394
      H   23    0.08306      0.00000     0.41513    0.00182     0.41694
      H   24    0.17273      0.00000     0.32298    0.00430     0.32727
      H   25    0.09278      0.00000     0.40581    0.00141     0.40722
      H   26    0.09304      0.00000     0.40577    0.00119     0.40696
      H   27    0.09863      0.00000     0.39939    0.00197     0.40137
      H   28    0.09773      0.00000     0.40098    0.00129     0.40227
      H   29    0.09813      0.00000     0.39995    0.00191     0.40187
      H   30    0.09072      0.00000     0.40781    0.00147     0.40928
      H   31    0.09902      0.00000     0.39994    0.00104     0.40098
      H   32    0.09782      0.00000     0.40101    0.00117     0.40218
      H   33    0.09240      0.00000     0.40613    0.00147     0.40760
      H   34    0.09127      0.00000     0.40736    0.00137     0.40873
      H   35    0.09949      0.00000     0.39933    0.00118     0.40051
      H   36    0.09904      0.00000     0.39972    0.00124     0.40096
      H   37    0.09702      0.00000     0.40164    0.00134     0.40298
 =======================================================================
   * Total *    0.00000     17.99454    40.82278    0.18267    59.00000

 Normal termination of Gaussian 16 at Thu Dec 10 11:43:36 2020.
