 Gaussian 16, Revision A.03,

 -----------------------------------------------------------
 # opt freq B3LYP/6-31G(d) empiricaldispersion=gd3bj scf=xqc
 -----------------------------------------------------------

 -----------------------------
 CID_14907868_JID_292_neutraal
 -----------------------------
 Symbolic Z-matrix:
 Charge =  0 Multiplicity = 1

 SCF Done:  E(RB3LYP) =  -499.638272296     A.U. after   15 cycles
 SCF Done:  E(RB3LYP) =  -499.641362319     A.U. after   12 cycles
 SCF Done:  E(RB3LYP) =  -499.641450691     A.U. after   12 cycles
 SCF Done:  E(RB3LYP) =  -499.642074047     A.U. after   12 cycles
 SCF Done:  E(RB3LYP) =  -499.642044308     A.U. after   12 cycles
 SCF Done:  E(RB3LYP) =  -499.642341376     A.U. after   12 cycles
 SCF Done:  E(RB3LYP) =  -499.642361838     A.U. after   10 cycles
 SCF Done:  E(RB3LYP) =  -499.642366760     A.U. after   10 cycles
 SCF Done:  E(RB3LYP) =  -499.642369796     A.U. after    9 cycles
 SCF Done:  E(RB3LYP) =  -499.642373215     A.U. after   10 cycles
 SCF Done:  E(RB3LYP) =  -499.642374987     A.U. after   10 cycles
 SCF Done:  E(RB3LYP) =  -499.642375519     A.U. after    9 cycles
 SCF Done:  E(RB3LYP) =  -499.642375645     A.U. after    8 cycles
 Optimization completed.
    -- Stationary point found.

 1\1\GINC-NODE107\FOpt\RB3LYP\6-31G(d)\C7H12O3\VSC10255\08-Dec-2020\0\\
 # opt freq B3LYP/6-31G(d) empiricaldispersion=gd3bj scf=xqc\\CID_14907
 868_JID_292_neutraal\\0,1\C,0.96132519,-0.0934887805,-0.0188792697\C,0
 .1643001273,1.2220425421,-0.044569908\C,0.6163840937,2.1109982188,-1.2
 520357204\C,0.0285039294,1.6891750419,-2.5822370532\C,-0.2486293624,2.
 5335180342,-3.5740834551\O,0.5112114439,3.5026580038,-1.0074121156\C,-
 0.7847346511,4.0071161957,-0.7004747286\C,-1.3291020986,0.9497003639,0
 .017035635\O,-2.1240159988,1.5096117644,0.740432762\O,-1.7143511342,-0

 Normal termination of Gaussian 16 at Tue Dec  8 10:23:33 2020.

 --------------------------------------------------------------------
 #N Geom=AllCheck Guess=TCheck SCRF=Check GenChk RB3LYP/6-31G(d) Freq
 --------------------------------------------------------------------

 Structure from the checkpoint file:  "JID_292.chk"
 -----------------------------
 CID_14907868_JID_292_neutraal
 -----------------------------
 Charge =  0 Multiplicity = 1

 SCF Done:  E(RB3LYP) =  -499.642375645     A.U. after    1 cycles

  Exact polarizability:  86.506   2.837  78.051  -6.485   2.930  75.197
 Approx polarizability: 117.862   3.531 115.856  -7.800   5.127 107.751

                      1                      2                      3
                      A                      A                      A
 Frequencies --     27.8975                81.2537               113.8421
 Red. masses --      6.7318                 3.5783                 3.2725
 Frc consts  --      0.0031                 0.0139                 0.0250
 IR Inten    --      0.8202                 0.5909                 0.5219

                      4                      5                      6
                      A                      A                      A
 Frequencies --    171.6402               186.3856               205.4493
 Red. masses --      2.6044                 2.2586                 3.0921
 Frc consts  --      0.0452                 0.0462                 0.0769
 IR Inten    --      3.2105                 1.0838                 0.0418

                      7                      8                      9
                      A                      A                      A
 Frequencies --    218.6805               238.4544               274.4164
 Red. masses --      1.1524                 1.2732                 3.3838
 Frc consts  --      0.0325                 0.0427                 0.1501
 IR Inten    --      0.4087                 1.1383                 0.8197

                     10                     11                     12
                      A                      A                      A
 Frequencies --    298.9112               307.1231               350.6882
 Red. masses --      2.9154                 2.9324                 3.5081
 Frc consts  --      0.1535                 0.1630                 0.2542
 IR Inten    --      1.8590                 2.4980                 6.7264

                     13                     14                     15
                      A                      A                      A
 Frequencies --    452.8547               522.7734               594.9232
 Red. masses --      4.0010                 2.7543                 2.0746
 Frc consts  --      0.4834                 0.4435                 0.4326
 IR Inten    --      2.7491                 2.4846                20.8550

                     16                     17                     18
                      A                      A                      A
 Frequencies --    614.7475               635.5773               697.2363
 Red. masses --      1.7554                 2.1333                 2.4026
 Frc consts  --      0.3909                 0.5077                 0.6882
 IR Inten    --     71.1044                37.0818                32.7405

                     19                     20                     21
                      A                      A                      A
 Frequencies --    791.3447               806.4233               908.4198
 Red. masses --      3.7224                 3.5692                 3.2288
 Frc consts  --      1.3734                 1.3676                 1.5699
 IR Inten    --     15.3245                 5.3715                 1.9090

                     22                     23                     24
                      A                      A                      A
 Frequencies --    944.7204               957.6068               969.0657
 Red. masses --      2.0786                 1.4663                 2.0443
 Frc consts  --      1.0930                 0.7922                 1.1311
 IR Inten    --     26.0514                14.1393                27.0997

                     25                     26                     27
                      A                      A                      A
 Frequencies --   1030.0861              1035.8301              1076.8360
 Red. masses --      1.1083                 1.9327                 1.8729
 Frc consts  --      0.6929                 1.2218                 1.2795
 IR Inten    --      8.7455                28.8795                71.1256

                     28                     29                     30
                      A                      A                      A
 Frequencies --   1096.1047              1116.7641              1188.7030
 Red. masses --      2.5456                 1.9890                 1.5038
 Frc consts  --      1.8019                 1.4615                 1.2520
 IR Inten    --     34.9251                22.4791                39.9355

                     31                     32                     33
                      A                      A                      A
 Frequencies --   1202.9555              1208.6832              1237.7138
 Red. masses --      2.4838                 2.0253                 1.5082
 Frc consts  --      2.1177                 1.7433                 1.3613
 IR Inten    --     34.6220               149.7894                17.6072

                     34                     35                     36
                      A                      A                      A
 Frequencies --   1277.6939              1339.3520              1348.6039
 Red. masses --      1.3343                 1.2813                 1.2934
 Frc consts  --      1.2834                 1.3542                 1.3859
 IR Inten    --     21.7120                 2.5249                 2.1039

                     37                     38                     39
                      A                      A                      A
 Frequencies --   1368.0283              1387.6830              1413.5916
 Red. masses --      1.7302                 1.6638                 1.2769
 Frc consts  --      1.9078                 1.8877                 1.5033
 IR Inten    --     22.7288                28.7358                 0.5944

                     40                     41                     42
                      A                      A                      A
 Frequencies --   1446.9831              1460.7949              1504.4013
 Red. masses --      1.2380                 1.2084                 1.1379
 Frc consts  --      1.5273                 1.5192                 1.5174
 IR Inten    --      3.5289                 9.2359                 0.3688

                     43                     44                     45
                      A                      A                      A
 Frequencies --   1525.1343              1529.3042              1533.3464
 Red. masses --      1.0480                 1.0592                 1.0530
 Frc consts  --      1.4363                 1.4595                 1.4587
 IR Inten    --      4.5327                 5.5912                12.0727

                     46                     47                     48
                      A                      A                      A
 Frequencies --   1543.9035              1728.6368              1838.1393
 Red. masses --      1.0510                 4.6794                 9.3423
 Frc consts  --      1.4760                 8.2385                18.5978
 IR Inten    --      9.2114                 0.8345               266.1825

                     49                     50                     51
                      A                      A                      A
 Frequencies --   3026.2733              3045.8686              3063.4010
 Red. masses --      1.0828                 1.0329                 1.0356
 Frc consts  --      5.8428                 5.6457                 5.7259
 IR Inten    --     31.9515                30.1600                21.6836

                     52                     53                     54
                      A                      A                      A
 Frequencies --   3101.9197              3114.5700              3130.2035
 Red. masses --      1.0860                 1.1034                 1.1033
 Frc consts  --      6.1566                 6.3064                 6.3691
 IR Inten    --      2.5788                29.7454                23.2639

                     55                     56                     57
                      A                      A                      A
 Frequencies --   3142.2532              3145.0832              3170.0033
 Red. masses --      1.1051                 1.1014                 1.0580
 Frc consts  --      6.4289                 6.4189                 6.2641
 IR Inten    --     29.6984                21.4192                 7.9069

                     58                     59                     60
                      A                      A                      A
 Frequencies --   3191.0148              3254.4936              3683.7850
 Red. masses --      1.0915                 1.1163                 1.0640
 Frc consts  --      6.5482                 6.9665                 8.5073
 IR Inten    --      6.9119                11.2686                51.9875

 - Thermochemistry -
 -------------------
 Temperature   298.150 Kelvin.  Pressure   1.00000 Atm.
 Atom     1 has atomic number  6 and mass  12.00000

 Molecular mass:   144.07864 amu.
 Principal axes and moments of inertia in atomic units:
                           1         2         3
     Eigenvalues --  1117.546471682.174031865.37500
           X            0.99700   0.05662  -0.05277
           Y           -0.05839   0.99776  -0.03257
           Z            0.05081   0.03555   0.99808
 This molecule is an asymmetric top.
 Rotational symmetry number  1.
 Warning -- assumption of classical behavior for rotation
           may cause significant error
 Rotational temperatures (Kelvin)      0.07750     0.05149     0.04643
 Rotational constants (GHZ):           1.61491     1.07286     0.96750
 Zero-point vibrational energy     489742.7 (Joules/Mol)
                                  117.05130 (Kcal/Mol)
 Warning -- explicit consideration of  16 degrees of freedom as
           vibrations may cause significant error
 Vibrational temperatures:     40.14   116.91   163.79   246.95   268.17
          (Kelvin)            295.60   314.63   343.08   394.82   430.07
                              441.88   504.56   651.56   752.15   855.96
                              884.48   914.45  1003.17  1138.57  1160.26
                             1307.01  1359.24  1377.78  1394.27  1482.06
                             1490.33  1549.33  1577.05  1606.77  1710.28
                             1730.78  1739.03  1780.79  1838.32  1927.03
                             1940.34  1968.29  1996.57  2033.84  2081.89
                             2101.76  2164.50  2194.33  2200.33  2206.14
                             2221.33  2487.12  2644.67  4354.13  4382.33
                             4407.55  4462.97  4481.17  4503.66  4521.00
                             4525.07  4560.93  4591.16  4682.49  5300.14

 Zero-point correction=                           0.186533 (Hartree/Particle)
 Thermal correction to Energy=                    0.197826
 Thermal correction to Enthalpy=                  0.198770
 Thermal correction to Gibbs Free Energy=         0.149281
 Sum of electronic and zero-point Energies=           -499.455843
 Sum of electronic and thermal Energies=              -499.444550
 Sum of electronic and thermal Enthalpies=            -499.443605
 Sum of electronic and thermal Free Energies=         -499.493095

                     E (Thermal)             CV                S
                      KCal/Mol        Cal/Mol-Kelvin    Cal/Mol-Kelvin
 Total                  124.138             40.750            104.159
 Electronic               0.000              0.000              0.000
 Translational            0.889              2.981             40.807
 Rotational               0.889              2.981             29.640
 Vibrational            122.360             34.788             33.712
 Vibration     1          0.593              1.984              5.974
 Vibration     2          0.600              1.962              3.860
 Vibration     3          0.607              1.938              3.202
 Vibration     4          0.626              1.877              2.417
 Vibration     5          0.632              1.858              2.263
 Vibration     6          0.640              1.832              2.084
 Vibration     7          0.646              1.813              1.970
 Vibration     8          0.656              1.782              1.814
 Vibration     9          0.677              1.721              1.568
 Vibration    10          0.692              1.676              1.423
 Vibration    11          0.697              1.660              1.378
 Vibration    12          0.728              1.574              1.163
 Vibration    13          0.811              1.355              0.787
 Vibration    14          0.878              1.200              0.604
 Vibration    15          0.953              1.043              0.458
 Vibration    16          0.974              1.001              0.425

 Optimization completed.
    -- Stationary point found.

 1\1\GINC-NODE107\Freq\RB3LYP\6-31G(d)\C7H12O3\VSC10255\08-Dec-2020\0\\
 #N Geom=AllCheck Guess=TCheck SCRF=Check GenChk RB3LYP/6-31G(d) Freq\\
 CID_14907868_JID_292_neutraal\\0,1\C,0.96132519,-0.0934887805,-0.01887
 92697\C,0.1643001273,1.2220425421,-0.044569908\C,0.6163840937,2.110998
 2188,-1.2520357204\C,0.0285039294,1.6891750419,-2.5822370532\C,-0.2486
 293624,2.5335180342,-3.5740834551\O,0.5112114439,3.5026580038,-1.00741
 21156\C,-0.7847346511,4.0071161957,-0.7004747286\C,-1.3291020986,0.949
 7003639,0.017035635\O,-2.1240159988,1.5096117644,0.740432762\O,-1.7143

 Normal termination of Gaussian 16 at Tue Dec  8 10:27:45 2020.

 ----------------------------------------------------------------------
 # B3LYP/6-311++G(d,p) empiricaldispersion=gd3bj scf=xqc pop=npa geom=c
 heck
 ----------------------------------------------------------------------

 -------------------------------------
 CID_14907868_JID_292_Energie_neutraal
 -------------------------------------
 Structure from the checkpoint file:  "JID_292.chk"
 Charge =  0 Multiplicity = 1

 SCF Done:  E(RB3LYP) =  -499.800761816     A.U. after   14 cycles
 Normal termination of Gaussian 16 at Tue Dec  8 10:29:30 2020.

 ----------------------------------------------------------------------
 # B3LYP/6-311++G(d,p) empiricaldispersion=gd3bj scf=xqc pop=npa geom=c
 heck
 ----------------------------------------------------------------------

 -----------------------------------
 CID_14907868_JID_292_Energie_kation
 -----------------------------------
 Structure from the checkpoint file:  "JID_292.chk"
 Charge =  1 Multiplicity = 2

 SCF Done:  E(UB3LYP) =  -499.458725631     A.U. after   25 cycles
 Normal termination of Gaussian 16 at Tue Dec  8 10:37:00 2020.
 Gaussian 16:  ES64L-G16RevA.03 25-Dec-2016

 ----------------------------------
 CID_14907868_JID_292_Energie_anion
 ----------------------------------
 Structure from the checkpoint file:  "JID_292.chk"
 Charge = -1 Multiplicity = 2

                         Standard orientation:
 ---------------------------------------------------------------------
 Center     Atomic      Atomic             Coordinates (Angstroms)
 Number     Number       Type             X           Y           Z
 ---------------------------------------------------------------------
      1          6           0       -1.607648   -1.334698    1.286805
      2          6           0       -0.784742   -0.110980    0.848774
      3          6           0        0.729813   -0.488484    0.721452
      4          6           0        1.076909   -1.222141   -0.556924
      5          6           0        2.252842   -1.124902   -1.174341
      6          8           0        1.611457    0.582027    1.011846
      7          6           0        1.498540    1.747979    0.201926
      8          6           0       -1.384874    0.526800   -0.392715
      9          8           0       -1.588931    1.710266   -0.555383
     10          8           0       -1.712128   -0.387523   -1.342518
     11          1           0       -1.525443   -2.153431    0.566706
     12          1           0       -2.668326   -1.082813    1.384317
     13          1           0       -1.252075   -1.691373    2.258888
     14          1           0       -0.837385    0.655575    1.627015
     15          1           0        0.906189   -1.181310    1.556019
     16          1           0        0.308249   -1.880971   -0.953261
     17          1           0        2.468086   -1.692989   -2.074666
     18          1           0        3.038072   -0.479172   -0.792852
     19          1           0        1.499147    1.508118   -0.868101
     20          1           0        0.592078    2.316527    0.434070
     21          1           0        2.376669    2.357175    0.430504
     22          1           0       -2.073481    0.125057   -2.090074
 ---------------------------------------------------------------------

 SCF Done:  E(UB3LYP) =  -499.785179160     A.U. after   31 cycles

 The electronic state is 2-A.
 Alpha  occ. eigenvalues --  -19.05908 -19.02494 -19.00958 -10.20008 -10.13238
 Alpha  occ. eigenvalues --  -10.10533 -10.09038 -10.07016 -10.06315 -10.05985
 Alpha  occ. eigenvalues --   -1.00247  -0.93655  -0.91304  -0.71487  -0.66745
 Alpha  occ. eigenvalues --   -0.61180  -0.56493  -0.53913  -0.49463  -0.44860
 Alpha  occ. eigenvalues --   -0.40394  -0.38645  -0.38110  -0.37859  -0.35996
 Alpha  occ. eigenvalues --   -0.33389  -0.33030  -0.31204  -0.30787  -0.29021
 Alpha  occ. eigenvalues --   -0.28211  -0.27751  -0.26707  -0.24622  -0.22232
 Alpha  occ. eigenvalues --   -0.20922  -0.17709  -0.16302  -0.15938   0.04893
 Alpha virt. eigenvalues --    0.07446   0.07704   0.08377   0.08731   0.09851
 Alpha virt. eigenvalues --    0.10154   0.10499   0.11116   0.12194   0.12430
 Alpha virt. eigenvalues --    0.13079   0.14215   0.15252   0.15813   0.16615

  Beta  occ. eigenvalues --  -19.05844 -19.02491 -19.00938 -10.20006 -10.13229
  Beta  occ. eigenvalues --  -10.10522 -10.09019 -10.06998 -10.06269 -10.05949
  Beta  occ. eigenvalues --   -1.00169  -0.93648  -0.91234  -0.71443  -0.66688
  Beta  occ. eigenvalues --   -0.61145  -0.56390  -0.53844  -0.49350  -0.44795
  Beta  occ. eigenvalues --   -0.40346  -0.38605  -0.38081  -0.37817  -0.35944
  Beta  occ. eigenvalues --   -0.33343  -0.33009  -0.31147  -0.30734  -0.28982
  Beta  occ. eigenvalues --   -0.28172  -0.27699  -0.26651  -0.24588  -0.22188
  Beta  occ. eigenvalues --   -0.20891  -0.17622  -0.16288  -0.15828
  Beta virt. eigenvalues --    0.07355   0.08265   0.08651   0.08770   0.09534
  Beta virt. eigenvalues --    0.09976   0.10847   0.11103   0.11509   0.12385
  Beta virt. eigenvalues --    0.12886   0.13590   0.14460   0.15413   0.15970

 Mulliken charges and spin densities:
               1          2
     1  C    1.615916  -2.358611
     2  C   -1.591257   1.861058
     3  C    1.502084  -1.803702
     4  C   -1.534983   1.740034
     5  C    1.223761  -1.766709
     6  O   -0.175775   0.032802
     7  C   -0.170357  -0.168192
     8  C    1.162431  -1.383682
     9  O   -0.321226   0.062490
    10  O   -0.242114   0.127357
    11  H   -0.112576   0.283702
    12  H   -0.482819   0.655367
    13  H   -0.371070   0.514009
    14  H   -0.261524   0.538074
    15  H   -0.364995   0.585885
    16  H   -0.085508   0.273523
    17  H   -0.437166   0.566290
    18  H    0.095458   0.045659
    19  H    0.052524   0.094514
    20  H    0.172795  -0.017862
    21  H   -0.110854   0.255111
    22  H   -0.562746   0.862885
 Sum of Mulliken charges =  -1.00000   1.00000

 Dipole moment (field-independent basis, Debye):
    X=              3.5911    Y=              2.4236    Z=              1.0309  Tot=              4.4534
 Quadrupole moment (field-independent basis, Debye-Ang):
   XX=           -107.6694   YY=            -95.0449   ZZ=           -106.5322
   XY=              2.8150   XZ=             -4.3457   YZ=              0.3194

 Summary of Natural Population Analysis:

                                       Natural Population
                Natural  -----------------------------------------------
    Atom  No    Charge         Core      Valence    Rydberg      Total
 -----------------------------------------------------------------------
      C    1   -0.28177      0.99965     2.27544    0.00668     3.28177
      C    2   -0.16670      0.99954     2.15502    0.01215     3.16670
      C    3    0.05869      0.99950     1.92463    0.01718     2.94131
      C    4   -0.10297      0.99953     2.09266    0.01078     3.10297
      C    5   -0.18804      0.99956     2.18050    0.00798     3.18804
      O    6   -0.30085      0.99988     3.29113    0.00984     4.30085
      C    7   -0.10709      0.99959     2.09927    0.00823     3.10709
      C    8    0.41150      0.99968     1.56230    0.02653     2.58850
      O    9   -0.30806      0.99987     3.30164    0.00655     4.30806
      O   10   -0.34577      0.99988     3.33763    0.00826     4.34577
      H   11    0.10486      0.00000     0.39307    0.00208     0.39514
      H   12    0.10521      0.00000     0.39316    0.00163     0.39479
      H   13    0.10211      0.00000     0.39598    0.00192     0.39789
      H   14    0.11469      0.00000     0.38345    0.00186     0.38531
      H   15    0.10234      0.00000     0.39532    0.00234     0.39766
      H   16    0.10535      0.00000     0.39278    0.00186     0.39465
      H   17    0.09489      0.00000     0.40407    0.00104     0.40511
      H   18    0.09373      0.00000     0.40487    0.00140     0.40627
      H   19    0.08515      0.00000     0.41352    0.00133     0.41485
      H   20    0.09013      0.00000     0.40843    0.00144     0.40987
      H   21    0.08561      0.00000     0.41337    0.00102     0.41439
      H   22    0.24700      0.00000     0.23004    0.02296     0.25300
 =======================================================================
   * Total *    0.00000      9.99667    28.84828    0.15505    39.00000

 Normal termination of Gaussian 16 at Tue Dec  8 10:46:39 2020.
