 Gaussian 16, Revision A.03,

 -----------------------------------------------------------
 # opt freq B3LYP/6-31G(d) empiricaldispersion=gd3bj scf=xqc
 -----------------------------------------------------------

 ------------------------------
 CID_63996185_JID_7597_neutraal
 ------------------------------
 Symbolic Z-matrix:
 Charge =  0 Multiplicity = 1

 SCF Done:  E(RB3LYP) =  -746.347887838     A.U. after   15 cycles
 SCF Done:  E(RB3LYP) =  -746.350186036     A.U. after   13 cycles
 SCF Done:  E(RB3LYP) =  -746.349872151     A.U. after   12 cycles
 SCF Done:  E(RB3LYP) =  -746.351403903     A.U. after   13 cycles
 SCF Done:  E(RB3LYP) =  -746.352722209     A.U. after   13 cycles
 SCF Done:  E(RB3LYP) =  -746.353301099     A.U. after   12 cycles
 SCF Done:  E(RB3LYP) =  -746.353328284     A.U. after   12 cycles
 SCF Done:  E(RB3LYP) =  -746.353485949     A.U. after   11 cycles
 SCF Done:  E(RB3LYP) =  -746.353561353     A.U. after   10 cycles
 SCF Done:  E(RB3LYP) =  -746.353581314     A.U. after   11 cycles
 SCF Done:  E(RB3LYP) =  -746.353591919     A.U. after    9 cycles
 SCF Done:  E(RB3LYP) =  -746.353593575     A.U. after    9 cycles
 SCF Done:  E(RB3LYP) =  -746.353594996     A.U. after    9 cycles
 SCF Done:  E(RB3LYP) =  -746.353595567     A.U. after    9 cycles
 SCF Done:  E(RB3LYP) =  -746.353595612     A.U. after    7 cycles
 Optimization completed.
    -- Stationary point found.
 Normal termination of Gaussian 16 at Mon Dec 14 16:45:02 2020.

 --------------------------------------------------------------------
 #N Geom=AllCheck Guess=TCheck SCRF=Check GenChk RB3LYP/6-31G(d) Freq
 --------------------------------------------------------------------

 Structure from the checkpoint file:  "JID_7597.chk"
 ------------------------------
 CID_63996185_JID_7597_neutraal
 ------------------------------
 Charge =  0 Multiplicity = 1

 SCF Done:  E(RB3LYP) =  -746.353595612     A.U. after    1 cycles

  Exact polarizability: 200.250  12.434 134.395  18.462 -21.951 132.799
 Approx polarizability: 281.161  23.513 213.409  37.598 -57.211 224.464

                      1                      2                      3
                      A                      A                      A
 Frequencies --     19.8646                39.0017                53.2091
 Red. masses --      5.3570                 4.1143                 2.4886
 Frc consts  --      0.0012                 0.0037                 0.0042
 IR Inten    --      1.6437                 1.2135                 0.9303

                      4                      5                      6
                      A                      A                      A
 Frequencies --     76.0139               107.1683               111.5140
 Red. masses --      4.6732                 3.4175                 3.5642
 Frc consts  --      0.0159                 0.0231                 0.0261
 IR Inten    --     10.6844                 0.7915                 0.3965

                      7                      8                      9
                      A                      A                      A
 Frequencies --    159.5227               177.2506               184.0248
 Red. masses --      4.1273                 3.3785                 3.3757
 Frc consts  --      0.0619                 0.0625                 0.0674
 IR Inten    --      3.4670                 4.5741                 4.1766

                     10                     11                     12
                      A                      A                      A
 Frequencies --    205.4285               259.8029               285.9411
 Red. masses --      3.4826                 1.2465                 1.4635
 Frc consts  --      0.0866                 0.0496                 0.0705
 IR Inten    --      1.9771                51.8116                 1.8381

                     13                     14                     15
                      A                      A                      A
 Frequencies --    303.2709               318.3080               335.8440
 Red. masses --      2.6666                 2.7950                 2.7532
 Frc consts  --      0.1445                 0.1668                 0.1830
 IR Inten    --      3.0807                 4.3334                 0.7196

                     16                     17                     18
                      A                      A                      A
 Frequencies --    371.5614               381.9803               389.4659
 Red. masses --      4.2851                 3.0603                 4.0794
 Frc consts  --      0.3486                 0.2631                 0.3646
 IR Inten    --      2.5448                 1.3023                 0.5287

                     19                     20                     21
                      A                      A                      A
 Frequencies --    411.0110               442.0238               448.4062
 Red. masses --      2.1088                 3.3067                 3.1638
 Frc consts  --      0.2099                 0.3807                 0.3748
 IR Inten    --      1.9737                 5.6717                 0.6476

                     22                     23                     24
                      A                      A                      A
 Frequencies --    493.0028               546.8607               557.2700
 Red. masses --      3.5625                 2.4986                 2.0282
 Frc consts  --      0.5102                 0.4403                 0.3711
 IR Inten    --     24.5194                17.7397                33.4567

                     25                     26                     27
                      A                      A                      A
 Frequencies --    598.6151               623.6898               646.0327
 Red. masses --      1.8990                 2.3162                 2.7260
 Frc consts  --      0.4009                 0.5308                 0.6703
 IR Inten    --    111.5448                27.3774                24.8505

                     28                     29                     30
                      A                      A                      A
 Frequencies --    675.5929               696.3764               720.0100
 Red. masses --      1.7806                 2.5542                 2.8466
 Frc consts  --      0.4788                 0.7298                 0.8695
 IR Inten    --     48.5586                75.2627                 9.6197

                     31                     32                     33
                      A                      A                      A
 Frequencies --    756.8806               775.0309               792.0146
 Red. masses --      2.1322                 2.5150                 2.1008
 Frc consts  --      0.7197                 0.8901                 0.7764
 IR Inten    --      2.8370                47.5592                25.1981

                     34                     35                     36
                      A                      A                      A
 Frequencies --    801.3345               804.6933               818.6315
 Red. masses --      2.0974                 1.8984                 1.3326
 Frc consts  --      0.7935                 0.7243                 0.5262
 IR Inten    --     66.2502                23.5498                42.4642

                     37                     38                     39
                      A                      A                      A
 Frequencies --    836.3255               851.3188               867.8200
 Red. masses --      1.7180                 1.9749                 1.5811
 Frc consts  --      0.7080                 0.8433                 0.7015
 IR Inten    --     47.3292                12.2217               146.9098

                     40                     41                     42
                      A                      A                      A
 Frequencies --    888.5271               918.9174               928.9458
 Red. masses --      1.9145                 2.0015                 1.9759
 Frc consts  --      0.8905                 0.9958                 1.0046
 IR Inten    --      0.2447                 8.3877                10.9983

                     43                     44                     45
                      A                      A                      A
 Frequencies --    939.3686               961.3415               970.6368
 Red. masses --      1.3673                 2.0309                 2.4084
 Frc consts  --      0.7108                 1.1058                 1.3369
 IR Inten    --      1.9019                 5.0149                 9.4683

                     46                     47                     48
                      A                      A                      A
 Frequencies --   1017.1842              1064.6441              1069.0970
 Red. masses --      2.0933                 1.3854                 1.3901
 Frc consts  --      1.2761                 0.9252                 0.9361
 IR Inten    --     14.3615                 3.4494                 1.3155

                     49                     50                     51
                      A                      A                      A
 Frequencies --   1089.6010              1094.6650              1110.9150
 Red. masses --      1.3580                 2.1241                 1.9312
 Frc consts  --      0.9499                 1.4996                 1.4043
 IR Inten    --      2.7695                 1.9058                32.2195

                     52                     53                     54
                      A                      A                      A
 Frequencies --   1135.6424              1140.1185              1145.2511
 Red. masses --      1.9781                 1.5628                 1.3476
 Frc consts  --      1.5031                 1.1969                 1.0414
 IR Inten    --      7.3121                 5.7439                 2.5195

                     55                     56                     57
                      A                      A                      A
 Frequencies --   1156.4592              1200.5180              1207.5509
 Red. masses --      1.7212                 1.2013                 1.4133
 Frc consts  --      1.3562                 1.0201                 1.2142
 IR Inten    --      9.4361                15.1144                 1.3440

                     58                     59                     60
                      A                      A                      A
 Frequencies --   1212.8580              1246.5329              1270.8892
 Red. masses --      2.0085                 1.8733                 1.8957
 Frc consts  --      1.7407                 1.7150                 1.8040
 IR Inten    --     25.0355                 1.2955                41.1650

                     61                     62                     63
                      A                      A                      A
 Frequencies --   1296.2152              1318.1295              1321.6812
 Red. masses --      1.6078                 3.0055                 1.7955
 Frc consts  --      1.5917                 3.0767                 1.8480
 IR Inten    --      3.9672                19.6422                72.6517

                     64                     65                     66
                      A                      A                      A
 Frequencies --   1337.0274              1355.2033              1378.4838
 Red. masses --      1.4859                 2.2285                 1.3214
 Frc consts  --      1.5650                 2.4114                 1.4794
 IR Inten    --     11.6845               109.0013                10.1360

                     67                     68                     69
                      A                      A                      A
 Frequencies --   1381.5944              1417.3900              1433.0637
 Red. masses --      3.7107                 1.5583                 1.2592
 Frc consts  --      4.1732                 1.8446                 1.5236
 IR Inten    --    117.8243                26.3837                 8.5279

                     70                     71                     72
                      A                      A                      A
 Frequencies --   1449.2347              1463.1516              1494.1036
 Red. masses --      1.5364                 2.4029                 1.0913
 Frc consts  --      1.9012                 3.0309                 1.4353
 IR Inten    --      2.0843                88.4870                 3.3029

                     73                     74                     75
                      A                      A                      A
 Frequencies --   1508.0319              1525.0765              1536.8481
 Red. masses --      1.1023                 1.0575                 1.3792
 Frc consts  --      1.4770                 1.4491                 1.9193
 IR Inten    --      4.1095                 7.9279                 1.1599

                     76                     77                     78
                      A                      A                      A
 Frequencies --   1545.6324              1551.9070              1561.7630
 Red. masses --      1.1267                 2.5095                 1.5851
 Frc consts  --      1.5859                 3.5609                 2.2779
 IR Inten    --     39.7165               181.6350                 7.5371

                     79                     80                     81
                      A                      A                      A
 Frequencies --   1639.4877              1644.2009              1676.5552
 Red. masses --      3.3550                 1.3742                 3.3018
 Frc consts  --      5.3133                 2.1888                 5.4681
 IR Inten    --     51.7093               119.6363                48.8624

                     82                     83                     84
                      A                      A                      A
 Frequencies --   1692.3906              1776.3397              3009.2125
 Red. masses --      1.3008                 8.5912                 1.0626
 Frc consts  --      2.1951                15.9718                 5.6695
 IR Inten    --     42.4333               242.0703                29.5278

                     85                     86                     87
                      A                      A                      A
 Frequencies --   3038.5416              3048.4416              3062.9499
 Red. masses --      1.0852                 1.0995                 1.0376
 Frc consts  --      5.9035                 6.0200                 5.7355
 IR Inten    --     64.6616                28.6296                23.7646

                     88                     89                     90
                      A                      A                      A
 Frequencies --   3127.1611              3138.5678              3144.7766
 Red. masses --      1.1006                 1.0538                 1.0997
 Frc consts  --      6.3416                 6.1161                 6.4080
 IR Inten    --     35.9910                30.9378                29.9437

                     91                     92                     93
                      A                      A                      A
 Frequencies --   3155.6971              3159.1725              3167.9736
 Red. masses --      1.0662                 1.0795                 1.0895
 Frc consts  --      6.2559                 6.3475                 6.4420
 IR Inten    --     12.1870                13.5466                21.7864

                     94                     95                     96
                      A                      A                      A
 Frequencies --   3200.3445              3214.3982              3237.2660
 Red. masses --      1.0894                 1.1186                 1.1161
 Frc consts  --      6.5741                 6.8095                 6.8916
 IR Inten    --      7.3947                 8.3997                13.9147

                     97                     98                     99
                      A                      A                      A
 Frequencies --   3245.8327              3505.3270              3530.7584
 Red. masses --      1.0906                 1.0496                 1.0482
 Frc consts  --      6.7695                 7.5989                 7.6990
 IR Inten    --      8.6524                 7.5468                26.4858

                    100                    101                    102
                      A                      A                      A
 Frequencies --   3534.6604              3603.3869              3664.0151
 Red. masses --      1.0742                 1.0955                 1.1014
 Frc consts  --      7.9076                 8.3808                 8.7116
 IR Inten    --      1.9832                 8.4422                51.2090

 - Thermochemistry -
 -------------------
 Temperature   298.150 Kelvin.  Pressure   1.00000 Atm.
 Atom     1 has atomic number  6 and mass  12.00000

 Molecular mass:   233.15281 amu.
 Principal axes and moments of inertia in atomic units:
                           1         2         3
     Eigenvalues --  2422.786806091.725386540.68818
           X            0.99996  -0.00451   0.00799
           Y            0.00446   0.99997   0.00620
           Z           -0.00802  -0.00617   0.99995
 This molecule is an asymmetric top.
 Rotational symmetry number  1.
 Warning -- assumption of classical behavior for rotation
           may cause significant error
 Rotational temperatures (Kelvin)      0.03575     0.01422     0.01324
 Rotational constants (GHZ):           0.74490     0.29626     0.27593
 Zero-point vibrational energy     818268.3 (Joules/Mol)
                                  195.57081 (Kcal/Mol)
 Warning -- explicit consideration of  25 degrees of freedom as
           vibrations may cause significant error
 Vibrational temperatures:     28.58    56.11    76.56   109.37   154.19
          (Kelvin)            160.44   229.52   255.02   264.77   295.57
                              373.80   411.41   436.34   457.97   483.20
                              534.59   549.58   560.35   591.35   635.97
                              645.16   709.32   786.81   801.79   861.27
                              897.35   929.50   972.03  1001.93  1035.93
                             1088.98  1115.10  1139.53  1152.94  1157.77
                             1177.83  1203.29  1224.86  1248.60  1278.39
                             1322.12  1336.55  1351.54  1383.16  1396.53
                             1463.50  1531.79  1538.19  1567.69  1574.98
                             1598.36  1633.94  1640.38  1647.76  1663.89
                             1727.28  1737.40  1745.03  1793.48  1828.53
                             1864.96  1896.49  1901.60  1923.68  1949.84
                             1983.33  1987.81  2039.31  2061.86  2085.13
                             2105.15  2149.68  2169.72  2194.24  2211.18
                             2223.82  2232.85  2247.03  2358.86  2365.64
                             2412.19  2434.97  2555.76  4329.59  4371.78
                             4386.03  4406.90  4499.29  4515.70  4524.63
                             4540.34  4545.34  4558.01  4604.58  4624.80
                             4657.70  4670.03  5043.38  5079.97  5085.59
                             5184.47  5271.70

 Zero-point correction=                           0.311662 (Hartree/Particle)
 Thermal correction to Energy=                    0.328398
 Thermal correction to Enthalpy=                  0.329343
 Thermal correction to Gibbs Free Energy=         0.266617
 Sum of electronic and zero-point Energies=           -746.041934
 Sum of electronic and thermal Energies=              -746.025197
 Sum of electronic and thermal Enthalpies=            -746.024253
 Sum of electronic and thermal Free Energies=         -746.086978

                     E (Thermal)             CV                S
                      KCal/Mol        Cal/Mol-Kelvin    Cal/Mol-Kelvin
 Total                  206.073             65.397            132.017
 Electronic               0.000              0.000              0.000
 Translational            0.889              2.981             42.241
 Rotational               0.889              2.981             32.934
 Vibrational            204.296             59.435             56.841
 Vibration     1          0.593              1.986              6.648
 Vibration     2          0.594              1.981              5.309
 Vibration     3          0.596              1.976              4.694
 Vibration     4          0.599              1.965              3.991
 Vibration     5          0.606              1.943              3.320
 Vibration     6          0.607              1.940              3.242
 Vibration     7          0.621              1.892              2.555
 Vibration     8          0.628              1.870              2.357
 Vibration     9          0.631              1.862              2.287
 Vibration    10          0.640              1.832              2.084
 Vibration    11          0.668              1.746              1.663
 Vibration    12          0.684              1.700              1.498
 Vibration    13          0.695              1.668              1.399
 Vibration    14          0.705              1.639              1.319
 Vibration    15          0.717              1.604              1.232
 Vibration    16          0.743              1.531              1.073
 Vibration    17          0.751              1.509              1.031
 Vibration    18          0.757              1.493              1.002
 Vibration    19          0.775              1.446              0.923
 Vibration    20          0.802              1.378              0.820
 Vibration    21          0.807              1.364              0.801
 Vibration    22          0.849              1.266              0.676
 Vibration    23          0.902              1.147              0.551
 Vibration    24          0.913              1.124              0.529
 Vibration    25          0.957              1.035              0.452

 Optimization completed.
    -- Stationary point found.
 Normal termination of Gaussian 16 at Mon Dec 14 16:59:26 2020.

 ----------------------------------------------------------------------
 # B3LYP/6-311++G(d,p) empiricaldispersion=gd3bj scf=xqc pop=npa geom=c
 heck
 ----------------------------------------------------------------------

 --------------------------------------
 CID_63996185_JID_7597_Energie_neutraal
 --------------------------------------
 Structure from the checkpoint file:  "JID_7597.chk"
 Charge =  0 Multiplicity = 1

 SCF Done:  E(RB3LYP) =  -746.573809336     A.U. after   15 cycles
 Normal termination of Gaussian 16 at Mon Dec 14 17:06:41 2020.

 ----------------------------------------------------------------------
 # B3LYP/6-311++G(d,p) empiricaldispersion=gd3bj scf=xqc pop=npa geom=c
 heck
 ----------------------------------------------------------------------

 ------------------------------------
 CID_63996185_JID_7597_Energie_kation
 ------------------------------------
 Structure from the checkpoint file:  "JID_7597.chk"
 Charge =  1 Multiplicity = 2

 SCF Done:  E(UB3LYP) =  -746.316217497     A.U. after   21 cycles
 Normal termination of Gaussian 16 at Mon Dec 14 17:21:37 2020.
 Gaussian 16:  ES64L-G16RevA.03 25-Dec-2016

 ----------------------------------------------------------------------
 # B3LYP/6-311++G(d,p) empiricaldispersion=gd3bj scf=xqc pop=npa geom=c
 heck
 ----------------------------------------------------------------------

 -----------------------------------
 CID_63996185_JID_7597_Energie_anion
 -----------------------------------
 Structure from the checkpoint file:  "JID_7597.chk"
 Charge = -1 Multiplicity = 2

                         Standard orientation:
 ---------------------------------------------------------------------
 Center     Atomic      Atomic             Coordinates (Angstroms)
 Number     Number       Type             X           Y           Z
 ---------------------------------------------------------------------
      1          6           0       -3.519453   -1.646105   -0.226323
      2          6           0       -2.940762   -0.489413   -1.047806
      3          6           0       -3.100075    0.875188   -0.332730
      4          6           0       -2.381776    1.040760    0.992271
      5          6           0       -1.052302    1.743226    1.080838
      6          6           0       -2.289500    2.411725    1.623189
      7          7           0       -1.588371   -0.773012   -1.571691
      8          6           0       -0.442666   -0.846110   -0.752409
      9          6           0        0.665462   -0.043821   -1.031852
     10          6           0        1.856868   -0.110545   -0.301866
     11          6           0        1.940790   -0.984182    0.804067
     12          6           0        0.835671   -1.802566    1.076323
     13          6           0       -0.318307   -1.763864    0.304337
     14          7           0        3.108617   -1.095900    1.596391
     15          6           0        2.950480    0.799223   -0.779061
     16          8           0        2.729105    1.736006   -1.539466
     17          7           0        4.223446    0.541099   -0.318014
     18          1           0       -3.070753   -1.721605    0.767025
     19          1           0       -3.367114   -2.595575   -0.748273
     20          1           0       -4.595387   -1.494037   -0.086441
     21          1           0       -3.553188   -0.426979   -1.956652
     22          1           0       -2.769375    1.669127   -1.017358
     23          1           0       -4.178605    1.034433   -0.181464
     24          1           0       -2.523743    0.222572    1.695027
     25          1           0       -0.312670    1.354478    1.774401
     26          1           0       -0.623704    2.131639    0.162030
     27          1           0       -2.697240    3.251718    1.065446
     28          1           0       -2.411776    2.495644    2.699757
     29          1           0       -1.402443   -0.145254   -2.347497
     30          1           0        0.630363    0.679880   -1.840929
     31          1           0        0.891876   -2.499991    1.909745
     32          1           0       -1.122100   -2.454126    0.524657
     33          1           0        3.499006   -0.194906    1.858324
     34          1           0        2.946199   -1.652092    2.429561
     35          1           0        4.443447   -0.389191    0.020635
     36          1           0        4.951950    1.039800   -0.812951
 ---------------------------------------------------------------------

 SCF Done:  E(UB3LYP) =  -746.564245803     A.U. after   33 cycles
 SCF Done:  E(UB3LYP) =  -746.565329518     a.u. after    7 cycles

 The electronic state is 2-A.
 Alpha  occ. eigenvalues --  -18.96744 -14.21483 -14.20973 -14.20562 -10.15219
 Alpha  occ. eigenvalues --  -10.10962 -10.09824 -10.08838 -10.07517 -10.07274
 Alpha  occ. eigenvalues --  -10.07074 -10.06335 -10.06288 -10.05790 -10.05468
 Alpha  occ. eigenvalues --  -10.05178 -10.04719  -0.91923  -0.82131  -0.81211
 Alpha  occ. eigenvalues --   -0.78419  -0.75837  -0.72179  -0.67263  -0.64135
 Alpha  occ. eigenvalues --   -0.60243  -0.60054  -0.52865  -0.51529  -0.49929
 Alpha  occ. eigenvalues --   -0.48732  -0.46857  -0.45311  -0.42414  -0.42237
 Alpha  occ. eigenvalues --   -0.39887  -0.39524  -0.38686  -0.37213  -0.35039
 Alpha  occ. eigenvalues --   -0.34439  -0.33997  -0.32282  -0.31138  -0.30724
 Alpha  occ. eigenvalues --   -0.30348  -0.30164  -0.29023  -0.27741  -0.26839
 Alpha  occ. eigenvalues --   -0.26356  -0.26033  -0.25418  -0.23476  -0.22854
 Alpha  occ. eigenvalues --   -0.21779  -0.19007  -0.18536  -0.16773  -0.15330
 Alpha  occ. eigenvalues --   -0.14617  -0.13802  -0.08274   0.04364
 Alpha virt. eigenvalues --    0.05927   0.06364   0.07434   0.07890   0.08239
 Alpha virt. eigenvalues --    0.08933   0.09612   0.10240   0.10492   0.10955
 Alpha virt. eigenvalues --    0.11600   0.11770   0.12213   0.12523   0.13186

  Beta  occ. eigenvalues --  -18.96649 -14.21428 -14.20927 -14.20563 -10.15120
  Beta  occ. eigenvalues --  -10.10955 -10.09789 -10.08878 -10.07508 -10.07267
  Beta  occ. eigenvalues --  -10.07068 -10.06333 -10.06264 -10.05715 -10.05439
  Beta  occ. eigenvalues --  -10.05045 -10.04617  -0.91736  -0.82109  -0.81132
  Beta  occ. eigenvalues --   -0.78305  -0.75823  -0.72045  -0.67223  -0.63889
  Beta  occ. eigenvalues --   -0.60143  -0.59995  -0.52558  -0.51471  -0.49913
  Beta  occ. eigenvalues --   -0.48638  -0.46781  -0.45243  -0.42349  -0.42173
  Beta  occ. eigenvalues --   -0.39803  -0.39465  -0.38604  -0.37161  -0.35016
  Beta  occ. eigenvalues --   -0.34365  -0.33923  -0.32197  -0.31008  -0.30627
  Beta  occ. eigenvalues --   -0.30071  -0.29999  -0.28863  -0.27660  -0.26667
  Beta  occ. eigenvalues --   -0.26324  -0.26003  -0.25293  -0.23384  -0.22809
  Beta  occ. eigenvalues --   -0.21651  -0.18947  -0.18525  -0.16342  -0.15176
  Beta  occ. eigenvalues --   -0.14404  -0.13248  -0.07950
  Beta virt. eigenvalues --    0.06379   0.07007   0.07652   0.07801   0.07968
  Beta virt. eigenvalues --    0.08681   0.09298   0.09778   0.10407   0.10513
  Beta virt. eigenvalues --    0.11135   0.11796   0.12111   0.12284   0.12630

 Mulliken charges and spin densities:
               1          2
     1  C    0.324417  -0.945021
     2  C   -0.404951   0.575073
     3  C   -0.239129  -0.699441
     4  C    0.079110   0.432134
     5  C   -0.427665  -0.036412
     6  C    0.029235  -0.391573
     7  N   -0.019411  -0.047050
     8  C    0.340503  -0.156670
     9  C   -0.737734   0.242104
    10  C    0.691104  -0.074697
    11  C   -0.360050   0.263436
    12  C   -0.431236  -0.018774
    13  C    0.574802  -0.708640
    14  N   -0.395505  -0.011828
    15  C    0.414179  -0.593353
    16  O   -0.370641   0.028425
    17  N   -0.387636  -0.025110
    18  H   -0.153623   0.270712
    19  H    0.079554   0.077744
    20  H   -0.159088   0.293840
    21  H   -0.207515   0.379350
    22  H    0.128798   0.002701
    23  H   -0.102276   0.270555
    24  H    0.143385   0.049053
    25  H    0.125881   0.030714
    26  H    0.220311  -0.020337
    27  H    0.103950   0.005383
    28  H   -0.033559   0.173672
    29  H    0.228907   0.024982
    30  H    0.113267   0.078787
    31  H   -0.619882   0.764440
    32  H    0.254857  -0.118900
    33  H    0.009918   0.250769
    34  H   -0.195807   0.466896
    35  H    0.147047   0.110887
    36  H    0.236484   0.056147
 Sum of Mulliken charges =  -1.00000   1.00000

 Dipole moment (field-independent basis, Debye):
    X=             -1.3897    Y=              1.4499    Z=             -1.5769  Tot=              2.5535
 Quadrupole moment (field-independent basis, Debye-Ang):
   XX=           -166.3220   YY=           -140.1015   ZZ=           -139.7095
   XY=             -2.3960   XZ=             -3.4611   YZ=              7.3668

 Summary of Natural Population Analysis:

                                       Natural Population
                Natural  -----------------------------------------------
    Atom  No    Charge         Core      Valence    Rydberg      Total
 -----------------------------------------------------------------------
      C    1   -0.29271      0.99964     2.28696    0.00611     3.29271
      C    2   -0.00264      0.99958     1.99040    0.01265     3.00264
      C    3   -0.19517      0.99959     2.18504    0.01054     3.19517
      C    4   -0.12068      0.99958     2.11089    0.01020     3.12068
      C    5   -0.19416      0.99962     2.18458    0.00997     3.19416
      C    6   -0.19934      0.99962     2.19364    0.00608     3.19934
      N    7   -0.32723      0.99969     2.81675    0.01079     3.82723
      C    8    0.06079      0.99947     1.92836    0.01139     2.93921
      C    9   -0.07373      0.99950     2.06599    0.00825     3.07373
      C   10   -0.07780      0.99942     2.06819    0.01019     3.07780
      C   11    0.08558      0.99946     1.90333    0.01163     2.91442
      C   12   -0.11785      0.99953     2.10802    0.01030     3.11785
      C   13   -0.07897      0.99952     2.07075    0.00871     3.07897
      N   14   -0.41334      0.99973     2.90275    0.01087     3.91334
      C   15    0.34638      0.99966     1.63156    0.02239     2.65362
      O   16   -0.32367      0.99988     3.31813    0.00567     4.32367
      N   17   -0.41216      0.99971     2.90459    0.00786     3.91216
      H   18    0.09962      0.00000     0.39904    0.00133     0.40038
      H   19    0.10272      0.00000     0.39625    0.00103     0.39728
      H   20    0.10006      0.00000     0.39894    0.00100     0.39994
      H   21    0.09064      0.00000     0.40775    0.00162     0.40936
      H   22    0.09551      0.00000     0.40333    0.00116     0.40449
      H   23    0.09823      0.00000     0.40063    0.00113     0.40177
      H   24    0.10388      0.00000     0.39469    0.00142     0.39612
      H   25    0.10730      0.00000     0.39176    0.00094     0.39270
      H   26    0.10594      0.00000     0.39308    0.00098     0.39406
      H   27    0.09619      0.00000     0.40285    0.00096     0.40381
      H   28    0.09908      0.00000     0.39999    0.00093     0.40092
      H   29    0.17679      0.00000     0.32101    0.00220     0.32321
      H   30    0.10678      0.00000     0.39197    0.00125     0.39322
      H   31    0.09644      0.00000     0.40243    0.00112     0.40356
      H   32    0.09769      0.00000     0.40079    0.00151     0.40231
      H   33    0.18860      0.00000     0.30885    0.00255     0.31140
      H   34    0.18535      0.00000     0.31076    0.00390     0.31465
      H   35    0.19819      0.00000     0.29931    0.00251     0.30181
      H   36    0.18769      0.00000     0.31029    0.00202     0.31231
 =======================================================================
   * Total *    0.00000     16.99319    45.80363    0.20317    63.00000

 Normal termination of Gaussian 16 at Mon Dec 14 19:34:13 2020.
