 Gaussian 16, Revision A.03,

 -----------------------------------------------------------
 # opt freq B3LYP/6-31G(d) empiricaldispersion=gd3bj scf=xqc
 -----------------------------------------------------------

 -----------------------------
 CID_84107423_JID_135_neutraal
 -----------------------------
 Symbolic Z-matrix:
 Charge =  0 Multiplicity = 1

 SCF Done:  E(RB3LYP) =  -780.421694081     A.U. after   14 cycles
 SCF Done:  E(RB3LYP) =  -780.427532898     A.U. after   11 cycles
 SCF Done:  E(RB3LYP) =  -780.428637422     A.U. after   12 cycles
 SCF Done:  E(RB3LYP) =  -780.428863358     A.U. after   11 cycles
 SCF Done:  E(RB3LYP) =  -780.428954850     A.U. after   11 cycles
 SCF Done:  E(RB3LYP) =  -780.429002808     A.U. after   10 cycles
 SCF Done:  E(RB3LYP) =  -780.429048396     A.U. after   11 cycles
 SCF Done:  E(RB3LYP) =  -780.429059441     A.U. after   10 cycles
 SCF Done:  E(RB3LYP) =  -780.429061075     A.U. after    8 cycles
 SCF Done:  E(RB3LYP) =  -780.429061682     A.U. after    7 cycles
 SCF Done:  E(RB3LYP) =  -780.429061899     A.U. after    8 cycles
 SCF Done:  E(RB3LYP) =  -780.429061975     A.U. after    7 cycles
 SCF Done:  E(RB3LYP) =  -780.429062023     A.U. after    7 cycles
 Optimization completed.
    -- Stationary point found.
 Normal termination of Gaussian 16 at Tue Dec  8 10:17:56 2020.

 --------------------------------------------------------------------
 #N Geom=AllCheck Guess=TCheck SCRF=Check GenChk RB3LYP/6-31G(d) Freq
 --------------------------------------------------------------------

 Structure from the checkpoint file:  "JID_135.chk"
 -----------------------------
 CID_84107423_JID_135_neutraal
 -----------------------------
 Charge =  0 Multiplicity = 1

 SCF Done:  E(RB3LYP) =  -780.429062023     A.U. after    1 cycles

  Exact polarizability: 125.743   1.723  97.313   3.144   0.589  66.219
 Approx polarizability: 184.552   3.592 174.547   4.800   0.083  99.655

                      1                      2                      3
                      A                      A                      A
 Frequencies --     39.8642                59.1023               136.1922
 Red. masses --      4.7118                 3.8311                 3.6402
 Frc consts  --      0.0044                 0.0079                 0.0398
 IR Inten    --      0.4547                 2.3807                 0.8494

                      4                      5                      6
                      A                      A                      A
 Frequencies --    208.0711               323.1772               343.6052
 Red. masses --      3.5114                 4.2338                 5.1198
 Frc consts  --      0.0896                 0.2605                 0.3561
 IR Inten    --      1.8589                 4.0088                 0.2853

                      7                      8                      9
                      A                      A                      A
 Frequencies --    389.5884               527.7116               557.2717
 Red. masses --      2.1248                 4.3351                 2.4615
 Frc consts  --      0.1900                 0.7113                 0.4504
 IR Inten    --     12.5213                 5.2823                10.1801

                     10                     11                     12
                      A                      A                      A
 Frequencies --    598.1884               629.4155               651.8652
 Red. masses --      3.2627                 7.8066                 3.0376
 Frc consts  --      0.6879                 1.8222                 0.7605
 IR Inten    --      0.3490                 7.9027                39.4753

                     13                     14                     15
                      A                      A                      A
 Frequencies --    700.9548               716.7442               746.5778
 Red. masses --      1.2234                 3.2067                 6.0284
 Frc consts  --      0.3542                 0.9706                 1.9797
 IR Inten    --     48.5961                13.3120                 2.9063

                     16                     17                     18
                      A                      A                      A
 Frequencies --    831.0974               840.0939               862.4474
 Red. masses --      1.5502                 2.2191                 3.6658
 Frc consts  --      0.6309                 0.9228                 1.6065
 IR Inten    --     23.9282                27.3557                23.4180

                     19                     20                     21
                      A                      A                      A
 Frequencies --    898.7632               907.8848               934.4519
 Red. masses --      3.0177                 1.3553                 1.6543
 Frc consts  --      1.4362                 0.6582                 0.8511
 IR Inten    --      0.5589                 0.6396                41.4174

                     22                     23                     24
                      A                      A                      A
 Frequencies --    946.3227              1009.1572              1031.3232
 Red. masses --      3.6793                 2.4073                 1.9054
 Frc consts  --      1.9413                 1.4444                 1.1941
 IR Inten    --     17.0194                 2.8071                 7.6534

                     25                     26                     27
                      A                      A                      A
 Frequencies --   1070.0856              1084.4546              1104.1592
 Red. masses --      1.6306                 2.2601                 1.8105
 Frc consts  --      1.1001                 1.5660                 1.3005
 IR Inten    --     17.3633                15.8462                37.6266

                     28                     29                     30
                      A                      A                      A
 Frequencies --   1116.4348              1128.6014              1199.9430
 Red. masses --      1.6896                 1.3356                 1.8696
 Frc consts  --      1.2408                 1.0023                 1.5860
 IR Inten    --     12.5348                16.7436                 1.8804

                     31                     32                     33
                      A                      A                      A
 Frequencies --   1228.3083              1249.1669              1272.7182
 Red. masses --      1.5230                 1.3940                 1.2423
 Frc consts  --      1.3539                 1.2816                 1.1856
 IR Inten    --      2.2025                 5.0488                 4.7307

                     34                     35                     36
                      A                      A                      A
 Frequencies --   1288.6097              1328.4902              1348.8867
 Red. masses --      1.2563                 1.3711                 1.3602
 Frc consts  --      1.2291                 1.4257                 1.4581
 IR Inten    --      3.2663                 4.2359                11.2447

                     37                     38                     39
                      A                      A                      A
 Frequencies --   1369.8997              1415.4524              1444.8370
 Red. masses --      1.4000                 1.9359                 1.2927
 Frc consts  --      1.5479                 2.2852                 1.5900
 IR Inten    --     11.4456                 2.2100                 4.9032

                     40                     41                     42
                      A                      A                      A
 Frequencies --   1499.6467              1510.3203              1516.5236
 Red. masses --      1.1858                 4.3246                 1.1504
 Frc consts  --      1.5713                 5.8121                 1.5589
 IR Inten    --     11.9911                 5.4943                 2.1095

                     43                     44                     45
                      A                      A                      A
 Frequencies --   1540.5015              1607.7396              2976.2080
 Red. masses --      1.1033                 5.5503                 1.0720
 Frc consts  --      1.5426                 8.4527                 5.5946
 IR Inten    --      3.2136                 2.8433                54.0596

                     46                     47                     48
                      A                      A                      A
 Frequencies --   3080.3586              3094.0487              3110.8870
 Red. masses --      1.0823                 1.0649                 1.0911
 Frc consts  --      6.0504                 6.0063                 6.2216
 IR Inten    --      4.6160                40.2172                35.0366

                     49                     50                     51
                      A                      A                      A
 Frequencies --   3150.7212              3211.0554              3227.3878
 Red. masses --      1.1071                 1.0894                 1.0944
 Frc consts  --      6.4752                 6.6180                 6.7162
 IR Inten    --     14.9887                 8.5156                 8.9608

                     52                     53                     54
                      A                      A                      A
 Frequencies --   3266.9099              3272.5759              3521.4201
 Red. masses --      1.0740                 1.0971                 1.0758
 Frc consts  --      6.7538                 6.9225                 7.8601
 IR Inten    --     38.8632                 1.2098                 0.9286

 - Thermochemistry -
 -------------------
 Temperature   298.150 Kelvin.  Pressure   1.00000 Atm.
 Atom     1 has atomic number  6 and mass  12.00000

 Molecular mass:   154.05647 amu.
 Principal axes and moments of inertia in atomic units:
                           1         2         3
     Eigenvalues --   635.268932450.949852641.68273
           X            0.99996   0.00637   0.00559
           Y           -0.00646   0.99984   0.01695
           Z           -0.00548  -0.01699   0.99984
 This molecule is an asymmetric top.
 Rotational symmetry number  1.
 Warning -- assumption of classical behavior for rotation
           may cause significant error
 Rotational temperatures (Kelvin)      0.13634     0.03534     0.03279
 Rotational constants (GHZ):           2.84091     0.73634     0.68318
 Zero-point vibrational energy     437392.0 (Joules/Mol)
                                  104.53919 (Kcal/Mol)
 Warning -- explicit consideration of  10 degrees of freedom as
           vibrations may cause significant error
 Vibrational temperatures:     57.36    85.03   195.95   299.37   464.98
          (Kelvin)            494.37   560.53   759.26   801.79   860.66
                              905.59   937.89  1008.52  1031.24  1074.16
                             1195.76  1208.71  1240.87  1293.12  1306.24
                             1344.47  1361.55  1451.95  1483.84  1539.61
                             1560.29  1588.64  1606.30  1623.81  1726.45
                             1767.26  1797.27  1831.16  1854.02  1911.40
                             1940.75  1970.98  2036.52  2078.80  2157.66
                             2173.01  2181.94  2216.44  2313.18  4282.10
                             4431.95  4451.65  4475.87  4533.19  4619.99
                             4643.49  4700.35  4708.51  5066.54

 Zero-point correction=                           0.166594 (Hartree/Particle)
 Thermal correction to Energy=                    0.175260
 Thermal correction to Enthalpy=                  0.176205
 Thermal correction to Gibbs Free Energy=         0.131542
 Sum of electronic and zero-point Energies=           -780.262468
 Sum of electronic and thermal Energies=              -780.253802
 Sum of electronic and thermal Enthalpies=            -780.252857
 Sum of electronic and thermal Free Energies=         -780.297520

                     E (Thermal)             CV                S
                      KCal/Mol        Cal/Mol-Kelvin    Cal/Mol-Kelvin
 Total                  109.978             33.505             93.999
 Electronic               0.000              0.000              0.000
 Translational            0.889              2.981             41.006
 Rotational               0.889              2.981             29.799
 Vibrational            108.200             27.544             23.195
 Vibration     1          0.594              1.981              5.266
 Vibration     2          0.596              1.974              4.487
 Vibration     3          0.614              1.917              2.857
 Vibration     4          0.641              1.828              2.061
 Vibration     5          0.708              1.629              1.294
 Vibration     6          0.722              1.588              1.195
 Vibration     7          0.758              1.492              1.002
 Vibration     8          0.883              1.189              0.592
 Vibration     9          0.913              1.124              0.529
 Vibration    10          0.956              1.036              0.453

 Optimization completed.
    -- Stationary point found.
 Normal termination of Gaussian 16 at Tue Dec  8 10:21:02 2020.

 ----------------------------------------------------------------------
 # B3LYP/6-311++G(d,p) empiricaldispersion=gd3bj scf=xqc pop=npa geom=c
 heck
 ----------------------------------------------------------------------

 -------------------------------------
 CID_84107423_JID_135_Energie_neutraal
 -------------------------------------
 Structure from the checkpoint file:  "JID_135.chk"
 Charge =  0 Multiplicity = 1

 SCF Done:  E(RB3LYP) =  -780.566076234     A.U. after   15 cycles
 Normal termination of Gaussian 16 at Tue Dec  8 10:22:10 2020.

 ----------------------------------------------------------------------
 # B3LYP/6-311++G(d,p) empiricaldispersion=gd3bj scf=xqc pop=npa geom=c
 heck
 ----------------------------------------------------------------------

 -----------------------------------
 CID_84107423_JID_135_Energie_kation
 -----------------------------------
 Structure from the checkpoint file:  "JID_135.chk"
 Charge =  1 Multiplicity = 2

 SCF Done:  E(UB3LYP) =  -780.274370711     A.U. after   23 cycles
 Normal termination of Gaussian 16 at Tue Dec  8 10:25:06 2020.
 Gaussian 16:  ES64L-G16RevA.03 25-Dec-2016

 ----------------------------------------------------------------------
 # B3LYP/6-311++G(d,p) empiricaldispersion=gd3bj scf=xqc pop=npa geom=c
 heck
 ----------------------------------------------------------------------

 ----------------------------------
 CID_84107423_JID_135_Energie_anion
 ----------------------------------
 Structure from the checkpoint file:  "JID_135.chk"
 Charge = -1 Multiplicity = 2

                         Standard orientation:
 ---------------------------------------------------------------------
 Center     Atomic      Atomic             Coordinates (Angstroms)
 Number     Number       Type             X           Y           Z
 ---------------------------------------------------------------------
      1          6           0       -1.678642    0.242181   -1.198235
      2          6           0       -0.835826    0.885110   -0.061714
      3          6           0       -1.613576    0.404896    1.221635
      4          7           0       -2.553202   -0.625250    0.770493
      5          7           0       -2.938306   -0.083240   -0.511534
      6          6           0        0.614640    0.516619   -0.072298
      7          6           0        1.700560    1.348098   -0.001491
      8          6           0        2.952458    0.658980    0.049597
      9          6           0        2.810237   -0.698494    0.022816
     10         16           0        1.136076   -1.159536   -0.076153
     11          1           0       -1.855811    0.929244   -2.030861
     12          1           0       -1.160870   -0.649553   -1.592000
     13          1           0       -0.892008    1.975839   -0.129824
     14          1           0       -0.950421    0.003511    1.990698
     15          1           0       -2.187785    1.236850    1.637575
     16          1           0       -1.992152   -1.477955    0.614022
     17          1           0       -3.495650   -0.778402   -1.002684
     18          1           0        1.604896    2.428839    0.017336
     19          1           0        3.914321    1.157285    0.100844
     20          1           0        3.579714   -1.458003    0.038773
 ---------------------------------------------------------------------

 SCF Done:  E(UB3LYP) =  -780.549920299     A.U. after   33 cycles
 SCF Done:  E(UB3LYP) =  -780.549920299     a.u. after    1 cycles

 The electronic state is 2-A.
 Alpha  occ. eigenvalues --  -88.77133 -14.23045 -14.22507 -10.10311 -10.09752
 Alpha  occ. eigenvalues --  -10.09547 -10.09507 -10.09099 -10.07432 -10.07169
 Alpha  occ. eigenvalues --   -7.85768  -5.82046  -5.81685  -5.81368  -0.88892
 Alpha  occ. eigenvalues --   -0.77988  -0.69840  -0.68924  -0.63222  -0.60922
 Alpha  occ. eigenvalues --   -0.53020  -0.50940  -0.45813  -0.44695  -0.42591
 Alpha  occ. eigenvalues --   -0.39563  -0.38422  -0.35320  -0.32049  -0.30594
 Alpha  occ. eigenvalues --   -0.30099  -0.28942  -0.28195  -0.26998  -0.25403
 Alpha  occ. eigenvalues --   -0.25349  -0.23312  -0.17881  -0.15274  -0.13679
 Alpha  occ. eigenvalues --   -0.12027   0.04602
 Alpha virt. eigenvalues --    0.06488   0.07131   0.07749   0.08498   0.08927
 Alpha virt. eigenvalues --    0.09654   0.10364   0.11078   0.11926   0.12510
 Alpha virt. eigenvalues --    0.13074   0.13818   0.14421   0.15090   0.16268

  Beta  occ. eigenvalues --  -88.77123 -14.23031 -14.22480 -10.10306 -10.09741
  Beta  occ. eigenvalues --  -10.09522 -10.09487 -10.09092 -10.07417 -10.07152
  Beta  occ. eigenvalues --   -7.85756  -5.82036  -5.81678  -5.81358  -0.88864
  Beta  occ. eigenvalues --   -0.77960  -0.69795  -0.68889  -0.63183  -0.60879
  Beta  occ. eigenvalues --   -0.52949  -0.50901  -0.45763  -0.44642  -0.42537
  Beta  occ. eigenvalues --   -0.39502  -0.38375  -0.35275  -0.32006  -0.30552
  Beta  occ. eigenvalues --   -0.30064  -0.28901  -0.28166  -0.26968  -0.25371
  Beta  occ. eigenvalues --   -0.25312  -0.23283  -0.17856  -0.15249  -0.13644
  Beta  occ. eigenvalues --   -0.11994
  Beta virt. eigenvalues --    0.07013   0.07697   0.07805   0.08174   0.09160
  Beta virt. eigenvalues --    0.09453   0.10231   0.10936   0.11421   0.12335
  Beta virt. eigenvalues --    0.12895   0.13389   0.14054   0.14465   0.15283

 Mulliken charges and spin densities:
               1          2
     1  C    1.245268  -1.863982
     2  C    2.347324  -2.298574
     3  C   -0.082734  -0.694571
     4  N   -0.015468  -0.133928
     5  N   -0.508279   0.342555
     6  C    0.432126  -0.873225
     7  C   -4.144238   5.280007
     8  C    3.368528  -4.282635
     9  C   -1.326607   1.623374
    10  S    0.949008  -1.333940
    11  H   -0.356623   0.518925
    12  H   -0.538781   0.689642
    13  H    0.226715   0.005475
    14  H    0.092308   0.073533
    15  H   -0.044450   0.207299
    16  H    0.030287   0.213924
    17  H   -0.107239   0.364196
    18  H   -0.882348   1.065637
    19  H   -0.518686   0.667761
    20  H   -1.166110   1.428526
 Sum of Mulliken charges =  -1.00000   1.00000

 Dipole moment (field-independent basis, Debye):
    X=             -1.9668    Y=             -0.0027    Z=              1.9131  Tot=              2.7438
 Quadrupole moment (field-independent basis, Debye-Ang):
   XX=           -143.0297   YY=           -106.2861   ZZ=            -98.7861
   XY=             -1.9910   XZ=             -3.0276   YZ=             -0.1983

 Summary of Natural Population Analysis:

                                       Natural Population
                Natural  -----------------------------------------------
    Atom  No    Charge         Core      Valence    Rydberg      Total
 -----------------------------------------------------------------------
      C    1   -0.09153      0.99962     2.08074    0.01116     3.09153
      C    2   -0.14099      0.99953     2.12811    0.01334     3.14099
      C    3   -0.08576      0.99963     2.07527    0.01085     3.08576
      N    4   -0.24035      0.99977     2.72631    0.01427     3.74035
      N    5   -0.25374      0.99975     2.73992    0.01407     3.75374
      C    6   -0.09182      0.99947     2.07735    0.01500     3.09182
      C    7   -0.12673      0.99945     2.11531    0.01196     3.12673
      C    8   -0.12482      0.99953     2.11417    0.01112     3.12482
      C    9   -0.19289      0.99954     2.18100    0.01235     3.19289
      S   10    0.19289      4.99941     2.78646    0.02125     7.80711
      H   11    0.10134      0.00000     0.39706    0.00160     0.39866
      H   12    0.08618      0.00000     0.41128    0.00254     0.41382
      H   13    0.11046      0.00000     0.38743    0.00211     0.38954
      H   14    0.09980      0.00000     0.39921    0.00099     0.40020
      H   15    0.09487      0.00000     0.40370    0.00143     0.40513
      H   16    0.15493      0.00000     0.34112    0.00395     0.34507
      H   17    0.17895      0.00000     0.31789    0.00316     0.32105
      H   18    0.10875      0.00000     0.38912    0.00213     0.39125
      H   19    0.10864      0.00000     0.38909    0.00227     0.39136
      H   20    0.11182      0.00000     0.38563    0.00255     0.38818
 =======================================================================
   * Total *    0.00000     13.99571    26.84617    0.15812    41.00000

 Normal termination of Gaussian 16 at Tue Dec  8 10:29:13 2020.
