 Gaussian 16, Revision A.03,

 -----------------------------------------------------------
 # opt freq B3LYP/6-31G(d) empiricaldispersion=gd3bj scf=xqc
 -----------------------------------------------------------

 ------------------------------
 CID_65176201_JID_5568_neutraal
 ------------------------------
 Symbolic Z-matrix:
 Charge =  0 Multiplicity = 1

 SCF Done:  E(RB3LYP) =  -996.921842703     A.U. after   14 cycles
 SCF Done:  E(RB3LYP) =  -996.924788500     A.U. after   12 cycles
 SCF Done:  E(RB3LYP) =  -996.925239395     A.U. after   11 cycles
 SCF Done:  E(RB3LYP) =  -996.925546113     A.U. after   12 cycles
 SCF Done:  E(RB3LYP) =  -996.925831909     A.U. after   12 cycles
 SCF Done:  E(RB3LYP) =  -996.926000279     A.U. after   12 cycles
 SCF Done:  E(RB3LYP) =  -996.926040432     A.U. after   10 cycles
 SCF Done:  E(RB3LYP) =  -996.926074727     A.U. after   11 cycles
 SCF Done:  E(RB3LYP) =  -996.926094785     A.U. after   10 cycles
 SCF Done:  E(RB3LYP) =  -996.926124519     A.U. after   11 cycles
 SCF Done:  E(RB3LYP) =  -996.935125164     A.U. after    8 cycles
 SCF Done:  E(RB3LYP) =  -996.935124979     A.U. after   10 cycles
 SCF Done:  E(RB3LYP) =  -996.935125182     A.U. after    8 cycles
 SCF Done:  E(RB3LYP) =  -996.935125209     A.U. after    7 cycles
 SCF Done:  E(RB3LYP) =  -996.935125189     A.U. after    7 cycles
 Optimization completed.
    -- Stationary point found.
 Normal termination of Gaussian 16 at Thu Dec 10 17:43:42 2020.

 --------------------------------------------------------------------
 #N Geom=AllCheck Guess=TCheck SCRF=Check GenChk RB3LYP/6-31G(d) Freq
 --------------------------------------------------------------------

 Structure from the checkpoint file:  "JID_5568.chk"
 ------------------------------
 CID_65176201_JID_5568_neutraal
 ------------------------------
 Charge =  0 Multiplicity = 1

 SCF Done:  E(RB3LYP) =  -996.935125189     A.U. after    1 cycles

  Exact polarizability: 198.671 -25.293 150.020 -16.442 -19.430 117.966
 Approx polarizability: 265.550 -41.207 229.548 -35.834 -42.423 190.867

                      1                      2                      3
                      A                      A                      A
 Frequencies --      7.5220                21.1876                49.5648
 Red. masses --      4.8926                 3.4856                 3.5766
 Frc consts  --      0.0002                 0.0009                 0.0052
 IR Inten    --      0.1543                 2.8826                 0.7999

                      4                      5                      6
                      A                      A                      A
 Frequencies --     60.0667                69.9329                94.3940
 Red. masses --      2.2471                 4.0555                 3.8828
 Frc consts  --      0.0048                 0.0117                 0.0204
 IR Inten    --      1.6140                 0.1820                 1.1527

                      7                      8                      9
                      A                      A                      A
 Frequencies --    138.5288               172.1065               186.8660
 Red. masses --      3.7986                 3.6202                 3.0351
 Frc consts  --      0.0429                 0.0632                 0.0624
 IR Inten    --      2.0541                 1.6427                 3.5216

                     10                     11                     12
                      A                      A                      A
 Frequencies --    205.1154               229.1515               245.1691
 Red. masses --      2.4964                 1.4664                 1.3671
 Frc consts  --      0.0619                 0.0454                 0.0484
 IR Inten    --      1.6152                 0.5598                 0.4203

                     13                     14                     15
                      A                      A                      A
 Frequencies --    254.9024               265.2204               304.1434
 Red. masses --      1.9168                 3.2331                 2.7043
 Frc consts  --      0.0734                 0.1340                 0.1474
 IR Inten    --      0.4184                 0.5180                 2.6495

                     16                     17                     18
                      A                      A                      A
 Frequencies --    341.1427               387.1569               422.0078
 Red. masses --      2.0061                 2.4525                 6.0201
 Frc consts  --      0.1376                 0.2166                 0.6317
 IR Inten    --      4.3757                 7.3287                 2.6567

                     19                     20                     21
                      A                      A                      A
 Frequencies --    437.5136               447.4015               494.8395
 Red. masses --      2.8799                 3.0100                 2.5362
 Frc consts  --      0.3248                 0.3550                 0.3659
 IR Inten    --      5.7114                 9.1379                25.2401

                     22                     23                     24
                      A                      A                      A
 Frequencies --    501.0884               551.4646               588.9010
 Red. masses --      2.2265                 2.3021                 4.3982
 Frc consts  --      0.3294                 0.4125                 0.8987
 IR Inten    --     66.1319                 5.3839                 8.6645

                     25                     26                     27
                      A                      A                      A
 Frequencies --    620.7536               691.6426               698.1456
 Red. masses --      2.4219                 2.1760                 5.8061
 Frc consts  --      0.5499                 0.6133                 1.6674
 IR Inten    --     41.4517                12.4154                 6.2146

                     28                     29                     30
                      A                      A                      A
 Frequencies --    729.4985               760.9711               794.2295
 Red. masses --      5.8875                 1.4536                 1.5418
 Frc consts  --      1.8460                 0.4959                 0.5730
 IR Inten    --      2.0806                44.2444                 5.2508

                     31                     32                     33
                      A                      A                      A
 Frequencies --    815.6461               832.4644               842.5807
 Red. masses --      1.1827                 1.3442                 1.6579
 Frc consts  --      0.4636                 0.5488                 0.6935
 IR Inten    --      2.0881                 1.5563                26.1630

                     34                     35                     36
                      A                      A                      A
 Frequencies --    851.0390               882.4635               896.7252
 Red. masses --      3.2506                 2.6478                 2.7877
 Frc consts  --      1.3871                 1.2149                 1.3207
 IR Inten    --      8.4870                 1.0716                18.5546

                     37                     38                     39
                      A                      A                      A
 Frequencies --    953.4300               970.2731               991.5160
 Red. masses --      1.2668                 1.9395                 1.1823
 Frc consts  --      0.6785                 1.0758                 0.6848
 IR Inten    --      0.8252                 9.4670                 5.8388

                     40                     41                     42
                      A                      A                      A
 Frequencies --    999.3437              1014.0175              1032.8575
 Red. masses --      1.7178                 2.7727                 2.0939
 Frc consts  --      1.0108                 1.6797                 1.3161
 IR Inten    --     10.3050                 6.7659                 8.3227

                     43                     44                     45
                      A                      A                      A
 Frequencies --   1090.1999              1097.8943              1112.9218
 Red. masses --      2.5712                 2.1919                 2.2440
 Frc consts  --      1.8005                 1.5566                 1.6376
 IR Inten    --     24.8989                 6.5830                30.1506

                     46                     47                     48
                      A                      A                      A
 Frequencies --   1118.3927              1137.4931              1151.0234
 Red. masses --      2.2607                 2.1599                 1.7223
 Frc consts  --      1.6660                 1.6466                 1.3444
 IR Inten    --     25.4066                34.4911                 0.7470

                     49                     50                     51
                      A                      A                      A
 Frequencies --   1171.4023              1210.9297              1218.2738
 Red. masses --      3.6858                 1.6440                 1.1531
 Frc consts  --      2.9798                 1.4203                 1.0083
 IR Inten    --    113.7041                21.4073                12.1641

                     52                     53                     54
                      A                      A                      A
 Frequencies --   1255.2253              1264.9071              1303.4573
 Red. masses --      1.3489                 1.1857                 2.1003
 Frc consts  --      1.2522                 1.1177                 2.1025
 IR Inten    --      6.4916                13.5479                52.3924

                     55                     56                     57
                      A                      A                      A
 Frequencies --   1331.0685              1344.1212              1360.9024
 Red. masses --      1.2143                 1.1422                 1.5884
 Frc consts  --      1.2676                 1.2158                 1.7332
 IR Inten    --      5.5653                 9.0493                49.8042

                     58                     59                     60
                      A                      A                      A
 Frequencies --   1371.5642              1390.1855              1401.2820
 Red. masses --      2.4792                 1.2493                 1.3608
 Frc consts  --      2.7478                 1.4225                 1.5743
 IR Inten    --     13.7094                 6.4221                 5.5749

                     61                     62                     63
                      A                      A                      A
 Frequencies --   1404.4892              1420.5224              1440.0624
 Red. masses --      1.3231                 1.3124                 1.2900
 Frc consts  --      1.5378                 1.5603                 1.5762
 IR Inten    --     10.7218                 6.6941                23.4914

                     64                     65                     66
                      A                      A                      A
 Frequencies --   1451.5346              1455.5785              1498.7490
 Red. masses --      2.1562                 1.3886                 1.0519
 Frc consts  --      2.6767                 1.7334                 1.3922
 IR Inten    --      4.8411                 7.2229                 8.2819

                     67                     68                     69
                      A                      A                      A
 Frequencies --   1498.8625              1519.3751              1519.4306
 Red. masses --      1.1052                 1.0471                 1.0563
 Frc consts  --      1.4629                 1.4242                 1.4369
 IR Inten    --      6.9120                 7.5782                26.4235

                     70                     71                     72
                      A                      A                      A
 Frequencies --   1522.3755              1527.7229              1538.9587
 Red. masses --      1.0572                 1.1006                 1.0814
 Frc consts  --      1.4437                 1.5135                 1.5090
 IR Inten    --      2.3472                 4.4409                 1.6766

                     73                     74                     75
                      A                      A                      A
 Frequencies --   1543.0380              1556.3093              1565.7055
 Red. masses --      2.3925                 1.0921                 1.6839
 Frc consts  --      3.3563                 1.5584                 2.4322
 IR Inten    --     96.7780                 3.8637                43.1628

                     76                     77                     78
                      A                      A                      A
 Frequencies --   1633.5055              1659.8568              3000.8824
 Red. masses --      4.2559                 5.3431                 1.0567
 Frc consts  --      6.6909                 8.6734                 5.6064
 IR Inten    --     25.1751               293.5831                35.7811

                     79                     80                     81
                      A                      A                      A
 Frequencies --   3021.0536              3029.9721              3040.3020
 Red. masses --      1.0669                 1.0862                 1.0785
 Frc consts  --      5.7370                 5.8756                 5.8738
 IR Inten    --     37.2418                16.0367                58.0254

                     82                     83                     84
                      A                      A                      A
 Frequencies --   3054.3226              3062.4996              3064.9721
 Red. masses --      1.0370                 1.0726                 1.0300
 Frc consts  --      5.6997                 5.9271                 5.7009
 IR Inten    --     29.9601                66.9411                20.6516

                     85                     86                     87
                      A                      A                      A
 Frequencies --   3079.2374              3088.7281              3121.2098
 Red. masses --      1.1013                 1.0976                 1.1011
 Frc consts  --      6.1526                 6.1695                 6.3199
 IR Inten    --     59.1280                16.5013                34.6950

                     88                     89                     90
                      A                      A                      A
 Frequencies --   3131.0596              3148.0940              3148.7829
 Red. masses --      1.1038                 1.1081                 1.0930
 Frc consts  --      6.3758                 6.4706                 6.3847
 IR Inten    --     40.1428                10.2187                11.9777

                     91                     92                     93
                      A                      A                      A
 Frequencies --   3159.4663              3163.4602              3183.1118
 Red. masses --      1.1039                 1.0894                 1.0885
 Frc consts  --      6.4924                 6.4234                 6.4983
 IR Inten    --      6.7324                12.0149                15.6176

                     94                     95                     96
                      A                      A                      A
 Frequencies --   3233.7846              3244.5808              3575.4177
 Red. masses --      1.0905                 1.0911                 1.0749
 Frc consts  --      6.7190                 6.7676                 8.0963
 IR Inten    --      9.1000                 7.2403                 6.2718

 - Thermochemistry -
 -------------------
 Temperature   298.150 Kelvin.  Pressure   1.00000 Atm.
 Atom     1 has atomic number  6 and mass  12.00000

 Molecular mass:   225.11874 amu.
 Principal axes and moments of inertia in atomic units:
                           1         2         3
     Eigenvalues --  2219.602086537.556087655.94414
           X            0.99994  -0.00617   0.00941
           Y            0.00621   0.99997  -0.00404
           Z           -0.00939   0.00410   0.99995
 This molecule is an asymmetric top.
 Rotational symmetry number  1.
 Warning -- assumption of classical behavior for rotation
           may cause significant error
 Rotational temperatures (Kelvin)      0.03902     0.01325     0.01131
 Rotational constants (GHZ):           0.81309     0.27606     0.23573
 Zero-point vibrational energy     774529.6 (Joules/Mol)
                                  185.11703 (Kcal/Mol)
 Warning -- explicit consideration of  25 degrees of freedom as
           vibrations may cause significant error
 Vibrational temperatures:     10.82    30.48    71.31    86.42   100.62
          (Kelvin)            135.81   199.31   247.62   268.86   295.12
                              329.70   352.74   366.75   381.59   437.59
                              490.83   557.03   607.18   629.48   643.71
                              711.96   720.95   793.43   847.30   893.13
                              995.12  1004.48  1049.59  1094.87  1142.72
                             1173.53  1197.73  1212.29  1224.46  1269.67
                             1290.19  1371.77  1396.01  1426.57  1437.83
                             1458.94  1486.05  1568.55  1579.63  1601.25
                             1609.12  1636.60  1656.07  1685.39  1742.26
                             1752.82  1805.99  1819.92  1875.38  1915.11
                             1933.89  1958.04  1973.37  2000.17  2016.13
                             2020.75  2043.81  2071.93  2088.43  2094.25
                             2156.37  2156.53  2186.04  2186.12  2190.36
                             2198.05  2214.22  2220.09  2239.18  2252.70
                             2350.25  2388.16  4317.60  4346.62  4359.45
                             4374.32  4394.49  4406.25  4409.81  4430.34
                             4443.99  4490.72  4504.90  4529.41  4530.40
                             4545.77  4551.51  4579.79  4652.69  4668.23
                             5144.23

 Zero-point correction=                           0.295003 (Hartree/Particle)
 Thermal correction to Energy=                    0.311576
 Thermal correction to Enthalpy=                  0.312521
 Thermal correction to Gibbs Free Energy=         0.247622
 Sum of electronic and zero-point Energies=           -996.640122
 Sum of electronic and thermal Energies=              -996.623549
 Sum of electronic and thermal Enthalpies=            -996.622605
 Sum of electronic and thermal Free Energies=         -996.687503

                     E (Thermal)             CV                S
                      KCal/Mol        Cal/Mol-Kelvin    Cal/Mol-Kelvin
 Total                  195.517             61.164            136.590
 Electronic               0.000              0.000              0.000
 Translational            0.889              2.981             42.137
 Rotational               0.889              2.981             33.074
 Vibrational            193.740             55.202             61.380
 Vibration     1          0.593              1.987              8.577
 Vibration     2          0.593              1.985              6.520
 Vibration     3          0.595              1.978              4.835
 Vibration     4          0.597              1.973              4.455
 Vibration     5          0.598              1.968              4.155
 Vibration     6          0.603              1.953              3.567
 Vibration     7          0.614              1.915              2.824
 Vibration     8          0.626              1.877              2.412
 Vibration     9          0.632              1.858              2.259
 Vibration    10          0.640              1.833              2.087
 Vibration    11          0.652              1.797              1.886
 Vibration    12          0.660              1.771              1.765
 Vibration    13          0.665              1.755              1.696
 Vibration    14          0.671              1.737              1.627
 Vibration    15          0.695              1.666              1.394
 Vibration    16          0.721              1.593              1.207
 Vibration    17          0.756              1.498              1.011
 Vibration    18          0.784              1.422              0.885
 Vibration    19          0.798              1.388              0.834
 Vibration    20          0.807              1.367              0.804
 Vibration    21          0.850              1.261              0.671
 Vibration    22          0.856              1.248              0.655
 Vibration    23          0.907              1.136              0.541
 Vibration    24          0.946              1.055              0.469
 Vibration    25          0.981              0.988              0.415

 Optimization completed.
    -- Stationary point found.
 Normal termination of Gaussian 16 at Thu Dec 10 17:54:27 2020.

 ----------------------------------------------------------------------
 # B3LYP/6-311++G(d,p) empiricaldispersion=gd3bj scf=xqc pop=npa geom=c
 heck
 ----------------------------------------------------------------------

 --------------------------------------
 CID_65176201_JID_5568_Energie_neutraal
 --------------------------------------
 Structure from the checkpoint file:  "JID_5568.chk"
 Charge =  0 Multiplicity = 1

 SCF Done:  E(RB3LYP) =  -997.130181292     A.U. after   15 cycles
 Normal termination of Gaussian 16 at Thu Dec 10 17:59:51 2020.

 ----------------------------------------------------------------------
 # B3LYP/6-311++G(d,p) empiricaldispersion=gd3bj scf=xqc pop=npa geom=c
 heck
 ----------------------------------------------------------------------

 ------------------------------------
 CID_65176201_JID_5568_Energie_kation
 ------------------------------------
 Structure from the checkpoint file:  "JID_5568.chk"
 Charge =  1 Multiplicity = 2

 SCF Done:  E(UB3LYP) =  -996.869710927     A.U. after   26 cycles
 Normal termination of Gaussian 16 at Thu Dec 10 18:10:53 2020.
 Gaussian 16:  ES64L-G16RevA.03 25-Dec-2016

 ----------------------------------------------------------------------
 # B3LYP/6-311++G(d,p) empiricaldispersion=gd3bj scf=xqc pop=npa geom=c
 heck
 ----------------------------------------------------------------------

 -----------------------------------
 CID_65176201_JID_5568_Energie_anion
 -----------------------------------
 Structure from the checkpoint file:  "JID_5568.chk"
 Charge = -1 Multiplicity = 2

                         Standard orientation:
 ---------------------------------------------------------------------
 Center     Atomic      Atomic             Coordinates (Angstroms)
 Number     Number       Type             X           Y           Z
 ---------------------------------------------------------------------
      1          6           0       -3.391301   -2.845787   -0.774576
      2          6           0       -2.625359   -1.948194    0.194098
      3          8           0       -3.060120   -0.594476    0.176185
      4          6           0       -2.677404    0.123531   -0.985447
      5          6           0       -2.972147    1.598848   -0.748798
      6          6           0       -2.189027    2.218132    0.420359
      7          7           0       -0.746073    2.266103    0.234648
      8          6           0        0.113718    1.199262    0.476520
      9          6           0        1.349385    1.158915   -0.190460
     10          6           0        2.275732    0.141307    0.055145
     11          6           0        1.976222   -0.870251    0.974942
     12          6           0        0.745195   -0.830088    1.632460
     13          6           0       -0.181562    0.179974    1.403422
     14         16           0        3.800235    0.230621   -0.867982
     15          6           0        4.694928   -1.260664   -0.330447
     16          1           0       -4.468527   -2.775421   -0.589933
     17          1           0       -3.084546   -3.889970   -0.643698
     18          1           0       -3.203259   -2.573536   -1.818497
     19          1           0       -2.785508   -2.286043    1.223608
     20          1           0       -1.543896   -1.992615   -0.004559
     21          1           0       -1.606709   -0.030241   -1.189102
     22          1           0       -3.236366   -0.226109   -1.866918
     23          1           0       -2.750869    2.151793   -1.672289
     24          1           0       -4.046116    1.717991   -0.554197
     25          1           0       -2.535423    3.246589    0.577247
     26          1           0       -2.410866    1.672371    1.338609
     27          1           0       -0.458398    2.843170   -0.546009
     28          1           0        1.587481    1.938087   -0.911999
     29          1           0        2.673258   -1.672344    1.182105
     30          1           0        0.502482   -1.612075    2.347655
     31          1           0       -1.132433    0.163973    1.919340
     32          1           0        4.912996   -1.232753    0.740384
     33          1           0        4.139265   -2.169783   -0.575115
     34          1           0        5.636857   -1.259845   -0.884258
 ---------------------------------------------------------------------

 SCF Done:  E(UB3LYP) =  -997.116789576     A.U. after   33 cycles
 SCF Done:  E(UB3LYP) =  -997.116789576     a.u. after    1 cycles

 The electronic state is 2-A.
 Alpha  occ. eigenvalues --  -88.75700 -19.03083 -14.22902 -10.12366 -10.12340
 Alpha  occ. eigenvalues --  -10.11994 -10.11414 -10.10947 -10.10471 -10.08230
 Alpha  occ. eigenvalues --  -10.07692 -10.07542 -10.07194 -10.07169 -10.06961
 Alpha  occ. eigenvalues --   -7.84305  -5.80710  -5.80309  -5.79694  -0.94345
 Alpha  occ. eigenvalues --   -0.84396  -0.76250  -0.70635  -0.69286  -0.66103
 Alpha  occ. eigenvalues --   -0.64710  -0.63322  -0.58861  -0.56019  -0.53048
 Alpha  occ. eigenvalues --   -0.52000  -0.49730  -0.47061  -0.43491  -0.40864
 Alpha  occ. eigenvalues --   -0.40471  -0.38997  -0.38263  -0.37358  -0.35610
 Alpha  occ. eigenvalues --   -0.34239  -0.34101  -0.33617  -0.33189  -0.32436
 Alpha  occ. eigenvalues --   -0.30382  -0.29922  -0.29601  -0.28738  -0.27738
 Alpha  occ. eigenvalues --   -0.27201  -0.26948  -0.25812  -0.24880  -0.22706
 Alpha  occ. eigenvalues --   -0.22622  -0.21326  -0.18546  -0.16980  -0.12103
 Alpha  occ. eigenvalues --   -0.10735   0.04042
 Alpha virt. eigenvalues --    0.05325   0.06051   0.07144   0.07540   0.07888
 Alpha virt. eigenvalues --    0.08248   0.08773   0.09222   0.09417   0.09950
 Alpha virt. eigenvalues --    0.10173   0.10732   0.11004   0.11708   0.12103

  Beta  occ. eigenvalues --  -88.75695 -19.03078 -14.22884 -10.12366 -10.12331
  Beta  occ. eigenvalues --  -10.11981 -10.11414 -10.10935 -10.10418 -10.08224
  Beta  occ. eigenvalues --  -10.07668 -10.07539 -10.07168 -10.07155 -10.06958
  Beta  occ. eigenvalues --   -7.84299  -5.80701  -5.80295  -5.79690  -0.94334
  Beta  occ. eigenvalues --   -0.84368  -0.76232  -0.70601  -0.69253  -0.66079
  Beta  occ. eigenvalues --   -0.64676  -0.63288  -0.58826  -0.55963  -0.52997
  Beta  occ. eigenvalues --   -0.51970  -0.49686  -0.47024  -0.43465  -0.40833
  Beta  occ. eigenvalues --   -0.40436  -0.38968  -0.38240  -0.37336  -0.35580
  Beta  occ. eigenvalues --   -0.34206  -0.34050  -0.33582  -0.33157  -0.32406
  Beta  occ. eigenvalues --   -0.30345  -0.29895  -0.29579  -0.28707  -0.27707
  Beta  occ. eigenvalues --   -0.27169  -0.26927  -0.25780  -0.24840  -0.22662
  Beta  occ. eigenvalues --   -0.22597  -0.21302  -0.18530  -0.16963  -0.12084
  Beta  occ. eigenvalues --   -0.10719
  Beta virt. eigenvalues --    0.06057   0.06421   0.06859   0.07503   0.07670
  Beta virt. eigenvalues --    0.08149   0.08710   0.09139   0.09413   0.09793
  Beta virt. eigenvalues --    0.10188   0.10526   0.10836   0.11304   0.11900

 Mulliken charges and spin densities:
               1          2
     1  C    0.554708  -1.098870
     2  C   -0.726145   0.588350
     3  O   -0.084165   0.012563
     4  C   -0.579739   0.433530
     5  C    1.418280  -1.928082
     6  C   -0.425473   0.062143
     7  N    0.070465  -0.012917
     8  C   -0.341462   0.013454
     9  C   -2.606505   1.757917
    10  C    0.731181  -0.101883
    11  C    0.791361  -0.424516
    12  C   -0.054780  -0.191556
    13  C    1.699365  -1.493893
    14  S   -0.215240  -0.629638
    15  C    0.422285  -0.823040
    16  H   -0.007303   0.154254
    17  H   -0.240706   0.377358
    18  H   -0.224641   0.372412
    19  H   -0.134086   0.278385
    20  H    0.464989  -0.302507
    21  H    0.046916   0.113458
    22  H   -0.005010   0.166114
    23  H   -0.388971   0.545669
    24  H    0.037934   0.116076
    25  H   -0.447449   0.642715
    26  H    0.114501   0.053866
    27  H    0.021772   0.228182
    28  H   -0.112741   0.266285
    29  H   -0.092718   0.269936
    30  H   -0.266218   0.450582
    31  H    0.322027  -0.186768
    32  H   -0.133653   0.313269
    33  H   -0.241954   0.425980
    34  H   -0.366825   0.551173
 Sum of Mulliken charges =  -1.00000   1.00000

 Dipole moment (field-independent basis, Debye):
    X=             -1.2035    Y=              0.8747    Z=              2.1703  Tot=              2.6313
 Quadrupole moment (field-independent basis, Debye-Ang):
   XX=           -190.0946   YY=           -158.1460   ZZ=           -133.9748
   XY=              9.8592   XZ=             -5.6156   YZ=              0.9238

 Summary of Natural Population Analysis:

                                       Natural Population
                Natural  -----------------------------------------------
    Atom  No    Charge         Core      Valence    Rydberg      Total
 -----------------------------------------------------------------------
      C    1   -0.29935      0.99967     2.29590    0.00379     3.29935
      C    2   -0.01104      0.99960     1.99906    0.01239     3.01104
      O    3   -0.30584      0.99988     3.29680    0.00915     4.30584
      C    4   -0.01374      0.99957     2.00182    0.01235     3.01374
      C    5   -0.20250      0.99962     2.19316    0.00972     3.20250
      C    6   -0.08640      0.99961     2.07494    0.01186     3.08640
      N    7   -0.31162      0.99968     2.80056    0.01138     3.81162
      C    8    0.09568      0.99948     1.89307    0.01177     2.90432
      C    9   -0.13747      0.99947     2.12824    0.00976     3.13747
      C   10   -0.07438      0.99942     2.06431    0.01065     3.07438
      C   11   -0.14545      0.99949     2.13529    0.01068     3.14545
      C   12   -0.08405      0.99957     2.07444    0.01004     3.08405
      C   13   -0.14014      0.99951     2.13243    0.00819     3.14014
      S   14    0.12589      4.99954     2.85303    0.02154     7.87411
      C   15   -0.35406      0.99963     2.34795    0.00649     3.35406
      H   16    0.09829      0.00000     0.40046    0.00125     0.40171
      H   17    0.10100      0.00000     0.39777    0.00123     0.39900
      H   18    0.09828      0.00000     0.40046    0.00127     0.40172
      H   19    0.08523      0.00000     0.41343    0.00134     0.41477
      H   20    0.08422      0.00000     0.41414    0.00164     0.41578
      H   21    0.08420      0.00000     0.41376    0.00203     0.41580
      H   22    0.08263      0.00000     0.41592    0.00145     0.41737
      H   23    0.09996      0.00000     0.39789    0.00215     0.40004
      H   24    0.09986      0.00000     0.39878    0.00136     0.40014
      H   25    0.09692      0.00000     0.40192    0.00116     0.40308
      H   26    0.09927      0.00000     0.39908    0.00165     0.40073
      H   27    0.18349      0.00000     0.31357    0.00295     0.31651
      H   28    0.09987      0.00000     0.39858    0.00155     0.40013
      H   29    0.10420      0.00000     0.39436    0.00144     0.39580
      H   30    0.09940      0.00000     0.39963    0.00097     0.40060
      H   31    0.10588      0.00000     0.39229    0.00183     0.39412
      H   32    0.10441      0.00000     0.39372    0.00187     0.39559
      H   33    0.10615      0.00000     0.39186    0.00199     0.39385
      H   34    0.11121      0.00000     0.38744    0.00135     0.38879
 =======================================================================
   * Total *    0.00000     18.99373    41.81605    0.19022    61.00000

 Normal termination of Gaussian 16 at Thu Dec 10 18:24:33 2020.
