 Gaussian 16, Revision A.03,

 -----------------------------------------------------------
 # opt freq B3LYP/6-31G(d) empiricaldispersion=gd3bj scf=xqc
 -----------------------------------------------------------

 ------------------------------
 CID_15534436_JID_1642_neutraal
 ------------------------------
 Symbolic Z-matrix:
 Charge =  0 Multiplicity = 1

 SCF Done:  E(RB3LYP) =  -465.934347286     A.U. after   13 cycles
 SCF Done:  E(RB3LYP) =  -465.937589155     A.U. after   10 cycles
 SCF Done:  E(RB3LYP) =  -465.937914177     A.U. after   10 cycles
 SCF Done:  E(RB3LYP) =  -465.937971183     A.U. after    9 cycles
 SCF Done:  E(RB3LYP) =  -465.937998347     A.U. after    8 cycles
 SCF Done:  E(RB3LYP) =  -465.938005769     A.U. after    8 cycles
 SCF Done:  E(RB3LYP) =  -465.938008751     A.U. after    7 cycles
 SCF Done:  E(RB3LYP) =  -465.938010291     A.U. after    7 cycles
 SCF Done:  E(RB3LYP) =  -465.938010628     A.U. after    6 cycles
 Optimization completed.
    -- Stationary point found.
 Normal termination of Gaussian 16 at Tue Dec  8 20:37:19 2020.

 --------------------------------------------------------------------
 #N Geom=AllCheck Guess=TCheck SCRF=Check GenChk RB3LYP/6-31G(d) Freq
 --------------------------------------------------------------------

 Structure from the checkpoint file:  "JID_1642.chk"
 ------------------------------
 CID_15534436_JID_1642_neutraal
 ------------------------------
 Charge =  0 Multiplicity = 1

 SCF Done:  E(RB3LYP) =  -465.938010628     A.U. after    1 cycles

  Exact polarizability:  99.755  -1.158 100.343  -0.896  -0.894  92.852
 Approx polarizability: 140.389  -1.669 142.270  -0.442  -1.798 140.782

                      1                      2                      3
                      A                      A                      A
 Frequencies --    152.1937               191.6398               201.0763
 Red. masses --      1.6939                 1.4795                 1.8029
 Frc consts  --      0.0231                 0.0320                 0.0429
 IR Inten    --      0.0782                 0.3935                 0.3474

                      4                      5                      6
                      A                      A                      A
 Frequencies --    217.7245               223.8181               241.6792
 Red. masses --      1.1452                 1.2292                 2.3929
 Frc consts  --      0.0320                 0.0363                 0.0823
 IR Inten    --      1.7734                 1.1235                 1.9774

                      7                      8                      9
                      A                      A                      A
 Frequencies --    270.0321               300.0747               327.5067
 Red. masses --      2.1327                 1.3835                 2.7475
 Frc consts  --      0.0916                 0.0734                 0.1736
 IR Inten    --      8.4061                81.0091                 2.5097

                     10                     11                     12
                      A                      A                      A
 Frequencies --    353.9963               374.4873               447.0571
 Red. masses --      2.5444                 2.3129                 2.2809
 Frc consts  --      0.1879                 0.1911                 0.2686
 IR Inten    --     21.7571                 1.2309                 1.5005

                     13                     14                     15
                      A                      A                      A
 Frequencies --    489.0121               511.9559               531.6259
 Red. masses --      2.2478                 2.4463                 3.6250
 Frc consts  --      0.3167                 0.3778                 0.6036
 IR Inten    --      3.2300                 0.3188                 3.3496

                     16                     17                     18
                      A                      A                      A
 Frequencies --    554.1592               615.6566               667.8519
 Red. masses --      3.0356                 4.8282                 3.3977
 Frc consts  --      0.5493                 1.0782                 0.8929
 IR Inten    --      0.7663                 3.5365                 2.1854

                     19                     20                     21
                      A                      A                      A
 Frequencies --    690.8249               737.9787               841.1481
 Red. masses --      4.4970                 2.6180                 2.3381
 Frc consts  --      1.2645                 0.8401                 0.9747
 IR Inten    --      0.0823                 0.2295                 5.5886

                     22                     23                     24
                      A                      A                      A
 Frequencies --    866.0787               867.9827               905.2001
 Red. masses --      1.9198                 1.8428                 2.5844
 Frc consts  --      0.8484                 0.8180                 1.2477
 IR Inten    --      4.4647                 3.1153                 6.2988

                     25                     26                     27
                      A                      A                      A
 Frequencies --    947.2752               966.1864               976.4742
 Red. masses --      1.5304                 1.4965                 1.6596
 Frc consts  --      0.8091                 0.8231                 0.9323
 IR Inten    --      2.6516                 1.0701                 0.1564

                     28                     29                     30
                      A                      A                      A
 Frequencies --    981.0890               997.5045              1023.7011
 Red. masses --      1.6991                 1.6915                 1.3133
 Frc consts  --      0.9636                 0.9916                 0.8109
 IR Inten    --      1.9234                 5.1544                 1.1444

                     31                     32                     33
                      A                      A                      A
 Frequencies --   1038.7924              1047.5593              1080.1784
 Red. masses --      1.2928                 1.4047                 1.9562
 Frc consts  --      0.8219                 0.9082                 1.3448
 IR Inten    --      1.1667                 3.3802                25.7568

                     34                     35                     36
                      A                      A                      A
 Frequencies --   1118.3038              1129.5347              1154.7085
 Red. masses --      1.9712                 1.7090                 1.3624
 Frc consts  --      1.4525                 1.2847                 1.0703
 IR Inten    --      4.7225                 6.9093                10.1335

                     37                     38                     39
                      A                      A                      A
 Frequencies --   1161.5780              1179.1475              1206.1092
 Red. masses --      2.2042                 2.5941                 1.8294
 Frc consts  --      1.7523                 2.1250                 1.5680
 IR Inten    --     10.0412                31.5945                24.8686

                     40                     41                     42
                      A                      A                      A
 Frequencies --   1223.2281              1237.1932              1279.8427
 Red. masses --      2.0474                 2.2422                 2.5252
 Frc consts  --      1.8050                 2.0220                 2.4370
 IR Inten    --      9.0759                 5.1446                 3.4137

                     43                     44                     45
                      A                      A                      A
 Frequencies --   1283.3215              1303.4094              1333.9602
 Red. masses --      1.8763                 1.6928                 2.9781
 Frc consts  --      1.8207                 1.6944                 3.1223
 IR Inten    --      2.3027                23.8497                26.5654

                     46                     47                     48
                      A                      A                      A
 Frequencies --   1353.5694              1397.5503              1426.7015
 Red. masses --      2.4492                 1.8408                 1.2797
 Frc consts  --      2.6438                 2.1183                 1.5347
 IR Inten    --     43.8694                10.4649                 6.7445

                     49                     50                     51
                      A                      A                      A
 Frequencies --   1432.9448              1447.6270              1451.4003
 Red. masses --      1.8178                 1.3611                 1.7451
 Frc consts  --      2.1992                 1.6806                 2.1659
 IR Inten    --      2.7043                 3.3456                 0.2336

                     52                     53                     54
                      A                      A                      A
 Frequencies --   1512.6423              1515.9120              1522.0599
 Red. masses --      1.0668                 1.0501                 1.0537
 Frc consts  --      1.4381                 1.4218                 1.4383
 IR Inten    --      0.3292                 2.2125                 3.4602

                     55                     56                     57
                      A                      A                      A
 Frequencies --   1528.1458              1535.9426              1538.8222
 Red. masses --      1.0551                 1.0759                 1.0689
 Frc consts  --      1.4517                 1.4955                 1.4913
 IR Inten    --      5.9903                 0.4499                 8.8413

                     58                     59                     60
                      A                      A                      A
 Frequencies --   1543.0445              1564.6375              3035.3808
 Red. masses --      1.0674                 1.0840                 1.0376
 Frc consts  --      1.4974                 1.5636                 5.6324
 IR Inten    --      2.0262                 5.4529                38.5934

                     61                     62                     63
                      A                      A                      A
 Frequencies --   3037.1283              3054.0310              3064.1150
 Red. masses --      1.0413                 1.0377                 1.0595
 Frc consts  --      5.6591                 5.7024                 5.8609
 IR Inten    --     26.4716                33.1603                34.7273

                     64                     65                     66
                      A                      A                      A
 Frequencies --   3075.1619              3093.8236              3099.2154
 Red. masses --      1.0641                 1.1011                 1.0962
 Frc consts  --      5.9287                 6.2095                 6.2037
 IR Inten    --     36.8590                25.9281                15.9184

                     67                     68                     69
                      A                      A                      A
 Frequencies --   3103.1423              3104.2835              3113.9169
 Red. masses --      1.1046                 1.1021                 1.1014
 Frc consts  --      6.2669                 6.2573                 6.2922
 IR Inten    --     19.2864                38.6813                39.0552

                     70                     71                     72
                      A                      A                      A
 Frequencies --   3124.5594              3136.0804              3141.7321
 Red. masses --      1.1022                 1.0982                 1.0980
 Frc consts  --      6.3397                 6.3636                 6.3857
 IR Inten    --     28.3215                32.7016                23.7776

                     73                     74                     75
                      A                      A                      A
 Frequencies --   3195.0590              3204.9736              3733.6465
 Red. masses --      1.0904                 1.0937                 1.0657
 Frc consts  --      6.5586                 6.6190                 8.7527
 IR Inten    --     12.5147                26.9175                 9.0008

 - Thermochemistry -
 -------------------
 Temperature   298.150 Kelvin.  Pressure   1.00000 Atm.
 Atom     1 has atomic number  6 and mass  12.00000

 Molecular mass:   152.12012 amu.
 Principal axes and moments of inertia in atomic units:
                           1         2         3
     Eigenvalues --  1165.183771429.902401743.67607
           X            0.99953  -0.02866  -0.01102
           Y            0.02861   0.99958  -0.00548
           Z            0.01117   0.00517   0.99992
 This molecule is an asymmetric top.
 Rotational symmetry number  1.
 Warning -- assumption of classical behavior for rotation
           may cause significant error
 Rotational temperatures (Kelvin)      0.07433     0.06057     0.04967
 Rotational constants (GHZ):           1.54889     1.26214     1.03502
 Zero-point vibrational energy     636037.2 (Joules/Mol)
                                  152.01653 (Kcal/Mol)
 Warning -- explicit consideration of  17 degrees of freedom as
           vibrations may cause significant error
 Vibrational temperatures:    218.97   275.73   289.30   313.26   322.02
          (Kelvin)            347.72   388.52   431.74   471.21   509.32
                              538.80   643.22   703.58   736.59   764.89
                              797.31   885.79   960.89   993.94  1061.79
                             1210.22  1246.09  1248.83  1302.38  1362.92
                             1390.13  1404.93  1411.57  1435.19  1472.88
                             1494.59  1507.20  1554.14  1608.99  1625.15
                             1661.37  1671.25  1696.53  1735.32  1759.95
                             1780.05  1841.41  1846.41  1875.32  1919.27
                             1947.48  2010.76  2052.71  2061.69  2082.81
                             2088.24  2176.35  2181.06  2189.90  2198.66
                             2209.88  2214.02  2220.10  2251.16  4367.24
                             4369.75  4394.07  4408.58  4424.47  4451.32
                             4459.08  4464.73  4466.37  4480.23  4495.54
                             4512.12  4520.25  4596.98  4611.24  5371.88

 Zero-point correction=                           0.242254 (Hartree/Particle)
 Thermal correction to Energy=                    0.252808
 Thermal correction to Enthalpy=                  0.253752
 Thermal correction to Gibbs Free Energy=         0.207994
 Sum of electronic and zero-point Energies=           -465.695757
 Sum of electronic and thermal Energies=              -465.685202
 Sum of electronic and thermal Enthalpies=            -465.684258
 Sum of electronic and thermal Free Energies=         -465.730017

                     E (Thermal)             CV                S
                      KCal/Mol        Cal/Mol-Kelvin    Cal/Mol-Kelvin
 Total                  158.640             43.765             96.307
 Electronic               0.000              0.000              0.000
 Translational            0.889              2.981             40.968
 Rotational               0.889              2.981             29.453
 Vibrational            156.862             37.803             25.886
 Vibration     1          0.619              1.900              2.645
 Vibration     2          0.634              1.851              2.212
 Vibration     3          0.638              1.838              2.123
 Vibration     4          0.646              1.814              1.978
 Vibration     5          0.649              1.805              1.928
 Vibration     6          0.658              1.776              1.790
 Vibration     7          0.674              1.728              1.596
 Vibration     8          0.693              1.674              1.416
 Vibration     9          0.711              1.621              1.272
 Vibration    10          0.730              1.567              1.148
 Vibration    11          0.746              1.524              1.061
 Vibration    12          0.806              1.367              0.805
 Vibration    13          0.845              1.274              0.686
 Vibration    14          0.867              1.224              0.629
 Vibration    15          0.887              1.180              0.584
 Vibration    16          0.910              1.131              0.536
 Vibration    17          0.975              0.999              0.424

                           ! Non-Optimized Parameters !
 Normal termination of Gaussian 16 at Tue Dec  8 20:44:54 2020.

 ----------------------------------------------------------------------
 # B3LYP/6-311++G(d,p) empiricaldispersion=gd3bj scf=xqc pop=npa geom=c
 heck
 ----------------------------------------------------------------------

 --------------------------------------
 CID_15534436_JID_1642_Energie_neutraal
 --------------------------------------
 Structure from the checkpoint file:  "JID_1642.chk"
 Charge =  0 Multiplicity = 1

 SCF Done:  E(RB3LYP) =  -466.071531351     A.U. after   13 cycles
 Normal termination of Gaussian 16 at Tue Dec  8 20:48:02 2020.

 ----------------------------------------------------------------------
 # B3LYP/6-311++G(d,p) empiricaldispersion=gd3bj scf=xqc pop=npa geom=c
 heck
 ----------------------------------------------------------------------

 ------------------------------------
 CID_15534436_JID_1642_Energie_kation
 ------------------------------------
 Structure from the checkpoint file:  "JID_1642.chk"
 Charge =  1 Multiplicity = 2

 SCF Done:  E(UB3LYP) =  -465.739963386     A.U. after   29 cycles
 Normal termination of Gaussian 16 at Tue Dec  8 20:56:22 2020.
 Gaussian 16:  ES64L-G16RevA.03 25-Dec-2016

 ----------------------------------------------------------------------
 # B3LYP/6-311++G(d,p) empiricaldispersion=gd3bj scf=xqc pop=npa geom=c
 heck
 ----------------------------------------------------------------------

 -----------------------------------
 CID_15534436_JID_1642_Energie_anion
 -----------------------------------
 Structure from the checkpoint file:  "JID_1642.chk"
 Charge = -1 Multiplicity = 2

                         Standard orientation:
 ---------------------------------------------------------------------
 Center     Atomic      Atomic             Coordinates (Angstroms)
 Number     Number       Type             X           Y           Z
 ---------------------------------------------------------------------
      1          6           0       -0.017294    1.736395   -1.231420
      2          6           0       -0.030277    0.830523    0.007619
      3          6           0       -1.168420   -0.198539   -0.006963
      4          6           0       -0.665212   -1.414264    0.754407
      5          6           0       -0.660804   -1.411609   -0.771238
      6          6           0        0.776654   -1.142325   -1.190737
      7          6           0        1.137015   -0.224288    0.006412
      8          6           0        0.769617   -1.143791    1.187980
      9          8           0        2.448729    0.275101    0.081947
     10          6           0       -2.615594    0.212552   -0.011280
     11          6           0       -0.020259    1.713699    1.262173
     12          1           0        0.916701    2.312626   -1.283449
     13          1           0       -0.835285    2.463442   -1.183978
     14          1           0       -0.130785    1.180077   -2.165587
     15          1           0       -1.342194   -2.045880    1.319969
     16          1           0       -1.335494   -2.039525   -1.344088
     17          1           0        0.873349   -0.651465   -2.164718
     18          1           0        1.401673   -2.042384   -1.196295
     19          1           0        1.394093   -2.044058    1.195299
     20          1           0        0.864251   -0.651467    2.158672
     21          1           0        2.617823    0.772244   -0.733773
     22          1           0       -3.271958   -0.665392   -0.014729
     23          1           0       -2.864647    0.808572    0.875413
     24          1           0       -2.860680    0.811280   -0.897414
     25          1           0        0.959055    2.191431    1.379158
     26          1           0       -0.776334    2.503204    1.186197
     27          1           0       -0.231971    1.146370    2.172022
 ---------------------------------------------------------------------

 SCF Done:  E(UB3LYP) =  -466.054510888     A.U. after   31 cycles

 The electronic state is 2-A.
 Alpha  occ. eigenvalues --  -19.02049 -10.11869 -10.07200 -10.07095 -10.06640
 Alpha  occ. eigenvalues --  -10.06594 -10.05992 -10.05826 -10.05386 -10.04725
 Alpha  occ. eigenvalues --  -10.04709  -0.92586  -0.80932  -0.67583  -0.65465
 Alpha  occ. eigenvalues --   -0.61326  -0.58453  -0.56945  -0.52950  -0.46350
 Alpha  occ. eigenvalues --   -0.44199  -0.41157  -0.40620  -0.37483  -0.35192
 Alpha  occ. eigenvalues --   -0.33969  -0.32212  -0.30253  -0.29675  -0.29256
 Alpha  occ. eigenvalues --   -0.28790  -0.27105  -0.27080  -0.26438  -0.26205
 Alpha  occ. eigenvalues --   -0.24876  -0.23369  -0.22851  -0.19315  -0.15954
 Alpha  occ. eigenvalues --   -0.15771  -0.15516   0.04811
 Alpha virt. eigenvalues --    0.07005   0.07701   0.08129   0.09574   0.10032
 Alpha virt. eigenvalues --    0.10192   0.10248   0.10861   0.12696   0.12803
 Alpha virt. eigenvalues --    0.12981   0.13511   0.14055   0.14752   0.15977

  Beta  occ. eigenvalues --  -19.02019 -10.11870 -10.07195 -10.07096 -10.06631
  Beta  occ. eigenvalues --  -10.06583 -10.05982 -10.05804 -10.05349 -10.04687
  Beta  occ. eigenvalues --  -10.04677  -0.92529  -0.80914  -0.67553  -0.65437
  Beta  occ. eigenvalues --   -0.61294  -0.58396  -0.56878  -0.52897  -0.46288
  Beta  occ. eigenvalues --   -0.44163  -0.41107  -0.40560  -0.37450  -0.35158
  Beta  occ. eigenvalues --   -0.33933  -0.32168  -0.30223  -0.29640  -0.29219
  Beta  occ. eigenvalues --   -0.28760  -0.27062  -0.27043  -0.26402  -0.26177
  Beta  occ. eigenvalues --   -0.24846  -0.23326  -0.22814  -0.19289  -0.15936
  Beta  occ. eigenvalues --   -0.15748  -0.15500
  Beta virt. eigenvalues --    0.07179   0.08157   0.08394   0.08810   0.10233
  Beta virt. eigenvalues --    0.10614   0.10742   0.10891   0.11260   0.13254
  Beta virt. eigenvalues --    0.13357   0.13439   0.14051   0.14348   0.15073

 Mulliken charges and spin densities:
               1          2
     1  C    2.017702  -2.507434
     2  C   -2.675914   2.926373
     3  C   -0.525078   0.785706
     4  C   -2.006353   1.778598
     5  C    0.057485  -0.227860
     6  C    0.595372  -1.270709
     7  C   -1.358154   1.233639
     8  C    1.924835  -2.489611
     9  O   -0.167925  -0.032268
    10  C    4.032546  -4.139036
    11  C    0.014628  -0.603076
    12  H   -0.330882   0.485469
    13  H   -0.233787   0.378116
    14  H   -0.206550   0.346519
    15  H   -0.463917   0.676199
    16  H   -0.405588   0.619432
    17  H   -0.127765   0.283978
    18  H   -0.134522   0.272048
    19  H   -0.083417   0.228737
    20  H    0.302231  -0.146361
    21  H   -0.206069   0.474274
    22  H   -0.328944   0.470162
    23  H   -0.177732   0.333729
    24  H   -0.237188   0.403553
    25  H    0.052387   0.118022
    26  H   -0.165251   0.302291
    27  H   -0.162149   0.299512
 Sum of Mulliken charges =  -1.00000   1.00000

 Dipole moment (field-independent basis, Debye):
    X=              1.5926    Y=             -1.6523    Z=              2.3388  Tot=              3.2767
 Quadrupole moment (field-independent basis, Debye-Ang):
   XX=           -122.2192   YY=           -110.4745   ZZ=           -107.6275
   XY=             -2.8898   XZ=              1.7392   YZ=              2.9477

 Summary of Natural Population Analysis:

                                       Natural Population
                Natural  -----------------------------------------------
    Atom  No    Charge         Core      Valence    Rydberg      Total
 -----------------------------------------------------------------------
      C    1   -0.29088      0.99962     2.28265    0.00861     3.29088
      C    2   -0.04333      0.99948     2.02640    0.01745     3.04333
      C    3   -0.03089      0.99947     2.01515    0.01627     3.03089
      C    4   -0.10783      0.99954     2.09676    0.01153     3.10783
      C    5   -0.10718      0.99954     2.09566    0.01198     3.10718
      C    6   -0.20083      0.99958     2.18986    0.01139     3.20083
      C    7    0.14214      0.99938     1.83894    0.01955     2.85786
      C    8   -0.19221      0.99958     2.18409    0.00854     3.19221
      O    9   -0.37153      0.99987     3.36434    0.00731     4.37153
      C   10   -0.28187      0.99961     2.27542    0.00684     3.28187
      C   11   -0.28881      0.99962     2.28174    0.00745     3.28881
      H   12    0.09961      0.00000     0.39856    0.00183     0.40039
      H   13    0.10381      0.00000     0.39489    0.00130     0.39619
      H   14    0.10386      0.00000     0.39439    0.00176     0.39614
      H   15    0.10681      0.00000     0.39209    0.00109     0.39319
      H   16    0.10750      0.00000     0.39126    0.00124     0.39250
      H   17    0.10369      0.00000     0.39471    0.00159     0.39631
      H   18    0.09997      0.00000     0.39877    0.00126     0.40003
      H   19    0.09972      0.00000     0.39910    0.00118     0.40028
      H   20    0.10306      0.00000     0.39584    0.00109     0.39694
      H   21    0.23302      0.00000     0.26300    0.00397     0.26698
      H   22    0.10241      0.00000     0.39612    0.00147     0.39759
      H   23    0.10095      0.00000     0.39774    0.00131     0.39905
      H   24    0.10269      0.00000     0.39593    0.00138     0.39731
      H   25    0.10510      0.00000     0.39382    0.00108     0.39490
      H   26    0.10054      0.00000     0.39855    0.00092     0.39946
      H   27    0.10047      0.00000     0.39850    0.00103     0.39953
 =======================================================================
   * Total *   -0.00000     10.99529    30.85429    0.15042    42.00000

 Normal termination of Gaussian 16 at Tue Dec  8 21:05:09 2020.
