 Gaussian 16, Revision A.03,

 -----------------------------------------------------------
 # opt freq B3LYP/6-31G(d) empiricaldispersion=gd3bj scf=xqc
 -----------------------------------------------------------

 ------------------------------
 CID_62847067_JID_4028_neutraal
 ------------------------------
 Symbolic Z-matrix:
 Charge =  0 Multiplicity = 1

 SCF Done:  E(RB3LYP) =  -689.019219934     A.U. after   15 cycles
 SCF Done:  E(RB3LYP) =  -689.024331255     A.U. after   13 cycles
 SCF Done:  E(RB3LYP) =  -689.023929133     A.U. after   13 cycles
 SCF Done:  E(RB3LYP) =  -689.023357855     A.U. after   13 cycles
 SCF Done:  E(RB3LYP) =  -689.020951471     A.U. after   12 cycles
 SCF Done:  E(RB3LYP) =  -689.024787534     A.U. after   10 cycles
 SCF Done:  E(RB3LYP) =  -689.027106243     A.U. after   12 cycles
 SCF Done:  E(RB3LYP) =  -689.027316231     A.U. after   11 cycles
 SCF Done:  E(RB3LYP) =  -689.027317884     A.U. after   12 cycles
 SCF Done:  E(RB3LYP) =  -689.027720188     A.U. after   12 cycles
 SCF Done:  E(RB3LYP) =  -689.027975270     A.U. after   10 cycles
 SCF Done:  E(RB3LYP) =  -689.027980933     A.U. after    9 cycles
 SCF Done:  E(RB3LYP) =  -689.027982783     A.U. after    9 cycles
 SCF Done:  E(RB3LYP) =  -689.027982898     A.U. after    7 cycles
 SCF Done:  E(RB3LYP) =  -689.027982916     A.U. after    6 cycles
 Optimization completed.
    -- Stationary point found.
 Normal termination of Gaussian 16 at Thu Dec 10 09:22:51 2020.

 --------------------------------------------------------------------
 #N Geom=AllCheck Guess=TCheck SCRF=Check GenChk RB3LYP/6-31G(d) Freq
 --------------------------------------------------------------------

 Structure from the checkpoint file:  "JID_4028.chk"
 ------------------------------
 CID_62847067_JID_4028_neutraal
 ------------------------------
 Charge =  0 Multiplicity = 1

 SCF Done:  E(RB3LYP) =  -689.027982916     A.U. after    2 cycles

  Exact polarizability: 127.208  -4.670 114.603   0.611   3.134 101.520
 Approx polarizability: 158.736 -15.005 167.086  -7.950  16.514 157.168

                      1                      2                      3
                      A                      A                      A
 Frequencies --     30.1824                46.1472                50.1248
 Red. masses --      4.0971                 3.6201                 4.5538
 Frc consts  --      0.0022                 0.0045                 0.0067
 IR Inten    --      1.4004                 0.7617                 1.0581

                      4                      5                      6
                      A                      A                      A
 Frequencies --     66.5684                98.2399               118.7489
 Red. masses --      4.1384                 3.9930                 4.2759
 Frc consts  --      0.0108                 0.0227                 0.0355
 IR Inten    --      1.0647                 3.2335                 1.1059

                      7                      8                      9
                      A                      A                      A
 Frequencies --    148.4541               191.8500               199.1670
 Red. masses --      1.6777                 1.3883                 1.9950
 Frc consts  --      0.0218                 0.0301                 0.0466
 IR Inten    --      2.5920                 1.0948                 0.9850

                     10                     11                     12
                      A                      A                      A
 Frequencies --    222.2161               234.5787               244.4571
 Red. masses --      1.7277                 1.2102                 1.9132
 Frc consts  --      0.0503                 0.0392                 0.0674
 IR Inten    --      1.2324                 0.2511                 0.8964

                     13                     14                     15
                      A                      A                      A
 Frequencies --    259.4479               278.2034               293.6330
 Red. masses --      2.1743                 1.8701                 1.5777
 Frc consts  --      0.0862                 0.0853                 0.0801
 IR Inten    --      0.8431                 1.0714                 0.0806

                     16                     17                     18
                      A                      A                      A
 Frequencies --    319.8925               332.6771               365.2263
 Red. masses --      2.4538                 2.7646                 2.8864
 Frc consts  --      0.1479                 0.1803                 0.2268
 IR Inten    --      2.9786                10.3541                 2.6301

                     19                     20                     21
                      A                      A                      A
 Frequencies --    396.0093               438.6522               456.6254
 Red. masses --      3.6055                 3.0893                 5.2965
 Frc consts  --      0.3331                 0.3502                 0.6507
 IR Inten    --      2.8370                 4.0215                 3.3508

                     22                     23                     24
                      A                      A                      A
 Frequencies --    459.5172               553.3312               583.5866
 Red. masses --      3.1657                 2.7419                 3.1778
 Frc consts  --      0.3938                 0.4946                 0.6377
 IR Inten    --      2.8703                19.9503                20.7991

                     25                     26                     27
                      A                      A                      A
 Frequencies --    588.6403               646.9666               684.5163
 Red. masses --      2.6115                 2.0192                 2.8787
 Frc consts  --      0.5331                 0.4980                 0.7947
 IR Inten    --     51.2561                14.7959                19.5241

                     28                     29                     30
                      A                      A                      A
 Frequencies --    706.6459               735.3625               772.0280
 Red. masses --      4.2427                 1.6704                 4.2667
 Frc consts  --      1.2482                 0.5322                 1.4984
 IR Inten    --     24.9267                93.2476                43.2354

                     31                     32                     33
                      A                      A                      A
 Frequencies --    799.2067               871.9245               894.6171
 Red. masses --      1.3238                 2.7593                 1.5967
 Frc consts  --      0.4982                 1.2359                 0.7529
 IR Inten    --      5.5054                 9.4944                10.3019

                     34                     35                     36
                      A                      A                      A
 Frequencies --    927.9639               936.8223               944.5189
 Red. masses --      2.6072                 2.0026                 1.6371
 Frc consts  --      1.3228                 1.0355                 0.8605
 IR Inten    --     11.6532                 5.8101                 5.1072

                     37                     38                     39
                      A                      A                      A
 Frequencies --    985.2002              1035.2908              1059.1994
 Red. masses --      2.2766                 1.3038                 4.2965
 Frc consts  --      1.3019                 0.8233                 2.8400
 IR Inten    --     41.8875                 0.3869                64.6007

                     40                     41                     42
                      A                      A                      A
 Frequencies --   1107.4462              1131.6445              1136.0481
 Red. masses --      1.7153                 2.1348                 2.3569
 Frc consts  --      1.2395                 1.6107                 1.7922
 IR Inten    --     23.8883                23.4236                43.3456

                     43                     44                     45
                      A                      A                      A
 Frequencies --   1153.0639              1169.9506              1206.3235
 Red. masses --      2.5729                 1.5847                 2.2621
 Frc consts  --      2.0154                 1.2780                 1.9395
 IR Inten    --     13.0107                15.1102                 3.5267

                     46                     47                     48
                      A                      A                      A
 Frequencies --   1211.4814              1230.7658              1257.2669
 Red. masses --      1.8487                 2.8368                 2.6708
 Frc consts  --      1.5986                 2.5318                 2.4874
 IR Inten    --      5.0693                94.6215               156.5294

                     49                     50                     51
                      A                      A                      A
 Frequencies --   1286.0254              1302.6346              1343.5990
 Red. masses --      2.2133                 1.8494                 1.1579
 Frc consts  --      2.1567                 1.8490                 1.2315
 IR Inten    --     81.4170               133.2489                27.1999

                     52                     53                     54
                      A                      A                      A
 Frequencies --   1355.4367              1393.7654              1420.2432
 Red. masses --      2.2133                 1.5661                 1.2981
 Frc consts  --      2.3958                 1.7925                 1.5428
 IR Inten    --     95.1967                23.2886                 5.6456

                     55                     56                     57
                      A                      A                      A
 Frequencies --   1425.9390              1444.3152              1446.5114
 Red. masses --      1.2145                 1.3231                 1.2589
 Frc consts  --      1.4550                 1.6262                 1.5519
 IR Inten    --      7.3480                18.8030                 3.7027

                     58                     59                     60
                      A                      A                      A
 Frequencies --   1471.6447              1491.7016              1502.2779
 Red. masses --      1.1713                 1.0830                 1.1664
 Frc consts  --      1.4946                 1.4198                 1.5510
 IR Inten    --      3.5112                 6.9928                10.2676

                     61                     62                     63
                      A                      A                      A
 Frequencies --   1507.5253              1512.6062              1516.4694
 Red. masses --      1.4008                 1.0655                 1.0490
 Frc consts  --      1.8757                 1.4364                 1.4214
 IR Inten    --     20.7056                 4.6473                 8.4839

                     64                     65                     66
                      A                      A                      A
 Frequencies --   1519.7916              1524.2117              1532.9237
 Red. masses --      1.0825                 1.0641                 1.0522
 Frc consts  --      1.4732                 1.4565                 1.4568
 IR Inten    --      3.6394                 1.5061                 1.8465

                     67                     68                     69
                      A                      A                      A
 Frequencies --   1537.8081              1542.6639              1550.2594
 Red. masses --      1.0576                 1.0581                 1.0779
 Frc consts  --      1.4736                 1.4836                 1.5263
 IR Inten    --      5.4327                15.9243                18.1369

                     70                     71                     72
                      A                      A                      A
 Frequencies --   1554.4639              1784.2036              1821.7740
 Red. masses --      1.0903                 7.9611                11.2961
 Frc consts  --      1.5522                14.9318                22.0886
 IR Inten    --     17.8492               274.6671               177.7473

                     73                     74                     75
                      A                      A                      A
 Frequencies --   2972.6356              3054.7418              3062.7392
 Red. masses --      1.0606                 1.0434                 1.0419
 Frc consts  --      5.5218                 5.7366                 5.7584
 IR Inten    --     83.8160                19.8907                22.0954

                     76                     77                     78
                      A                      A                      A
 Frequencies --   3063.5434              3074.2455              3095.0324
 Red. masses --      1.0359                 1.0716                 1.0789
 Frc consts  --      5.7282                 5.9668                 6.0890
 IR Inten    --     15.4529                15.3810                47.8131

                     79                     80                     81
                      A                      A                      A
 Frequencies --   3098.3372              3127.4500              3129.4867
 Red. masses --      1.0592                 1.0952                 1.0942
 Frc consts  --      5.9909                 6.3113                 6.3139
 IR Inten    --     15.7485                14.4955                33.0278

                     82                     83                     84
                      A                      A                      A
 Frequencies --   3130.8574              3142.3358              3152.6865
 Red. masses --      1.1010                 1.1046                 1.0972
 Frc consts  --      6.3587                 6.4260                 6.4253
 IR Inten    --     24.4513                 4.5218                11.1405

                     85                     86                     87
                      A                      A                      A
 Frequencies --   3158.5078              3162.9723              3165.9895
 Red. masses --      1.1016                 1.1084                 1.0953
 Frc consts  --      6.4749                 6.5335                 6.4683
 IR Inten    --      6.0197                19.9672                38.5044

                     88                     89                     90
                      A                      A                      A
 Frequencies --   3172.9099              3489.6696              3578.8747
 Red. masses --      1.0965                 1.0738                 1.0752
 Frc consts  --      6.5040                 7.7045                 8.1138
 IR Inten    --      6.7989                 1.7002                19.5328

 - Thermochemistry -
 -------------------
 Temperature   298.150 Kelvin.  Pressure   1.00000 Atm.
 Atom     1 has atomic number  6 and mass  12.00000

 Molecular mass:   202.13174 amu.
 Principal axes and moments of inertia in atomic units:
                           1         2         3
     Eigenvalues --  1629.417904549.172054864.66910
           X            0.99967   0.01677   0.01923
           Y           -0.01564   0.99822  -0.05755
           Z           -0.02016   0.05723   0.99816
 This molecule is an asymmetric top.
 Rotational symmetry number  1.
 Warning -- assumption of classical behavior for rotation
           may cause significant error
 Rotational temperatures (Kelvin)      0.05316     0.01904     0.01780
 Rotational constants (GHZ):           1.10760     0.39672     0.37099
 Zero-point vibrational energy     730931.7 (Joules/Mol)
                                  174.69687 (Kcal/Mol)
 Warning -- explicit consideration of  25 degrees of freedom as
           vibrations may cause significant error
 Vibrational temperatures:     43.43    66.40    72.12    95.78   141.35
          (Kelvin)            170.85   213.59   276.03   286.56   319.72
                              337.51   351.72   373.29   400.27   422.47
                              460.25   478.65   525.48   569.77   631.12
                              656.98   661.14   796.12   839.65   846.92
                              930.84   984.87  1016.71  1058.02  1110.78
                             1149.88  1254.50  1287.15  1335.13  1347.88
                             1358.95  1417.48  1489.55  1523.95  1593.37
                             1628.18  1634.52  1659.00  1683.30  1735.63
                             1743.05  1770.80  1808.93  1850.30  1874.20
                             1933.14  1950.17  2005.32  2043.41  2051.61
                             2078.05  2081.21  2117.37  2146.23  2161.44
                             2168.99  2176.30  2181.86  2186.64  2193.00
                             2205.54  2212.56  2219.55  2230.48  2236.53
                             2567.07  2621.13  4276.96  4395.09  4406.60
                             4407.76  4423.15  4453.06  4457.82  4499.70
                             4502.63  4504.61  4521.12  4536.01  4544.39
                             4550.81  4555.15  4565.11  5020.86  5149.20

 Zero-point correction=                           0.278397 (Hartree/Particle)
 Thermal correction to Energy=                    0.294719
 Thermal correction to Enthalpy=                  0.295663
 Thermal correction to Gibbs Free Energy=         0.234201
 Sum of electronic and zero-point Energies=           -688.749586
 Sum of electronic and thermal Energies=              -688.733264
 Sum of electronic and thermal Enthalpies=            -688.732320
 Sum of electronic and thermal Free Energies=         -688.793782

                     E (Thermal)             CV                S
                      KCal/Mol        Cal/Mol-Kelvin    Cal/Mol-Kelvin
 Total                  184.939             59.634            129.358
 Electronic               0.000              0.000              0.000
 Translational            0.889              2.981             41.816
 Rotational               0.889              2.981             31.956
 Vibrational            183.161             53.672             55.587
 Vibration     1          0.594              1.984              5.817
 Vibration     2          0.595              1.979              4.976
 Vibration     3          0.595              1.978              4.812
 Vibration     4          0.598              1.970              4.252
 Vibration     5          0.604              1.950              3.489
 Vibration     6          0.609              1.934              3.121
 Vibration     7          0.618              1.904              2.692
 Vibration     8          0.634              1.851              2.210
 Vibration     9          0.637              1.841              2.141
 Vibration    10          0.648              1.807              1.941
 Vibration    11          0.654              1.788              1.844
 Vibration    12          0.660              1.772              1.770
 Vibration    13          0.668              1.747              1.665
 Vibration    14          0.679              1.714              1.545
 Vibration    15          0.688              1.686              1.453
 Vibration    16          0.706              1.635              1.311
 Vibration    17          0.715              1.610              1.247
 Vibration    18          0.738              1.544              1.100
 Vibration    19          0.763              1.479              0.977
 Vibration    20          0.799              1.386              0.831
 Vibration    21          0.815              1.346              0.776
 Vibration    22          0.817              1.340              0.768
 Vibration    23          0.909              1.132              0.537
 Vibration    24          0.940              1.067              0.479
 Vibration    25          0.946              1.056              0.470

 Optimization completed.
    -- Stationary point found.
 Normal termination of Gaussian 16 at Thu Dec 10 09:32:18 2020.

 ----------------------------------------------------------------------
 # B3LYP/6-311++G(d,p) empiricaldispersion=gd3bj scf=xqc pop=npa geom=c
 heck
 ----------------------------------------------------------------------

 --------------------------------------
 CID_62847067_JID_4028_Energie_neutraal
 --------------------------------------
 Structure from the checkpoint file:  "JID_4028.chk"
 Charge =  0 Multiplicity = 1

 SCF Done:  E(RB3LYP) =  -689.238922704     A.U. after   16 cycles
 Normal termination of Gaussian 16 at Thu Dec 10 09:36:32 2020.

 ----------------------------------------------------------------------
 # B3LYP/6-311++G(d,p) empiricaldispersion=gd3bj scf=xqc pop=npa geom=c
 heck
 ----------------------------------------------------------------------

 ------------------------------------
 CID_62847067_JID_4028_Energie_kation
 ------------------------------------
 Structure from the checkpoint file:  "JID_4028.chk"
 Charge =  1 Multiplicity = 2

 SCF Done:  E(UB3LYP) =  -688.935544284     A.U. after   23 cycles
 Normal termination of Gaussian 16 at Thu Dec 10 09:46:34 2020.
 Gaussian 16:  ES64L-G16RevA.03 25-Dec-2016

 ----------------------------------------------------------------------
 # B3LYP/6-311++G(d,p) empiricaldispersion=gd3bj scf=xqc pop=npa geom=c
 heck
 ----------------------------------------------------------------------

 -----------------------------------
 CID_62847067_JID_4028_Energie_anion
 -----------------------------------
 Structure from the checkpoint file:  "JID_4028.chk"
 Charge = -1 Multiplicity = 2

                         Standard orientation:
 ---------------------------------------------------------------------
 Center     Atomic      Atomic             Coordinates (Angstroms)
 Number     Number       Type             X           Y           Z
 ---------------------------------------------------------------------
      1          6           0        4.254601    1.104983    0.240935
      2          6           0        2.874555    1.308123   -0.360900
      3          8           0        1.898928    0.435310    0.263741
      4          6           0        1.828547   -0.816870   -0.214656
      5          8           0        2.516759   -1.264332   -1.106554
      6          6           0        0.774771   -1.654937    0.511729
      7          7           0       -0.157293   -0.947200    1.357415
      8          6           0       -1.221207   -0.115261    1.038891
      9          8           0       -1.617396    0.657624    1.897302
     10          6           0       -1.927226   -0.254159   -0.338221
     11          6           0       -0.967844    0.047067   -1.516859
     12          6           0       -2.503463   -1.678258   -0.457872
     13          7           0       -3.092104    0.642370   -0.333643
     14          6           0       -2.839031    2.080443   -0.402420
     15          1           0        4.230450    1.254239    1.325104
     16          1           0        4.957142    1.826544   -0.190587
     17          1           0        4.621202    0.097624    0.026673
     18          1           0        2.492127    2.312838   -0.170222
     19          1           0        2.875673    1.113348   -1.435940
     20          1           0        0.266483   -2.253329   -0.244455
     21          1           0        1.321693   -2.371676    1.135719
     22          1           0        0.213791   -0.669796    2.259009
     23          1           0       -0.240626   -0.745537   -1.702743
     24          1           0       -1.564227    0.152090   -2.430582
     25          1           0       -0.419320    0.980578   -1.364157
     26          1           0       -3.228961   -1.848496    0.342045
     27          1           0       -3.017066   -1.787251   -1.421188
     28          1           0       -1.735768   -2.452937   -0.405456
     29          1           0       -3.675651    0.372929   -1.123233
     30          1           0       -2.277758    2.414103   -1.292722
     31          1           0       -3.805419    2.595083   -0.405109
     32          1           0       -2.296539    2.387851    0.491779
 ---------------------------------------------------------------------

 SCF Done:  E(UB3LYP) =  -689.227220586     A.U. after   33 cycles
 SCF Done:  E(UB3LYP) =  -689.227220586     a.u. after    1 cycles

 The electronic state is 2-A.
 Alpha  occ. eigenvalues --  -19.07817 -19.01984 -18.99406 -14.24145 -14.20136
 Alpha  occ. eigenvalues --  -10.20871 -10.17892 -10.13618 -10.13099 -10.12972
 Alpha  occ. eigenvalues --  -10.08364 -10.07680 -10.07198 -10.07114  -1.01812
 Alpha  occ. eigenvalues --   -0.94813  -0.93130  -0.82971  -0.81521  -0.68928
 Alpha  occ. eigenvalues --   -0.68371  -0.64067  -0.60835  -0.56677  -0.56420
 Alpha  occ. eigenvalues --   -0.54110  -0.47871  -0.46451  -0.43898  -0.41010
 Alpha  occ. eigenvalues --   -0.39270  -0.38271  -0.37598  -0.36899  -0.36282
 Alpha  occ. eigenvalues --   -0.35350  -0.35038  -0.33478  -0.32841  -0.31861
 Alpha  occ. eigenvalues --   -0.30844  -0.29537  -0.29039  -0.28757  -0.28225
 Alpha  occ. eigenvalues --   -0.27713  -0.27477  -0.26248  -0.25372  -0.25138
 Alpha  occ. eigenvalues --   -0.21789  -0.20726  -0.16409  -0.15561  -0.13197
 Alpha  occ. eigenvalues --    0.04177
 Alpha virt. eigenvalues --    0.05783   0.06483   0.07680   0.08318   0.08547
 Alpha virt. eigenvalues --    0.09085   0.09310   0.09910   0.10538   0.10831
 Alpha virt. eigenvalues --    0.11208   0.11435   0.12014   0.12555   0.13030

  Beta  occ. eigenvalues --  -19.07814 -19.01958 -18.99402 -14.24134 -14.20122
  Beta  occ. eigenvalues --  -10.20824 -10.17891 -10.13599 -10.13071 -10.12970
  Beta  occ. eigenvalues --  -10.08351 -10.07659 -10.07169 -10.07071  -1.01772
  Beta  occ. eigenvalues --   -0.94807  -0.93093  -0.82945  -0.81500  -0.68884
  Beta  occ. eigenvalues --   -0.68334  -0.63999  -0.60788  -0.56625  -0.56357
  Beta  occ. eigenvalues --   -0.54065  -0.47809  -0.46402  -0.43857  -0.40936
  Beta  occ. eigenvalues --   -0.39232  -0.38185  -0.37535  -0.36863  -0.36252
  Beta  occ. eigenvalues --   -0.35312  -0.35002  -0.33445  -0.32792  -0.31828
  Beta  occ. eigenvalues --   -0.30795  -0.29502  -0.29006  -0.28721  -0.28183
  Beta  occ. eigenvalues --   -0.27655  -0.27426  -0.26224  -0.25338  -0.25115
  Beta  occ. eigenvalues --   -0.21735  -0.20705  -0.16391  -0.15539  -0.13180
  Beta virt. eigenvalues --    0.06401   0.06887   0.07430   0.08166   0.08666
  Beta virt. eigenvalues --    0.08930   0.09499   0.09752   0.10023   0.10824
  Beta virt. eigenvalues --    0.11175   0.11609   0.11739   0.12309   0.12696

 Mulliken charges and spin densities:
               1          2
     1  C    1.150207  -1.631432
     2  C   -0.321267   0.282419
     3  O    0.112862   0.022118
     4  C   -0.917078   0.506920
     5  O   -0.205267   0.031852
     6  C    1.341339  -1.575366
     7  N   -0.400371   0.204322
     8  C   -0.148577   0.014189
     9  O   -0.296048   0.010743
    10  C   -0.124576   0.040908
    11  C    0.135116  -0.604667
    12  C    0.245276  -0.741003
    13  N   -0.109584   0.120978
    14  C   -0.025675  -0.330272
    15  H   -0.173710   0.324059
    16  H   -0.371595   0.516956
    17  H   -0.178878   0.350336
    18  H   -0.257190   0.421609
    19  H    0.034827   0.133827
    20  H    0.272762  -0.034969
    21  H   -0.723946   0.961473
    22  H    0.087235   0.246478
    23  H    0.093595   0.037782
    24  H   -0.371933   0.581011
    25  H    0.141957   0.033648
    26  H    0.096510   0.096275
    27  H   -0.228519   0.374672
    28  H   -0.035805   0.138263
    29  H    0.112393   0.118367
    30  H   -0.108996   0.217960
    31  H    0.003832   0.126690
    32  H    0.171106   0.003851
 Sum of Mulliken charges =  -1.00000   1.00000

 Dipole moment (field-independent basis, Debye):
    X=             -2.8959    Y=             -0.0538    Z=             -1.0609  Tot=              3.0845
 Quadrupole moment (field-independent basis, Debye-Ang):
   XX=           -163.3627   YY=           -126.5272   ZZ=           -128.6723
   XY=             -0.2137   XZ=             -2.1722   YZ=              0.8704

 Summary of Natural Population Analysis:

                                       Natural Population
                Natural  -----------------------------------------------
    Atom  No    Charge         Core      Valence    Rydberg      Total
 -----------------------------------------------------------------------
      C    1   -0.29774      0.99966     2.29379    0.00429     3.29774
      C    2   -0.01582      0.99957     2.00473    0.01151     3.01582
      O    3   -0.27998      0.99986     3.27076    0.00936     4.27998
      C    4    0.40784      0.99969     1.56609    0.02638     2.59216
      O    5   -0.30762      0.99987     3.30209    0.00565     4.30762
      C    6   -0.13746      0.99956     2.12545    0.01245     3.13746
      N    7   -0.32235      0.99967     2.81074    0.01194     3.82235
      C    8    0.35475      0.99961     1.62086    0.02479     2.64525
      O    9   -0.31310      0.99987     3.30745    0.00578     4.31310
      C   10    0.02377      0.99955     1.96386    0.01282     2.97623
      C   11   -0.29807      0.99962     2.29080    0.00765     3.29807
      C   12   -0.28274      0.99962     2.27544    0.00767     3.28274
      N   13   -0.33538      0.99973     2.82289    0.01276     3.83538
      C   14   -0.18560      0.99965     2.17728    0.00866     3.18560
      H   15    0.10163      0.00000     0.39669    0.00167     0.39837
      H   16    0.10388      0.00000     0.39414    0.00198     0.39612
      H   17    0.10616      0.00000     0.39252    0.00131     0.39384
      H   18    0.09215      0.00000     0.40657    0.00128     0.40785
      H   19    0.09438      0.00000     0.40419    0.00143     0.40562
      H   20    0.10882      0.00000     0.38991    0.00127     0.39118
      H   21    0.12032      0.00000     0.37557    0.00411     0.37968
      H   22    0.19587      0.00000     0.30119    0.00294     0.30413
      H   23    0.10289      0.00000     0.39580    0.00131     0.39711
      H   24    0.10417      0.00000     0.39449    0.00134     0.39583
      H   25    0.10555      0.00000     0.39277    0.00168     0.39445
      H   26    0.10819      0.00000     0.39059    0.00122     0.39181
      H   27    0.09979      0.00000     0.39897    0.00123     0.40021
      H   28    0.09994      0.00000     0.39913    0.00093     0.40006
      H   29    0.16992      0.00000     0.32743    0.00265     0.33008
      H   30    0.07788      0.00000     0.42075    0.00137     0.42212
      H   31    0.09185      0.00000     0.40747    0.00068     0.40815
      H   32    0.10611      0.00000     0.39275    0.00113     0.39389
 =======================================================================
   * Total *    0.00000     13.99554    40.81320    0.19126    55.00000

 Normal termination of Gaussian 16 at Thu Dec 10 09:59:27 2020.
